      -----------------------------------------------------------      
     |                   =====================                   |     
     |                           x T B                           |     
     |                   =====================                   |     
     |                         S. Grimme                         |     
     |          Mulliken Center for Theoretical Chemistry        |     
     |                    University of Bonn                     |     
      -----------------------------------------------------------      

   * xtb version 6.7.1 (edcfbbe) compiled by 'albert@albert-system' on 2024-07-22

   xtb is free software: you can redistribute it and/or modify it under
   the terms of the GNU Lesser General Public License as published by
   the Free Software Foundation, either version 3 of the License, or
   (at your option) any later version.
   
   xtb is distributed in the hope that it will be useful,
   but WITHOUT ANY WARRANTY; without even the implied warranty of
   MERCHANTABILITY or FITNESS FOR A PARTICULAR PURPOSE.  See the
   GNU Lesser General Public License for more details.
   
   Cite this work as:
   * C. Bannwarth, E. Caldeweyher, S. Ehlert, A. Hansen, P. Pracht,
     J. Seibert, S. Spicher, S. Grimme, WIREs Comput. Mol. Sci., 2020, 11,
     e01493. DOI: 10.1002/wcms.1493
   
   for GFN2-xTB:
   * C. Bannwarth, S. Ehlert and S. Grimme., J. Chem. Theory Comput., 2019,
     15, 1652-1671. DOI: 10.1021/acs.jctc.8b01176
   for GFN1-xTB:
   * S. Grimme, C. Bannwarth, P. Shushkov, J. Chem. Theory Comput., 2017,
     13, 1989-2009. DOI: 10.1021/acs.jctc.7b00118
   for GFN0-xTB:
   * P. Pracht, E. Caldeweyher, S. Ehlert, S. Grimme, ChemRxiv, 2019, preprint.
     DOI: 10.26434/chemrxiv.8326202.v1
   for GFN-FF:
   * S. Spicher and S. Grimme, Angew. Chem. Int. Ed., 2020, 59, 15665-15673.
     DOI: 10.1002/anie.202004239
   
   for ALPB and GBSA implicit solvation:
   * S. Ehlert, M. Stahn, S. Spicher, S. Grimme, J. Chem. Theory Comput.,
     2021, 17, 4250-4261. DOI: 10.1021/acs.jctc.1c00471
   
   for ddCOSMO and CPCM-X implicit solvation:
   * M. Stahn, S. Ehlert, S. Grimme, J. Phys. Chem. A,
     2023, XX, XXXX-XXXX. DOI: 10.1021/acs.jpca.3c04382
   
   for DFT-D4:
   * E. Caldeweyher, C. Bannwarth and S. Grimme, J. Chem. Phys., 2017,
     147, 034112. DOI: 10.1063/1.4993215
   * E. Caldeweyher, S. Ehlert, A. Hansen, H. Neugebauer, S. Spicher,
     C. Bannwarth and S. Grimme, J. Chem. Phys., 2019, 150, 154122.
     DOI: 10.1063/1.5090222
   * E. Caldeweyher, J.-M. Mewes, S. Ehlert and S. Grimme, Phys. Chem. Chem. Phys.
     2020, 22, 8499-8512. DOI: 10.1039/D0CP00502A
   
   for sTDA-xTB:
   * S. Grimme and C. Bannwarth, J. Chem. Phys., 2016, 145, 054103.
     DOI: 10.1063/1.4959605
   
   in the mass-spec context:
   * V. Asgeirsson, C. Bauer and S. Grimme, Chem. Sci., 2017, 8, 4879.
     DOI: 10.1039/c7sc00601b
   * J. Koopman and S. Grimme, ACS Omega 2019, 4, 12, 15120-15133.
     DOI: 10.1021/acsomega.9b02011
   
   for metadynamics refer to:
   * S. Grimme, J. Chem. Theory Comput., 2019, 155, 2847-2862
     DOI: 10.1021/acs.jctc.9b00143
   
   for SPH calculations refer to:
   * S. Spicher and S. Grimme, J. Chem. Theory Comput., 2021, 17, 1701-1714
     DOI: 10.1021/acs.jctc.0c01306
   
   for ONIOM refer to:
   * C. Plett, A. Katbashev, S. Ehlert, S. Grimme, M. Bursch,
     Phys. Chem. Chem. Phys., 2023, 25, 17860-17868. DOI: 10.1039/D3CP02178E
   
   for DIPRO refer to:
   * J. Kohn, N. Gildemeister, S. Grimme, D. Fazzi, A. Hansen,
     J. Chem. Phys., 2023, just accepted.
   
   for PTB refer to:
   * S. Grimme, M. Mueller, A. Hansen, J. Chem. Phys., 2023, 158, 124111.
     DOI: 10.1063/5.0137838
   
   with help from (in alphabetical order)
   P. Atkinson, C. Bannwarth, F. Bohle, G. Brandenburg, E. Caldeweyher
   M. Checinski, S. Dohm, S. Ehlert, S. Ehrlich, I. Gerasimov, C. Hölzer
   A. Katbashev, J. Kohn, J. Koopman, C. Lavigne, S. Lehtola, F. März, M. Müller,
   F. Musil, H. Neugebauer, J. Pisarek, C. Plett, P. Pracht, F. Pultar,
   J. Seibert, P. Shushkov, S. Spicher, M. Stahn, M. Steiner, T. Strunk,
   J. Stückrath, T. Rose, and J. Unsleber
   
 * started run on 2025/12/01 at 14:17:28.650     
   ID    Z sym.   atoms
    1    8 O      1, 3
    2    6 C      2, 4-6
    3    1 H      7-12

           -------------------------------------------------
          |                Calculation Setup                |
           -------------------------------------------------

          program call               : xtb pipeline_data/3_conformer_xyz/acrylates/rdkit/BAPJBEWLBFYGME-UHFFFAOYSA-N_conf207.xyz --opt --gfn 2-xTB --iterations 250
          coordinate file            : pipeline_data/3_conformer_xyz/acrylates/rdkit/BAPJBEWLBFYGME-UHFFFAOYSA-N_conf207.xyz
          omp threads                :                    24

########################################################################
[WARNING] Please study the warnings concerning your input carefully
-1- readin_getIntValue: could not parse '2-xTB'
########################################################################

           -------------------------------------------------
          |                 G F N 2 - x T B                 |
           -------------------------------------------------

        Reference                      10.1021/acs.jctc.8b01176
      * Hamiltonian:
        H0-scaling (s, p, d)           1.850000    2.230000    2.230000
        zeta-weighting                 0.500000
      * Dispersion:
        s8                             2.700000
        a1                             0.520000
        a2                             5.000000
        s9                             5.000000
      * Repulsion:
        kExp                           1.500000    1.000000
        rExp                           1.000000
      * Coulomb:
        alpha                          2.000000
        third order                    shell-resolved
        anisotropic                    true
        a3                             3.000000
        a5                             4.000000
        cn-shift                       1.200000
        cn-exp                         4.000000
        max-rad                        5.000000

q/qsh data taken from xtbrestart
CAMM data taken from xtbrestart

          ...................................................
          :                      SETUP                      :
          :.................................................:
          :  # basis functions                  30          :
          :  # atomic orbitals                  30          :
          :  # shells                           18          :
          :  # electrons                        34          :
          :  max. iterations                   250          :
          :  Hamiltonian                  GFN2-xTB          :
          :  restarted?                       true          :
          :  GBSA solvation                  false          :
          :  PC potential                    false          :
          :  electronic temp.          300.0000000     K    :
          :  accuracy                    1.0000000          :
          :  -> integral cutoff          0.2500000E+02      :
          :  -> integral neglect         0.1000000E-07      :
          :  -> SCF convergence          0.1000000E-05 Eh   :
          :  -> wf. convergence          0.1000000E-03 e    :
          :  Broyden damping             0.4000000          :
          :  net charge                          0          :
          :  unpaired electrons                  0          :
          ...................................................

 iter      E             dE          RMSdq      gap      omega  full diag
   1    -19.9069052 -0.199069E+02  0.475E+00    3.36       0.0  T
   2    -19.9095180 -0.261275E-02  0.286E+00    3.26       1.0  T
   3    -19.9035656  0.595232E-02  0.833E-01    3.29       1.0  T
   4    -19.9107071 -0.714145E-02  0.234E-01    3.35       1.0  T
   5    -19.9109164 -0.209314E-03  0.109E-01    3.30       1.0  T
   6    -19.9109197 -0.326155E-05  0.438E-02    3.33       1.0  T
   7    -19.9109294 -0.973446E-05  0.901E-03    3.32       3.2  T
   8    -19.9109295 -0.540921E-07  0.450E-03    3.32       6.4  T
   9    -19.9109295 -0.232926E-07  0.882E-04    3.32      32.7  T
  10    -19.9109295 -0.466262E-09  0.294E-04    3.32      98.0  T

   *** convergence criteria satisfied after 10 iterations ***

         #    Occupation            Energy/Eh            Energy/eV
      -------------------------------------------------------------
         1        2.0000           -0.7347092             -19.9925
       ...           ...                  ...                  ...
        11        2.0000           -0.5112761             -13.9125
        12        2.0000           -0.5002707             -13.6131
        13        2.0000           -0.4697682             -12.7830
        14        2.0000           -0.4658685             -12.6769
        15        2.0000           -0.4456913             -12.1279
        16        2.0000           -0.4416425             -12.0177
        17        2.0000           -0.4143281             -11.2744 (HOMO)
        18                         -0.2923912              -7.9564 (LUMO)
        19                         -0.1830223              -4.9803
        20                         -0.0278274              -0.7572
        21                          0.0917570               2.4968
        22                          0.0960038               2.6124
       ...                                ...                  ...
        30                          0.6000466              16.3281
      -------------------------------------------------------------
                  HL-Gap            0.1219369 Eh            3.3181 eV
             Fermi-level           -0.3533596 Eh           -9.6154 eV

 SCC (total)                   0 d,  0 h,  0 min,  0.015 sec
 SCC setup                      ...        0 min,  0.000 sec (  1.523%)
 Dispersion                     ...        0 min,  0.000 sec (  0.991%)
 classical contributions        ...        0 min,  0.000 sec (  0.409%)
 integral evaluation            ...        0 min,  0.000 sec (  3.089%)
 iterations                     ...        0 min,  0.012 sec ( 83.045%)
 molecular gradient             ...        0 min,  0.001 sec ( 10.038%)
 printout                       ...        0 min,  0.000 sec (  0.719%)

         :::::::::::::::::::::::::::::::::::::::::::::::::::::
         ::                     SUMMARY                     ::
         :::::::::::::::::::::::::::::::::::::::::::::::::::::
         :: total energy             -19.708472771349 Eh    ::
         :: gradient norm              0.131382616362 Eh/a0 ::
         :: HOMO-LUMO gap              3.318072741609 eV    ::
         ::.................................................::
         :: SCC energy               -19.910924124781 Eh    ::
         :: -> isotropic ES            0.047288594642 Eh    ::
         :: -> anisotropic ES         -0.000124662999 Eh    ::
         :: -> anisotropic XC          0.006171791628 Eh    ::
         :: -> dispersion             -0.006067220323 Eh    ::
         :: repulsion energy           0.202451353432 Eh    ::
         :: add. restraining           0.000000000000 Eh    ::
         :: total charge               0.000000000000 e     ::
         :::::::::::::::::::::::::::::::::::::::::::::::::::::

      ----------------------------------------------------------- 
     |                   =====================                   |
     |                        A N C O P T                        |
     |                   =====================                   |
     |               Approximate Normal Coordinate               |
     |                Rational Function Optimizer                |
      ----------------------------------------------------------- 
      ----------------------------------------------------------- 
     |                   =====================                   |
     |                        A N C O P T                        |
     |                   =====================                   |
     |               Approximate Normal Coordinate               |
     |                Rational Function Optimizer                |
      ----------------------------------------------------------- 

          ...................................................
          :                      SETUP                      :
          :.................................................:
          :   optimization level            normal          :
          :   max. optcycles                   200          :
          :   ANC micro-cycles                  20          :
          :   degrees of freedom                30          :
          :.................................................:
          :   RF solver                   davidson          :
          :   write xtbopt.log                true          :
          :   linear?                        false          :
          :   energy convergence         0.5000000E-05 Eh   :
          :   grad. convergence          0.1000000E-02 Eh/α :
          :   maxmium RF displ.          1.0000000          :
          :   Hlow (freq-cutoff)         0.1000000E-01      :
          :   Hmax (freq-cutoff)         5.0000000          :
          :   S6 in model hess.         20.0000000          :
          ...................................................

generating ANC from exact Hessian ...
Using Lindh-Hessian (1995)
 Shifting diagonal of input Hessian by   6.556874261293463E-003
 Lowest  eigenvalues of input Hessian
    0.000000    0.000000    0.000000    0.000000    0.000000    0.000000
    0.010000    0.011350    0.014814    0.022483    0.023585    0.031806
    0.049426    0.066147    0.083839    0.089836    0.101102    0.104819
 Highest eigenvalues
    1.077516    1.225613    1.456147    1.729948    1.870553    2.081404
 

........................................................................
.............................. CYCLE    1 ..............................
........................................................................

 iter      E             dE          RMSdq      gap      omega  full diag
   1    -19.9109295 -0.199109E+02  0.748E-05    3.32       0.0  T
   2    -19.9109295 -0.243006E-11  0.460E-05    3.32     627.2  T
   3    -19.9109295  0.451905E-11  0.299E-05    3.32     965.1  T
     SCC iter.                  ...        0 min,  0.002 sec
     gradient                   ...        0 min,  0.001 sec
 * total energy  :   -19.7084728 Eh     change       -0.9143619E-10 Eh
   gradient norm :     0.1313832 Eh/α   predicted     0.0000000E+00 (-100.00%)
   displ. norm   :     0.2911028 α      lambda       -0.1723090E-01
   maximum displ.:     0.1758758 α      in ANC's #6, #8, #16, ...

........................................................................
.............................. CYCLE    2 ..............................
........................................................................

 iter      E             dE          RMSdq      gap      omega  full diag
   1    -19.9425761 -0.199426E+02  0.360E-01    3.52       0.0  T
   2    -19.9428995 -0.323496E-03  0.227E-01    3.57       1.0  T
   3    -19.9429010 -0.144501E-05  0.107E-01    3.58       1.0  T
   4    -19.9429216 -0.206496E-04  0.428E-02    3.58       1.0  T
   5    -19.9429346 -0.129081E-04  0.146E-02    3.58       2.0  T
   6    -19.9429361 -0.152004E-05  0.621E-03    3.58       4.7  T
   7    -19.9429362 -0.109583E-06  0.158E-03    3.58      18.3  T
   8    -19.9429362 -0.217922E-08  0.550E-04    3.58      52.5  T
   9    -19.9429362 -0.290513E-09  0.139E-04    3.58     207.2  T
     SCC iter.                  ...        0 min,  0.005 sec
     gradient                   ...        0 min,  0.001 sec
 * total energy  :   -19.7204162 Eh     change       -0.1194347E-01 Eh
   gradient norm :     0.0495552 Eh/α   predicted    -0.9345527E-02 ( -21.75%)
   displ. norm   :     0.2430624 α      lambda       -0.4476701E-02
   maximum displ.:     0.1763993 α      in ANC's #6, #8, #3, ...

........................................................................
.............................. CYCLE    3 ..............................
........................................................................

 iter      E             dE          RMSdq      gap      omega  full diag
   1    -19.9567400 -0.199567E+02  0.251E-01    3.69       0.0  T
   2    -19.9568394 -0.994394E-04  0.154E-01    3.73       1.0  T
   3    -19.9568378  0.165730E-05  0.549E-02    3.74       1.0  T
   4    -19.9568442 -0.643821E-05  0.185E-02    3.74       1.6  T
   5    -19.9568460 -0.182635E-05  0.891E-03    3.73       3.2  T
   6    -19.9568466 -0.592980E-06  0.338E-03    3.74       8.5  T
   7    -19.9568467 -0.503059E-07  0.796E-04    3.74      36.3  T
   8    -19.9568467 -0.556536E-09  0.340E-04    3.74      84.8  T
     SCC iter.                  ...        0 min,  0.005 sec
     gradient                   ...        0 min,  0.001 sec
 * total energy  :   -19.7227093 Eh     change       -0.2293082E-02 Eh
   gradient norm :     0.0147932 Eh/α   predicted    -0.2370587E-02 (   3.38%)
   displ. norm   :     0.0936769 α      lambda       -0.3414773E-03
   maximum displ.:     0.0698282 α      in ANC's #3, #6, #14, ...

........................................................................
.............................. CYCLE    4 ..............................
........................................................................

 iter      E             dE          RMSdq      gap      omega  full diag
   1    -19.9549448 -0.199549E+02  0.659E-02    3.74       0.0  T
   2    -19.9549531 -0.833176E-05  0.406E-02    3.73       1.0  T
   3    -19.9549517  0.144856E-05  0.227E-02    3.73       1.3  T
   4    -19.9549534 -0.174752E-05  0.105E-02    3.73       2.8  T
   5    -19.9549543 -0.877529E-06  0.110E-03    3.73      26.2  T
   6    -19.9549543 -0.391099E-08  0.673E-04    3.73      42.9  T
   7    -19.9549543 -0.686590E-09  0.230E-04    3.73     125.3  T
     SCC iter.                  ...        0 min,  0.004 sec
     gradient                   ...        0 min,  0.001 sec
 * total energy  :   -19.7229194 Eh     change       -0.2100457E-03 Eh
   gradient norm :     0.0046600 Eh/α   predicted    -0.1722367E-03 ( -18.00%)
   displ. norm   :     0.0875047 α      lambda       -0.1110067E-03
   maximum displ.:     0.0785131 α      in ANC's #3, #6, #2, ...

........................................................................
.............................. CYCLE    5 ..............................
........................................................................

 iter      E             dE          RMSdq      gap      omega  full diag
   1    -19.9543905 -0.199544E+02  0.547E-02    3.73       0.0  T
   2    -19.9543925 -0.206802E-05  0.320E-02    3.73       1.0  T
   3    -19.9543924  0.151429E-06  0.860E-03    3.73       3.4  T
   4    -19.9543924 -0.456682E-07  0.453E-03    3.73       6.4  T
   5    -19.9543926 -0.204491E-06  0.782E-04    3.73      36.9  T
   6    -19.9543926 -0.673055E-09  0.335E-04    3.73      86.1  T
     SCC iter.                  ...        0 min,  0.004 sec
     gradient                   ...        0 min,  0.001 sec
 * total energy  :   -19.7229719 Eh     change       -0.5253595E-04 Eh
   gradient norm :     0.0031293 Eh/α   predicted    -0.5592820E-04 (   6.46%)
   displ. norm   :     0.0434551 α      lambda       -0.3998044E-04
   maximum displ.:     0.0406061 α      in ANC's #3, #9, #5, ...

........................................................................
.............................. CYCLE    6 ..............................
........................................................................

 iter      E             dE          RMSdq      gap      omega  full diag
   1    -19.9548781 -0.199549E+02  0.287E-02    3.73       0.0  T
   2    -19.9548782 -0.104139E-06  0.171E-02    3.73       1.7  T
   3    -19.9548778  0.416885E-06  0.710E-03    3.73       4.1  T
   4    -19.9548782 -0.473179E-06  0.128E-03    3.73      22.6  T
   5    -19.9548783 -0.121931E-07  0.459E-04    3.73      62.9  T
   6    -19.9548783 -0.230706E-09  0.184E-04    3.73     157.0  T
     SCC iter.                  ...        0 min,  0.003 sec
     gradient                   ...        0 min,  0.001 sec
 * total energy  :   -19.7229895 Eh     change       -0.1754951E-04 Eh
   gradient norm :     0.0014958 Eh/α   predicted    -0.2002748E-04 (  14.12%)
   displ. norm   :     0.0149252 α      lambda       -0.6727731E-05
   maximum displ.:     0.0104631 α      in ANC's #6, #3, #2, ...

........................................................................
.............................. CYCLE    7 ..............................
........................................................................

 iter      E             dE          RMSdq      gap      omega  full diag
   1    -19.9552809 -0.199553E+02  0.124E-02    3.73       0.0  T
   2    -19.9552809 -0.405791E-07  0.765E-03    3.73       3.8  T
   3    -19.9552808  0.106819E-06  0.340E-03    3.73       8.5  T
   4    -19.9552809 -0.119723E-06  0.662E-04    3.73      43.6  T
   5    -19.9552810 -0.292462E-08  0.211E-04    3.73     136.6  T
     SCC iter.                  ...        0 min,  0.004 sec
     gradient                   ...        0 min,  0.001 sec
 * total energy  :   -19.7229938 Eh     change       -0.4328746E-05 Eh
   gradient norm :     0.0006063 Eh/α   predicted    -0.3365162E-05 ( -22.26%)
   displ. norm   :     0.0105024 α      lambda       -0.1218225E-05
   maximum displ.:     0.0082587 α      in ANC's #3, #4, #7, ...

   *** GEOMETRY OPTIMIZATION CONVERGED AFTER 7 ITERATIONS ***

------------------------------------------------------------------------
 total energy gain   :        -0.0145210 Eh       -9.1121 kcal/mol
 total RMSD          :         0.1874503 a0        0.0992 Å
 total power (kW/mol):        -5.4464176 (step) -890.1455 (real)
------------------------------------------------------------------------

 ANCopt (total)                0 d,  0 h,  0 min,  0.043 sec
 optimizer setup                ...        0 min,  0.000 sec (  0.229%)
 model hessian                  ...        0 min,  0.001 sec (  2.719%)
 ANC generation                 ...        0 min,  0.000 sec (  0.565%)
 coordinate transformation      ...        0 min,  0.000 sec (  0.105%)
 single point calculation       ...        0 min,  0.039 sec ( 90.772%)
 optimization log               ...        0 min,  0.001 sec (  1.263%)
 hessian update                 ...        0 min,  0.001 sec (  2.595%)
 rational function              ...        0 min,  0.000 sec (  0.969%)

================
 final structure:
================
12
 xtb: 6.7.1 (edcfbbe)
O            0.27292335878697        1.44960657067952        1.16357525721931
C           -0.12728411555573        0.58131337075717        0.42772096308367
O            0.67925031898047       -0.32832869940988       -0.14065801546151
C            2.05807648220993       -0.21429481105030        0.17434622510596
C           -1.54840180958874        0.40507237258652        0.05775407744729
C           -1.98958622104530       -0.54636328963491       -0.75171793794764
H            2.55122607995516       -1.05342149639011       -0.30937747978321
H            2.45632320668785        0.73124092060515       -0.19967864002930
H            2.20559342343651       -0.25195943488582        1.25554879410921
H           -2.20846733579555        1.13032564298898        0.51136801840350
H           -3.03427527641168       -0.64239844239458       -0.99600188432846
H           -1.31537711165988       -1.26079170385175       -1.19288037781882
 
 Bond Distances (Angstroems)
 ---------------------------
O1-C2=1.2065         C2-O1=1.2065         C2-O3=1.3420         C2-C5=1.4790         O3-C2=1.3420         O3-C4=1.4189         
C4-O3=1.4189         C4-H7=1.0869         C4-H8=1.0920         C4-H9=1.0919         C5-C2=1.4790         C5-C6=1.3248         
C5-H10=1.0805        C6-C5=1.3248         C6-H11=1.0772        C6-H12=1.0768        H7-C4=1.0869         H8-C4=1.0920         
H9-C4=1.0919         H10-C5=1.0805        H11-C6=1.0772        H12-C6=1.0768        
 C  H  Rav=1.0842 sigma=0.0064  Rmin=1.0768  Rmax=1.0920     6
 C  C  Rav=1.4019 sigma=0.0771  Rmin=1.3248  Rmax=1.4790     2
 O  C  Rav=1.3225 sigma=0.0878  Rmin=1.2065  Rmax=1.4189     3
 
 selected bond angles (degree)
 --------------------
O3-C2-O1=123.15                C5-C2-O1=123.85                C5-C2-O3=113.00                C4-O3-C2=115.82                
H7-C4-O3=106.26                H8-C4-O3=110.36                H8-C4-H7=110.52                H9-C4-O3=110.39                
H9-C4-H7=110.66                H9-C4-H8=108.65                C6-C5-C2=123.94                H10-C5-C2=113.70               
H10-C5-C6=122.35               H11-C6-C5=121.71               H12-C6-C5=121.22               H12-C6-H11=117.08              
 
 selected dihedral angles (degree)
 ---------------------------------
C4-O3-C2-O1=359.97            C4-O3-C2-C5=180.00            H7-C4-O3-C2=176.47            H8-C4-O3-C2=296.32            
H9-C4-O3-C2= 56.44            C6-C5-C2-O1=179.89            C6-C5-C2-O3=359.86            H10-C5-C2-O1=359.88           
H10-C5-C2-O3=179.85           H11-C6-C5-C2=179.92           H11-C6-C5-H10=359.93          H12-C6-C5-C2=  0.07           
H12-C6-C5-H10=180.09          
           -------------------------------------------------
          |                Final Singlepoint                |
           -------------------------------------------------

          ...................................................
          :                      SETUP                      :
          :.................................................:
          :  # basis functions                  30          :
          :  # atomic orbitals                  30          :
          :  # shells                           18          :
          :  # electrons                        34          :
          :  max. iterations                   250          :
          :  Hamiltonian                  GFN2-xTB          :
          :  restarted?                      false          :
          :  GBSA solvation                  false          :
          :  PC potential                    false          :
          :  electronic temp.          300.0000000     K    :
          :  accuracy                    1.0000000          :
          :  -> integral cutoff          0.2500000E+02      :
          :  -> integral neglect         0.1000000E-07      :
          :  -> SCF convergence          0.1000000E-05 Eh   :
          :  -> wf. convergence          0.1000000E-03 e    :
          :  Broyden damping             0.4000000          :
          :  net charge                          0          :
          :  unpaired electrons                  0          :
          ...................................................

 iter      E             dE          RMSdq      gap      omega  full diag
   1    -19.9552810 -0.199553E+02  0.108E-04    3.73       0.0  T
   2    -19.9552810 -0.137419E-10  0.637E-05    3.73     453.4  T
   3    -19.9552810  0.106581E-12  0.400E-05    3.73     721.6  T

   *** convergence criteria satisfied after 3 iterations ***

         #    Occupation            Energy/Eh            Energy/eV
      -------------------------------------------------------------
         1        2.0000           -0.7442166             -20.2512
       ...           ...                  ...                  ...
        11        2.0000           -0.5159288             -14.0391
        12        2.0000           -0.5020600             -13.6617
        13        2.0000           -0.4766501             -12.9703
        14        2.0000           -0.4654236             -12.6648
        15        2.0000           -0.4491385             -12.2217
        16        2.0000           -0.4413449             -12.0096
        17        2.0000           -0.4163652             -11.3299 (HOMO)
        18                         -0.2793623              -7.6018 (LUMO)
        19                         -0.1673555              -4.5540
        20                          0.0169194               0.4604
        21                          0.1134835               3.0880
        22                          0.1292065               3.5159
       ...                                ...                  ...
        30                          0.6988686              19.0172
      -------------------------------------------------------------
                  HL-Gap            0.1370029 Eh            3.7280 eV
             Fermi-level           -0.3478637 Eh           -9.4659 eV

 SCC (total)                   0 d,  0 h,  0 min,  0.005 sec
 SCC setup                      ...        0 min,  0.000 sec (  1.946%)
 Dispersion                     ...        0 min,  0.000 sec (  8.896%)
 classical contributions        ...        0 min,  0.000 sec (  0.736%)
 integral evaluation            ...        0 min,  0.000 sec (  7.903%)
 iterations                     ...        0 min,  0.002 sec ( 45.953%)
 molecular gradient             ...        0 min,  0.001 sec ( 28.892%)
 printout                       ...        0 min,  0.000 sec (  5.225%)

         :::::::::::::::::::::::::::::::::::::::::::::::::::::
         ::                     SUMMARY                     ::
         :::::::::::::::::::::::::::::::::::::::::::::::::::::
         :: total energy             -19.722993787771 Eh    ::
         :: gradient norm              0.000606550523 Eh/a0 ::
         :: HOMO-LUMO gap              3.728039367490 eV    ::
         ::.................................................::
         :: SCC energy               -19.955276121893 Eh    ::
         :: -> isotropic ES            0.044029359527 Eh    ::
         :: -> anisotropic ES          0.000718962515 Eh    ::
         :: -> anisotropic XC          0.005277829816 Eh    ::
         :: -> dispersion             -0.006173647687 Eh    ::
         :: repulsion energy           0.232282334122 Eh    ::
         :: add. restraining           0.000000000000 Eh    ::
         :: total charge               0.000000000000 e     ::
         :::::::::::::::::::::::::::::::::::::::::::::::::::::

           -------------------------------------------------
          |                Property Printout                |
           -------------------------------------------------

    * Orbital Energies and Occupations

         #    Occupation            Energy/Eh            Energy/eV
      -------------------------------------------------------------
         1        2.0000           -0.7442166             -20.2512
       ...           ...                  ...                  ...
         5        2.0000           -0.6095756             -16.5874
         6        2.0000           -0.6016444             -16.3716
         7        2.0000           -0.5869962             -15.9730
         8        2.0000           -0.5644630             -15.3598
         9        2.0000           -0.5484617             -14.9244
        10        2.0000           -0.5160129             -14.0414
        11        2.0000           -0.5159288             -14.0391
        12        2.0000           -0.5020600             -13.6617
        13        2.0000           -0.4766501             -12.9703
        14        2.0000           -0.4654236             -12.6648
        15        2.0000           -0.4491385             -12.2217
        16        2.0000           -0.4413449             -12.0096
        17        2.0000           -0.4163652             -11.3299 (HOMO)
        18                         -0.2793623              -7.6018 (LUMO)
        19                         -0.1673555              -4.5540
        20                          0.0169194               0.4604
        21                          0.1134835               3.0880
        22                          0.1292065               3.5159
        23                          0.1312702               3.5720
        24                          0.1578431               4.2951
        25                          0.1916442               5.2149
        26                          0.2168321               5.9003
        27                          0.2847044               7.7472
        28                          0.3894511              10.5975
       ...                                ...                  ...
        30                          0.6988686              19.0172
      -------------------------------------------------------------
                  HL-Gap            0.1370029 Eh            3.7280 eV
             Fermi-level           -0.3478637 Eh           -9.4659 eV

     #   Z          covCN         q      C6AA      α(0)
     1   8 O        0.857    -0.409    21.852     6.267
     2   6 C        2.728     0.355    20.981     7.499
     3   8 O        1.705    -0.260    18.311     5.778
     4   6 C        3.658     0.034    20.289     6.465
     5   6 C        2.887    -0.058    29.435     8.895
     6   6 C        2.838    -0.062    29.542     8.907
     7   1 H        0.925     0.067     2.116     2.275
     8   1 H        0.924     0.062     2.174     2.306
     9   1 H        0.924     0.064     2.152     2.294
    10   1 H        0.926     0.072     2.067     2.248
    11   1 H        0.926     0.063     2.163     2.300
    12   1 H        0.926     0.072     2.061     2.245

 Mol. C6AA /au·bohr⁶  :       1407.972298
 Mol. C8AA /au·bohr⁸  :      31454.217010
 Mol. α(0) /au        :         57.477921


Wiberg/Mayer (AO) data.
largest (>0.10) Wiberg bond orders for each atom

 ---------------------------------------------------------------------------
     #   Z sym  total        # sym  WBO       # sym  WBO       # sym  WBO
 ---------------------------------------------------------------------------
     1   8 O    2.035 --     2 C    1.730     3 O    0.171
     2   6 C    3.921 --     1 O    1.730     3 O    1.117     5 C    1.014
     3   8 O    2.303 --     2 C    1.117     4 C    0.961     1 O    0.171
     4   6 C    3.928 --     7 H    0.982     9 H    0.976     8 H    0.976
                             3 O    0.961
     5   6 C    3.988 --     6 C    1.934     2 C    1.014    10 H    0.963
     6   6 C    3.984 --     5 C    1.934    11 H    0.975    12 H    0.971
     7   1 H    0.995 --     4 C    0.982
     8   1 H    0.996 --     4 C    0.976
     9   1 H    0.996 --     4 C    0.976
    10   1 H    0.995 --     5 C    0.963
    11   1 H    0.996 --     6 C    0.975
    12   1 H    0.995 --     6 C    0.971
 ---------------------------------------------------------------------------

Topologies differ in total number of bonds
Writing topology from bond orders to xtbtopo.mol

molecular dipole:
                 x           y           z       tot (Debye)
 q only:       -0.056      -0.736      -0.572
   full:       -0.066      -0.793      -0.620       2.564
molecular quadrupole (traceless):
                xx          xy          yy          xz          yz          zz
 q only:        7.622      -1.162      -4.387       0.626      -2.454      -3.235
  q+dip:        7.568      -1.383      -4.362       0.394      -2.612      -3.206
   full:        7.500      -1.311      -4.639       0.225      -3.844      -2.861

           -------------------------------------------------
          |                Geometry Summary                 |
           -------------------------------------------------

      molecular mass/u    :       86.0893979
   center of mass at/Å    :       -0.0396003       0.2241070       0.1663841
  moments of inertia/u·Å² :        0.7268316E+02   0.1778582E+03   0.2473691E+03
rotational constants/cm⁻¹ :        0.2319331E+00   0.9478129E-01   0.6814768E-01

 * 10 selected distances

     #   Z          #   Z                                           value/Å
     1   8 O        2   6 C                                       1.2064746
     2   6 C        3   8 O                                       1.3420140
     3   8 O        4   6 C                                       1.4189409 (max)
     5   6 C        6   6 C                                       1.3248090
     4   6 C        7   1 H                                       1.0868850
     4   6 C        8   1 H                                       1.0920316
     4   6 C        9   1 H                                       1.0918695
     5   6 C       10   1 H                                       1.0804835
     6   6 C       11   1 H                                       1.0771596
     6   6 C       12   1 H                                       1.0768428 (min)

 * 3 distinct bonds (by element types)

   Z      Z             #   av. dist./Å        max./Å        min./Å
   1 H    6 C           6     1.0842120     1.0920316     1.0768428
   6 C    6 C           1     1.3248090     1.3248090     1.3248090
   6 C    8 O           3     1.3224765     1.4189409     1.2064746


optimized geometry written to: xtbopt.xyz


           -------------------------------------------------
          | TOTAL ENERGY              -19.722993787771 Eh   |
          | GRADIENT NORM               0.000606550523 Eh/α |
          | HOMO-LUMO GAP               3.728039367490 eV   |
           -------------------------------------------------

------------------------------------------------------------------------
 * finished run on 2025/12/01 at 14:17:28.729     
------------------------------------------------------------------------
 total:
 * wall-time:     0 d,  0 h,  0 min,  0.079 sec
 *  cpu-time:     0 d,  0 h,  0 min,  1.539 sec
 * ratio c/w:    19.452 speedup
 SCF:
 * wall-time:     0 d,  0 h,  0 min,  0.015 sec
 *  cpu-time:     0 d,  0 h,  0 min,  0.330 sec
 * ratio c/w:    22.309 speedup
 ANC optimizer:
 * wall-time:     0 d,  0 h,  0 min,  0.048 sec
 *  cpu-time:     0 d,  0 h,  0 min,  1.090 sec
 * ratio c/w:    22.584 speedup

normal termination of xtb
