      -----------------------------------------------------------      
     |                   =====================                   |     
     |                           x T B                           |     
     |                   =====================                   |     
     |                         S. Grimme                         |     
     |          Mulliken Center for Theoretical Chemistry        |     
     |                    University of Bonn                     |     
      -----------------------------------------------------------      

   * xtb version 6.7.1 (edcfbbe) compiled by 'albert@albert-system' on 2024-07-22

   xtb is free software: you can redistribute it and/or modify it under
   the terms of the GNU Lesser General Public License as published by
   the Free Software Foundation, either version 3 of the License, or
   (at your option) any later version.
   
   xtb is distributed in the hope that it will be useful,
   but WITHOUT ANY WARRANTY; without even the implied warranty of
   MERCHANTABILITY or FITNESS FOR A PARTICULAR PURPOSE.  See the
   GNU Lesser General Public License for more details.
   
   Cite this work as:
   * C. Bannwarth, E. Caldeweyher, S. Ehlert, A. Hansen, P. Pracht,
     J. Seibert, S. Spicher, S. Grimme, WIREs Comput. Mol. Sci., 2020, 11,
     e01493. DOI: 10.1002/wcms.1493
   
   for GFN2-xTB:
   * C. Bannwarth, S. Ehlert and S. Grimme., J. Chem. Theory Comput., 2019,
     15, 1652-1671. DOI: 10.1021/acs.jctc.8b01176
   for GFN1-xTB:
   * S. Grimme, C. Bannwarth, P. Shushkov, J. Chem. Theory Comput., 2017,
     13, 1989-2009. DOI: 10.1021/acs.jctc.7b00118
   for GFN0-xTB:
   * P. Pracht, E. Caldeweyher, S. Ehlert, S. Grimme, ChemRxiv, 2019, preprint.
     DOI: 10.26434/chemrxiv.8326202.v1
   for GFN-FF:
   * S. Spicher and S. Grimme, Angew. Chem. Int. Ed., 2020, 59, 15665-15673.
     DOI: 10.1002/anie.202004239
   
   for ALPB and GBSA implicit solvation:
   * S. Ehlert, M. Stahn, S. Spicher, S. Grimme, J. Chem. Theory Comput.,
     2021, 17, 4250-4261. DOI: 10.1021/acs.jctc.1c00471
   
   for ddCOSMO and CPCM-X implicit solvation:
   * M. Stahn, S. Ehlert, S. Grimme, J. Phys. Chem. A,
     2023, XX, XXXX-XXXX. DOI: 10.1021/acs.jpca.3c04382
   
   for DFT-D4:
   * E. Caldeweyher, C. Bannwarth and S. Grimme, J. Chem. Phys., 2017,
     147, 034112. DOI: 10.1063/1.4993215
   * E. Caldeweyher, S. Ehlert, A. Hansen, H. Neugebauer, S. Spicher,
     C. Bannwarth and S. Grimme, J. Chem. Phys., 2019, 150, 154122.
     DOI: 10.1063/1.5090222
   * E. Caldeweyher, J.-M. Mewes, S. Ehlert and S. Grimme, Phys. Chem. Chem. Phys.
     2020, 22, 8499-8512. DOI: 10.1039/D0CP00502A
   
   for sTDA-xTB:
   * S. Grimme and C. Bannwarth, J. Chem. Phys., 2016, 145, 054103.
     DOI: 10.1063/1.4959605
   
   in the mass-spec context:
   * V. Asgeirsson, C. Bauer and S. Grimme, Chem. Sci., 2017, 8, 4879.
     DOI: 10.1039/c7sc00601b
   * J. Koopman and S. Grimme, ACS Omega 2019, 4, 12, 15120-15133.
     DOI: 10.1021/acsomega.9b02011
   
   for metadynamics refer to:
   * S. Grimme, J. Chem. Theory Comput., 2019, 155, 2847-2862
     DOI: 10.1021/acs.jctc.9b00143
   
   for SPH calculations refer to:
   * S. Spicher and S. Grimme, J. Chem. Theory Comput., 2021, 17, 1701-1714
     DOI: 10.1021/acs.jctc.0c01306
   
   for ONIOM refer to:
   * C. Plett, A. Katbashev, S. Ehlert, S. Grimme, M. Bursch,
     Phys. Chem. Chem. Phys., 2023, 25, 17860-17868. DOI: 10.1039/D3CP02178E
   
   for DIPRO refer to:
   * J. Kohn, N. Gildemeister, S. Grimme, D. Fazzi, A. Hansen,
     J. Chem. Phys., 2023, just accepted.
   
   for PTB refer to:
   * S. Grimme, M. Mueller, A. Hansen, J. Chem. Phys., 2023, 158, 124111.
     DOI: 10.1063/5.0137838
   
   with help from (in alphabetical order)
   P. Atkinson, C. Bannwarth, F. Bohle, G. Brandenburg, E. Caldeweyher
   M. Checinski, S. Dohm, S. Ehlert, S. Ehrlich, I. Gerasimov, C. Hölzer
   A. Katbashev, J. Kohn, J. Koopman, C. Lavigne, S. Lehtola, F. März, M. Müller,
   F. Musil, H. Neugebauer, J. Pisarek, C. Plett, P. Pracht, F. Pultar,
   J. Seibert, P. Shushkov, S. Spicher, M. Stahn, M. Steiner, T. Strunk,
   J. Stückrath, T. Rose, and J. Unsleber
   
 * started run on 2025/12/01 at 14:17:28.736     
   ID    Z sym.   atoms
    1    8 O      1, 3
    2    6 C      2, 4-6
    3    1 H      7-12

           -------------------------------------------------
          |                Calculation Setup                |
           -------------------------------------------------

          program call               : xtb pipeline_data/3_conformer_xyz/acrylates/rdkit/BAPJBEWLBFYGME-UHFFFAOYSA-N_conf180.xyz --opt --gfn 2-xTB --iterations 250
          coordinate file            : pipeline_data/3_conformer_xyz/acrylates/rdkit/BAPJBEWLBFYGME-UHFFFAOYSA-N_conf180.xyz
          omp threads                :                    24

########################################################################
[WARNING] Please study the warnings concerning your input carefully
-1- readin_getIntValue: could not parse '2-xTB'
########################################################################

           -------------------------------------------------
          |                 G F N 2 - x T B                 |
           -------------------------------------------------

        Reference                      10.1021/acs.jctc.8b01176
      * Hamiltonian:
        H0-scaling (s, p, d)           1.850000    2.230000    2.230000
        zeta-weighting                 0.500000
      * Dispersion:
        s8                             2.700000
        a1                             0.520000
        a2                             5.000000
        s9                             5.000000
      * Repulsion:
        kExp                           1.500000    1.000000
        rExp                           1.000000
      * Coulomb:
        alpha                          2.000000
        third order                    shell-resolved
        anisotropic                    true
        a3                             3.000000
        a5                             4.000000
        cn-shift                       1.200000
        cn-exp                         4.000000
        max-rad                        5.000000

q/qsh data taken from xtbrestart
CAMM data taken from xtbrestart

          ...................................................
          :                      SETUP                      :
          :.................................................:
          :  # basis functions                  30          :
          :  # atomic orbitals                  30          :
          :  # shells                           18          :
          :  # electrons                        34          :
          :  max. iterations                   250          :
          :  Hamiltonian                  GFN2-xTB          :
          :  restarted?                       true          :
          :  GBSA solvation                  false          :
          :  PC potential                    false          :
          :  electronic temp.          300.0000000     K    :
          :  accuracy                    1.0000000          :
          :  -> integral cutoff          0.2500000E+02      :
          :  -> integral neglect         0.1000000E-07      :
          :  -> SCF convergence          0.1000000E-05 Eh   :
          :  -> wf. convergence          0.1000000E-03 e    :
          :  Broyden damping             0.4000000          :
          :  net charge                          0          :
          :  unpaired electrons                  0          :
          ...................................................

 iter      E             dE          RMSdq      gap      omega  full diag
   1    -19.9184353 -0.199184E+02  0.466E+00    3.76       0.0  T
   2    -19.9227316 -0.429630E-02  0.282E+00    3.37       1.0  T
   3    -19.9208660  0.186559E-02  0.654E-01    3.63       1.0  T
   4    -19.9234592 -0.259323E-02  0.204E-01    3.45       1.0  T
   5    -19.9236663 -0.207108E-03  0.106E-01    3.47       1.0  T
   6    -19.9237021 -0.357566E-04  0.517E-02    3.48       1.0  T
   7    -19.9237101 -0.805983E-05  0.791E-03    3.47       3.7  T
   8    -19.9237102 -0.465113E-07  0.359E-03    3.47       8.0  T
   9    -19.9237102 -0.121098E-07  0.793E-04    3.47      36.4  T
  10    -19.9237102 -0.500453E-09  0.152E-04    3.47     189.7  T

   *** convergence criteria satisfied after 10 iterations ***

         #    Occupation            Energy/Eh            Energy/eV
      -------------------------------------------------------------
         1        2.0000           -0.7330498             -19.9473
       ...           ...                  ...                  ...
        11        2.0000           -0.5113980             -13.9158
        12        2.0000           -0.4980386             -13.5523
        13        2.0000           -0.4731555             -12.8752
        14        2.0000           -0.4571590             -12.4399
        15        2.0000           -0.4459975             -12.1362
        16        2.0000           -0.4397732             -11.9668
        17        2.0000           -0.4149485             -11.2913 (HOMO)
        18                         -0.2873074              -7.8180 (LUMO)
        19                         -0.1746337              -4.7520
        20                         -0.0280205              -0.7625
        21                          0.0965967               2.6285
        22                          0.1162919               3.1645
       ...                                ...                  ...
        30                          0.6198628              16.8673
      -------------------------------------------------------------
                  HL-Gap            0.1276410 Eh            3.4733 eV
             Fermi-level           -0.3511280 Eh           -9.5547 eV

 SCC (total)                   0 d,  0 h,  0 min,  0.011 sec
 SCC setup                      ...        0 min,  0.000 sec (  2.287%)
 Dispersion                     ...        0 min,  0.000 sec (  2.628%)
 classical contributions        ...        0 min,  0.000 sec (  0.489%)
 integral evaluation            ...        0 min,  0.000 sec (  3.896%)
 iterations                     ...        0 min,  0.008 sec ( 79.846%)
 molecular gradient             ...        0 min,  0.001 sec (  9.619%)
 printout                       ...        0 min,  0.000 sec (  1.017%)

         :::::::::::::::::::::::::::::::::::::::::::::::::::::
         ::                     SUMMARY                     ::
         :::::::::::::::::::::::::::::::::::::::::::::::::::::
         :: total energy             -19.712538397528 Eh    ::
         :: gradient norm              0.101600707938 Eh/a0 ::
         :: HOMO-LUMO gap              3.473289676609 eV    ::
         ::.................................................::
         :: SCC energy               -19.923716138619 Eh    ::
         :: -> isotropic ES            0.047041540504 Eh    ::
         :: -> anisotropic ES          0.000454309950 Eh    ::
         :: -> anisotropic XC          0.005713516384 Eh    ::
         :: -> dispersion             -0.005971309532 Eh    ::
         :: repulsion energy           0.211177741091 Eh    ::
         :: add. restraining           0.000000000000 Eh    ::
         :: total charge              -0.000000000000 e     ::
         :::::::::::::::::::::::::::::::::::::::::::::::::::::

      ----------------------------------------------------------- 
     |                   =====================                   |
     |                        A N C O P T                        |
     |                   =====================                   |
     |               Approximate Normal Coordinate               |
     |                Rational Function Optimizer                |
      ----------------------------------------------------------- 
      ----------------------------------------------------------- 
     |                   =====================                   |
     |                        A N C O P T                        |
     |                   =====================                   |
     |               Approximate Normal Coordinate               |
     |                Rational Function Optimizer                |
      ----------------------------------------------------------- 

          ...................................................
          :                      SETUP                      :
          :.................................................:
          :   optimization level            normal          :
          :   max. optcycles                   200          :
          :   ANC micro-cycles                  20          :
          :   degrees of freedom                30          :
          :.................................................:
          :   RF solver                   davidson          :
          :   write xtbopt.log                true          :
          :   linear?                        false          :
          :   energy convergence         0.5000000E-05 Eh   :
          :   grad. convergence          0.1000000E-02 Eh/α :
          :   maxmium RF displ.          1.0000000          :
          :   Hlow (freq-cutoff)         0.1000000E-01      :
          :   Hmax (freq-cutoff)         5.0000000          :
          :   S6 in model hess.         20.0000000          :
          ...................................................

generating ANC from exact Hessian ...
Using Lindh-Hessian (1995)
 Shifting diagonal of input Hessian by   6.623442331728494E-003
 Lowest  eigenvalues of input Hessian
    0.000000    0.000000    0.000000    0.000000    0.000000    0.000000
    0.010000    0.011160    0.016412    0.019784    0.028620    0.039556
    0.048074    0.052712    0.081020    0.086486    0.107329    0.110696
 Highest eigenvalues
    1.098921    1.227019    1.423153    1.710882    2.000930    2.123036
 

........................................................................
.............................. CYCLE    1 ..............................
........................................................................

 iter      E             dE          RMSdq      gap      omega  full diag
   1    -19.9237102 -0.199237E+02  0.587E-05    3.47       0.0  T
   2    -19.9237102 -0.362022E-11  0.376E-05    3.47     768.2  T
   3    -19.9237102  0.106581E-12  0.257E-05    3.47    1122.4  T
     SCC iter.                  ...        0 min,  0.002 sec
     gradient                   ...        0 min,  0.001 sec
 * total energy  :   -19.7125384 Eh     change       -0.2641443E-10 Eh
   gradient norm :     0.1016013 Eh/α   predicted     0.0000000E+00 (-100.00%)
   displ. norm   :     0.3341488 α      lambda       -0.1270550E-01
   maximum displ.:     0.2462861 α      in ANC's #6, #7, #10, ...

........................................................................
.............................. CYCLE    2 ..............................
........................................................................

 iter      E             dE          RMSdq      gap      omega  full diag
   1    -19.9452976 -0.199453E+02  0.335E-01    3.60       0.0  T
   2    -19.9454544 -0.156729E-03  0.210E-01    3.67       1.0  T
   3    -19.9453954  0.589530E-04  0.122E-01    3.67       1.0  T
   4    -19.9454798 -0.843529E-04  0.406E-02    3.68       1.0  T
   5    -19.9454909 -0.111483E-04  0.833E-03    3.67       3.5  T
   6    -19.9454912 -0.318747E-06  0.389E-03    3.67       7.4  T
   7    -19.9454913 -0.373410E-07  0.961E-04    3.67      30.1  T
   8    -19.9454913 -0.613326E-09  0.386E-04    3.67      74.9  T
     SCC iter.                  ...        0 min,  0.004 sec
     gradient                   ...        0 min,  0.001 sec
 * total energy  :   -19.7215512 Eh     change       -0.9012783E-02 Eh
   gradient norm :     0.0400017 Eh/α   predicted    -0.7062088E-02 ( -21.64%)
   displ. norm   :     0.2849178 α      lambda       -0.4268539E-02
   maximum displ.:     0.2270903 α      in ANC's #6, #7, #16, ...

........................................................................
.............................. CYCLE    3 ..............................
........................................................................

 iter      E             dE          RMSdq      gap      omega  full diag
   1    -19.9567104 -0.199567E+02  0.233E-01    3.75       0.0  T
   2    -19.9567851 -0.746373E-04  0.143E-01    3.80       1.0  T
   3    -19.9567565  0.285876E-04  0.869E-02    3.80       1.0  T
   4    -19.9567981 -0.416619E-04  0.285E-02    3.81       1.0  T
   5    -19.9568030 -0.481364E-05  0.513E-03    3.81       5.6  T
   6    -19.9568030 -0.822654E-07  0.234E-03    3.81      12.3  T
   7    -19.9568031 -0.183686E-07  0.655E-04    3.80      44.1  T
   8    -19.9568031 -0.300972E-09  0.290E-04    3.80      99.4  T
     SCC iter.                  ...        0 min,  0.004 sec
     gradient                   ...        0 min,  0.001 sec
 * total energy  :   -19.7238918 Eh     change       -0.2340588E-02 Eh
   gradient norm :     0.0111063 Eh/α   predicted    -0.2307526E-02 (  -1.41%)
   displ. norm   :     0.0905361 α      lambda       -0.3207394E-03
   maximum displ.:     0.0598957 α      in ANC's #6, #3, #7, ...

........................................................................
.............................. CYCLE    4 ..............................
........................................................................

 iter      E             dE          RMSdq      gap      omega  full diag
   1    -19.9564647 -0.199565E+02  0.485E-02    3.80       0.0  T
   2    -19.9564660 -0.127607E-05  0.295E-02    3.80       1.0  T
   3    -19.9564647  0.131777E-05  0.155E-02    3.80       1.9  T
   4    -19.9564662 -0.155462E-05  0.400E-03    3.80       7.2  T
   5    -19.9564664 -0.126809E-06  0.874E-04    3.80      33.0  T
   6    -19.9564664 -0.213526E-08  0.542E-04    3.80      53.2  T
     SCC iter.                  ...        0 min,  0.003 sec
     gradient                   ...        0 min,  0.001 sec
 * total energy  :   -19.7241006 Eh     change       -0.2088753E-03 Eh
   gradient norm :     0.0053871 Eh/α   predicted    -0.1616851E-03 ( -22.59%)
   displ. norm   :     0.0917036 α      lambda       -0.1619273E-03
   maximum displ.:     0.0727227 α      in ANC's #3, #6, #1, ...

........................................................................
.............................. CYCLE    5 ..............................
........................................................................

 iter      E             dE          RMSdq      gap      omega  full diag
   1    -19.9562377 -0.199562E+02  0.571E-02    3.80       0.0  T
   2    -19.9562380 -0.350823E-06  0.342E-02    3.80       1.0  T
   3    -19.9562369  0.111956E-05  0.116E-02    3.80       2.5  T
   4    -19.9562382 -0.125896E-05  0.214E-03    3.80      13.5  T
   5    -19.9562382 -0.261100E-07  0.757E-04    3.80      38.1  T
   6    -19.9562382 -0.282530E-09  0.384E-04    3.80      75.2  T
     SCC iter.                  ...        0 min,  0.003 sec
     gradient                   ...        0 min,  0.001 sec
 * total energy  :   -19.7241725 Eh     change       -0.7181768E-04 Eh
   gradient norm :     0.0026714 Eh/α   predicted    -0.8164311E-04 (  13.68%)
   displ. norm   :     0.0378615 α      lambda       -0.4746288E-04
   maximum displ.:     0.0322668 α      in ANC's #3, #8, #9, ...

........................................................................
.............................. CYCLE    6 ..............................
........................................................................

 iter      E             dE          RMSdq      gap      omega  full diag
   1    -19.9566057 -0.199566E+02  0.363E-02    3.80       0.0  T
   2    -19.9566058 -0.116037E-06  0.218E-02    3.80       1.3  T
   3    -19.9566058 -0.679685E-08  0.151E-03    3.80      19.1  T
   4    -19.9566058 -0.113833E-07  0.864E-04    3.80      33.4  T
   5    -19.9566058 -0.303906E-08  0.412E-04    3.80      70.1  T
     SCC iter.                  ...        0 min,  0.003 sec
     gradient                   ...        0 min,  0.001 sec
 * total energy  :   -19.7241922 Eh     change       -0.1974420E-04 Eh
   gradient norm :     0.0013420 Eh/α   predicted    -0.2376522E-04 (  20.37%)
   displ. norm   :     0.0153020 α      lambda       -0.7184727E-05
   maximum displ.:     0.0076809 α      in ANC's #6, #8, #3, ...

........................................................................
.............................. CYCLE    7 ..............................
........................................................................

 iter      E             dE          RMSdq      gap      omega  full diag
   1    -19.9568314 -0.199568E+02  0.173E-02    3.79       0.0  T
   2    -19.9568314 -0.730531E-07  0.104E-02    3.80       2.8  T
   3    -19.9568314  0.188754E-07  0.187E-03    3.80      15.4  T
   4    -19.9568314 -0.167958E-07  0.109E-03    3.80      26.4  T
   5    -19.9568314 -0.105281E-07  0.243E-04    3.80     118.8  T
   6    -19.9568314 -0.193303E-10  0.107E-04    3.80     269.0  T
     SCC iter.                  ...        0 min,  0.003 sec
     gradient                   ...        0 min,  0.001 sec
 * total energy  :   -19.7241961 Eh     change       -0.3858239E-05 Eh
   gradient norm :     0.0005570 Eh/α   predicted    -0.3593093E-05 (  -6.87%)
   displ. norm   :     0.0126353 α      lambda       -0.2075953E-05
   maximum displ.:     0.0097159 α      in ANC's #3, #1, #8, ...

   *** GEOMETRY OPTIMIZATION CONVERGED AFTER 7 ITERATIONS ***

------------------------------------------------------------------------
 total energy gain   :        -0.0116577 Eh       -7.3153 kcal/mol
 total RMSD          :         0.2084253 a0        0.1103 Å
 total power (kW/mol):        -4.3724573 (step) -812.7063 (real)
------------------------------------------------------------------------

 ANCopt (total)                0 d,  0 h,  0 min,  0.038 sec
 optimizer setup                ...        0 min,  0.000 sec (  0.260%)
 model hessian                  ...        0 min,  0.001 sec (  2.845%)
 ANC generation                 ...        0 min,  0.001 sec (  3.127%)
 coordinate transformation      ...        0 min,  0.000 sec (  0.133%)
 single point calculation       ...        0 min,  0.033 sec ( 88.416%)
 optimization log               ...        0 min,  0.001 sec (  1.824%)
 hessian update                 ...        0 min,  0.001 sec (  1.419%)
 rational function              ...        0 min,  0.000 sec (  1.078%)

================
 final structure:
================
12
 xtb: 6.7.1 (edcfbbe)
O            0.22296582347796       -1.32887658669028        0.41345989196713
C           -0.03306052022880       -0.20518786835389        0.06007706175996
O            0.90401695637200        0.72328278145923       -0.19098704185756
C            2.25082270870828        0.31082584453877       -0.01697969373438
C           -1.38923519088847        0.34307388834409       -0.15479274242153
C           -2.46659331525806       -0.40347204238205        0.03776912123870
H            2.47492098644107       -0.53628666491646       -0.66849182911538
H            2.42446215513841        0.01070780545602        1.01858054381467
H            2.86832628387498        1.16715924542452       -0.27571947039582
H           -1.42996927484556        1.37369894431802       -0.47218501652282
H           -3.46423134791654       -0.02755655346516       -0.10983811846029
H           -2.36242526487527       -1.42736979373281        0.35910629372734
 
 Bond Distances (Angstroems)
 ---------------------------
O1-C2=1.2054         C2-O1=1.2054         C2-O3=1.3428         C2-C5=1.4785         O3-C2=1.3428         O3-C4=1.4193         
C4-O3=1.4193         C4-H7=1.0919         C4-H8=1.0921         C4-H9=1.0870         C5-C2=1.4785         C5-C6=1.3248         
C5-H10=1.0792        C6-C5=1.3248         C6-H11=1.0763        C6-H12=1.0782        H7-C4=1.0919         H8-C4=1.0921         
H9-C4=1.0870         H10-C5=1.0792        H11-C6=1.0763        H12-C6=1.0782        
 C  H  Rav=1.0841 sigma=0.0065  Rmin=1.0763  Rmax=1.0921     6
 C  C  Rav=1.4017 sigma=0.0768  Rmin=1.3248  Rmax=1.4785     2
 O  C  Rav=1.3225 sigma=0.0885  Rmin=1.2054  Rmax=1.4193     3
 
 selected bond angles (degree)
 --------------------
O3-C2-O1=123.44                C5-C2-O1=125.67                C5-C2-O3=110.89                C4-O3-C2=116.00                
H7-C4-O3=110.31                H8-C4-O3=110.30                H8-C4-H7=108.66                H9-C4-O3=106.32                
H9-C4-H7=110.64                H9-C4-H8=110.60                C6-C5-C2=121.05                H10-C5-C2=115.56               
H10-C5-C6=123.38               H11-C6-C5=122.48               H12-C6-C5=119.99               H12-C6-H11=117.52              
 
 selected dihedral angles (degree)
 ---------------------------------
C4-O3-C2-O1=  0.00            C4-O3-C2-C5=179.96            H7-C4-O3-C2= 59.03            H8-C4-O3-C2=298.98            
H9-C4-O3-C2=179.03            C6-C5-C2-O1=  0.04            C6-C5-C2-O3=180.10            H10-C5-C2-O1=180.00           
H10-C5-C2-O3=  0.06           H11-C6-C5-C2=179.88           H11-C6-C5-H10=359.92          H12-C6-C5-C2=  0.18           
H12-C6-C5-H10=180.23          
           -------------------------------------------------
          |                Final Singlepoint                |
           -------------------------------------------------

          ...................................................
          :                      SETUP                      :
          :.................................................:
          :  # basis functions                  30          :
          :  # atomic orbitals                  30          :
          :  # shells                           18          :
          :  # electrons                        34          :
          :  max. iterations                   250          :
          :  Hamiltonian                  GFN2-xTB          :
          :  restarted?                      false          :
          :  GBSA solvation                  false          :
          :  PC potential                    false          :
          :  electronic temp.          300.0000000     K    :
          :  accuracy                    1.0000000          :
          :  -> integral cutoff          0.2500000E+02      :
          :  -> integral neglect         0.1000000E-07      :
          :  -> SCF convergence          0.1000000E-05 Eh   :
          :  -> wf. convergence          0.1000000E-03 e    :
          :  Broyden damping             0.4000000          :
          :  net charge                          0          :
          :  unpaired electrons                  0          :
          ...................................................

 iter      E             dE          RMSdq      gap      omega  full diag
   1    -19.9568314 -0.199568E+02  0.237E-05    3.80       0.0  T
   2    -19.9568314 -0.550671E-12  0.151E-05    3.80    1906.5  T
   3    -19.9568314  0.355271E-14  0.923E-06    3.80    3126.2  T

   *** convergence criteria satisfied after 3 iterations ***

         #    Occupation            Energy/Eh            Energy/eV
      -------------------------------------------------------------
         1        2.0000           -0.7440152             -20.2457
       ...           ...                  ...                  ...
        11        2.0000           -0.5155279             -14.0282
        12        2.0000           -0.4935322             -13.4297
        13        2.0000           -0.4803626             -13.0713
        14        2.0000           -0.4626742             -12.5900
        15        2.0000           -0.4484878             -12.2040
        16        2.0000           -0.4404608             -11.9855
        17        2.0000           -0.4168181             -11.3422 (HOMO)
        18                         -0.2773336              -7.5466 (LUMO)
        19                         -0.1670953              -4.5469
        20                          0.0188562               0.5131
        21                          0.1238621               3.3705
        22                          0.1306953               3.5564
       ...                                ...                  ...
        30                          0.7057394              19.2041
      -------------------------------------------------------------
                  HL-Gap            0.1394846 Eh            3.7956 eV
             Fermi-level           -0.3470758 Eh           -9.4444 eV

 SCC (total)                   0 d,  0 h,  0 min,  0.004 sec
 SCC setup                      ...        0 min,  0.001 sec ( 20.987%)
 Dispersion                     ...        0 min,  0.000 sec (  1.561%)
 classical contributions        ...        0 min,  0.000 sec (  3.825%)
 integral evaluation            ...        0 min,  0.000 sec (  6.402%)
 iterations                     ...        0 min,  0.002 sec ( 38.880%)
 molecular gradient             ...        0 min,  0.001 sec ( 21.666%)
 printout                       ...        0 min,  0.000 sec (  6.135%)

         :::::::::::::::::::::::::::::::::::::::::::::::::::::
         ::                     SUMMARY                     ::
         :::::::::::::::::::::::::::::::::::::::::::::::::::::
         :: total energy             -19.724196064684 Eh    ::
         :: gradient norm              0.000557335264 Eh/a0 ::
         :: HOMO-LUMO gap              3.795567918939 eV    ::
         ::.................................................::
         :: SCC energy               -19.956836130512 Eh    ::
         :: -> isotropic ES            0.043947223267 Eh    ::
         :: -> anisotropic ES          0.000540248912 Eh    ::
         :: -> anisotropic XC          0.005383480261 Eh    ::
         :: -> dispersion             -0.006080581258 Eh    ::
         :: repulsion energy           0.232640065828 Eh    ::
         :: add. restraining           0.000000000000 Eh    ::
         :: total charge               0.000000000000 e     ::
         :::::::::::::::::::::::::::::::::::::::::::::::::::::

           -------------------------------------------------
          |                Property Printout                |
           -------------------------------------------------

    * Orbital Energies and Occupations

         #    Occupation            Energy/Eh            Energy/eV
      -------------------------------------------------------------
         1        2.0000           -0.7440152             -20.2457
       ...           ...                  ...                  ...
         5        2.0000           -0.6088486             -16.5676
         6        2.0000           -0.5929991             -16.1363
         7        2.0000           -0.5864941             -15.9593
         8        2.0000           -0.5643696             -15.3573
         9        2.0000           -0.5504791             -14.9793
        10        2.0000           -0.5179141             -14.0932
        11        2.0000           -0.5155279             -14.0282
        12        2.0000           -0.4935322             -13.4297
        13        2.0000           -0.4803626             -13.0713
        14        2.0000           -0.4626742             -12.5900
        15        2.0000           -0.4484878             -12.2040
        16        2.0000           -0.4404608             -11.9855
        17        2.0000           -0.4168181             -11.3422 (HOMO)
        18                         -0.2773336              -7.5466 (LUMO)
        19                         -0.1670953              -4.5469
        20                          0.0188562               0.5131
        21                          0.1238621               3.3705
        22                          0.1306953               3.5564
        23                          0.1331012               3.6219
        24                          0.1776805               4.8349
        25                          0.1870847               5.0908
        26                          0.1921493               5.2286
        27                          0.2673865               7.2760
        28                          0.4101512              11.1608
       ...                                ...                  ...
        30                          0.7057394              19.2041
      -------------------------------------------------------------
                  HL-Gap            0.1394846 Eh            3.7956 eV
             Fermi-level           -0.3470758 Eh           -9.4444 eV

     #   Z          covCN         q      C6AA      α(0)
     1   8 O        0.856    -0.409    21.855     6.268
     2   6 C        2.731     0.355    20.978     7.498
     3   8 O        1.705    -0.263    18.352     5.784
     4   6 C        3.656     0.034    20.293     6.466
     5   6 C        2.887    -0.059    29.463     8.899
     6   6 C        2.842    -0.059    29.461     8.895
     7   1 H        0.924     0.063     2.166     2.302
     8   1 H        0.924     0.062     2.172     2.305
     9   1 H        0.925     0.068     2.113     2.273
    10   1 H        0.926     0.065     2.142     2.289
    11   1 H        0.926     0.064     2.155     2.296
    12   1 H        0.926     0.079     1.985     2.203

 Mol. C6AA /au·bohr⁶  :       1407.996061
 Mol. C8AA /au·bohr⁸  :      31453.238492
 Mol. α(0) /au        :         57.478361


Wiberg/Mayer (AO) data.
largest (>0.10) Wiberg bond orders for each atom

 ---------------------------------------------------------------------------
     #   Z sym  total        # sym  WBO       # sym  WBO       # sym  WBO
 ---------------------------------------------------------------------------
     1   8 O    2.037 --     2 C    1.731     3 O    0.172
     2   6 C    3.920 --     1 O    1.731     3 O    1.115     5 C    1.012
     3   8 O    2.303 --     2 C    1.115     4 C    0.961     1 O    0.172
     4   6 C    3.928 --     9 H    0.982     7 H    0.976     8 H    0.976
                             3 O    0.961
     5   6 C    3.989 --     6 C    1.931     2 C    1.012    10 H    0.965
     6   6 C    3.981 --     5 C    1.931    11 H    0.975    12 H    0.970
     7   1 H    0.996 --     4 C    0.976
     8   1 H    0.996 --     4 C    0.976
     9   1 H    0.995 --     4 C    0.982
    10   1 H    0.996 --     5 C    0.965
    11   1 H    0.995 --     6 C    0.975
    12   1 H    0.994 --     6 C    0.970
 ---------------------------------------------------------------------------

Topologies differ in total number of bonds
Writing topology from bond orders to xtbtopo.mol

molecular dipole:
                 x           y           z       tot (Debye)
 q only:       -0.071       0.594      -0.184
   full:       -0.056       0.692      -0.213       1.846
molecular quadrupole (traceless):
                xx          xy          yy          xz          yz          zz
 q only:        8.287       1.260      -5.501      -0.023       0.960      -2.786
  q+dip:        8.041       1.349      -5.392      -0.067       0.968      -2.649
   full:        7.866       1.154      -6.336      -0.058       1.660      -1.530

           -------------------------------------------------
          |                Geometry Summary                 |
           -------------------------------------------------

      molecular mass/u    :       86.0893979
   center of mass at/Å    :       -0.0131048      -0.0996752       0.0292928
  moments of inertia/u·Å² :        0.4854482E+02   0.2161471E+03   0.2615188E+03
rotational constants/cm⁻¹ :        0.3472591E+00   0.7799149E-01   0.6446050E-01

 * 10 selected distances

     #   Z          #   Z                                           value/Å
     1   8 O        2   6 C                                       1.2054483
     2   6 C        3   8 O                                       1.3428349
     3   8 O        4   6 C                                       1.4192552 (max)
     5   6 C        6   6 C                                       1.3248063
     4   6 C        7   1 H                                       1.0919194
     4   6 C        8   1 H                                       1.0920653
     4   6 C        9   1 H                                       1.0869977
     5   6 C       10   1 H                                       1.0791596
     6   6 C       11   1 H                                       1.0762817 (min)
     6   6 C       12   1 H                                       1.0781815

 * 3 distinct bonds (by element types)

   Z      Z             #   av. dist./Å        max./Å        min./Å
   1 H    6 C           6     1.0841009     1.0920653     1.0762817
   6 C    6 C           1     1.3248063     1.3248063     1.3248063
   6 C    8 O           3     1.3225128     1.4192552     1.2054483


optimized geometry written to: xtbopt.xyz


           -------------------------------------------------
          | TOTAL ENERGY              -19.724196064684 Eh   |
          | GRADIENT NORM               0.000557335264 Eh/α |
          | HOMO-LUMO GAP               3.795567918939 eV   |
           -------------------------------------------------

------------------------------------------------------------------------
 * finished run on 2025/12/01 at 14:17:28.798     
------------------------------------------------------------------------
 total:
 * wall-time:     0 d,  0 h,  0 min,  0.061 sec
 *  cpu-time:     0 d,  0 h,  0 min,  1.343 sec
 * ratio c/w:    22.037 speedup
 SCF:
 * wall-time:     0 d,  0 h,  0 min,  0.011 sec
 *  cpu-time:     0 d,  0 h,  0 min,  0.242 sec
 * ratio c/w:    22.521 speedup
 ANC optimizer:
 * wall-time:     0 d,  0 h,  0 min,  0.043 sec
 *  cpu-time:     0 d,  0 h,  0 min,  0.963 sec
 * ratio c/w:    22.617 speedup

normal termination of xtb
