      -----------------------------------------------------------      
     |                   =====================                   |     
     |                           x T B                           |     
     |                   =====================                   |     
     |                         S. Grimme                         |     
     |          Mulliken Center for Theoretical Chemistry        |     
     |                    University of Bonn                     |     
      -----------------------------------------------------------      

   * xtb version 6.7.1 (edcfbbe) compiled by 'albert@albert-system' on 2024-07-22

   xtb is free software: you can redistribute it and/or modify it under
   the terms of the GNU Lesser General Public License as published by
   the Free Software Foundation, either version 3 of the License, or
   (at your option) any later version.
   
   xtb is distributed in the hope that it will be useful,
   but WITHOUT ANY WARRANTY; without even the implied warranty of
   MERCHANTABILITY or FITNESS FOR A PARTICULAR PURPOSE.  See the
   GNU Lesser General Public License for more details.
   
   Cite this work as:
   * C. Bannwarth, E. Caldeweyher, S. Ehlert, A. Hansen, P. Pracht,
     J. Seibert, S. Spicher, S. Grimme, WIREs Comput. Mol. Sci., 2020, 11,
     e01493. DOI: 10.1002/wcms.1493
   
   for GFN2-xTB:
   * C. Bannwarth, S. Ehlert and S. Grimme., J. Chem. Theory Comput., 2019,
     15, 1652-1671. DOI: 10.1021/acs.jctc.8b01176
   for GFN1-xTB:
   * S. Grimme, C. Bannwarth, P. Shushkov, J. Chem. Theory Comput., 2017,
     13, 1989-2009. DOI: 10.1021/acs.jctc.7b00118
   for GFN0-xTB:
   * P. Pracht, E. Caldeweyher, S. Ehlert, S. Grimme, ChemRxiv, 2019, preprint.
     DOI: 10.26434/chemrxiv.8326202.v1
   for GFN-FF:
   * S. Spicher and S. Grimme, Angew. Chem. Int. Ed., 2020, 59, 15665-15673.
     DOI: 10.1002/anie.202004239
   
   for ALPB and GBSA implicit solvation:
   * S. Ehlert, M. Stahn, S. Spicher, S. Grimme, J. Chem. Theory Comput.,
     2021, 17, 4250-4261. DOI: 10.1021/acs.jctc.1c00471
   
   for ddCOSMO and CPCM-X implicit solvation:
   * M. Stahn, S. Ehlert, S. Grimme, J. Phys. Chem. A,
     2023, XX, XXXX-XXXX. DOI: 10.1021/acs.jpca.3c04382
   
   for DFT-D4:
   * E. Caldeweyher, C. Bannwarth and S. Grimme, J. Chem. Phys., 2017,
     147, 034112. DOI: 10.1063/1.4993215
   * E. Caldeweyher, S. Ehlert, A. Hansen, H. Neugebauer, S. Spicher,
     C. Bannwarth and S. Grimme, J. Chem. Phys., 2019, 150, 154122.
     DOI: 10.1063/1.5090222
   * E. Caldeweyher, J.-M. Mewes, S. Ehlert and S. Grimme, Phys. Chem. Chem. Phys.
     2020, 22, 8499-8512. DOI: 10.1039/D0CP00502A
   
   for sTDA-xTB:
   * S. Grimme and C. Bannwarth, J. Chem. Phys., 2016, 145, 054103.
     DOI: 10.1063/1.4959605
   
   in the mass-spec context:
   * V. Asgeirsson, C. Bauer and S. Grimme, Chem. Sci., 2017, 8, 4879.
     DOI: 10.1039/c7sc00601b
   * J. Koopman and S. Grimme, ACS Omega 2019, 4, 12, 15120-15133.
     DOI: 10.1021/acsomega.9b02011
   
   for metadynamics refer to:
   * S. Grimme, J. Chem. Theory Comput., 2019, 155, 2847-2862
     DOI: 10.1021/acs.jctc.9b00143
   
   for SPH calculations refer to:
   * S. Spicher and S. Grimme, J. Chem. Theory Comput., 2021, 17, 1701-1714
     DOI: 10.1021/acs.jctc.0c01306
   
   for ONIOM refer to:
   * C. Plett, A. Katbashev, S. Ehlert, S. Grimme, M. Bursch,
     Phys. Chem. Chem. Phys., 2023, 25, 17860-17868. DOI: 10.1039/D3CP02178E
   
   for DIPRO refer to:
   * J. Kohn, N. Gildemeister, S. Grimme, D. Fazzi, A. Hansen,
     J. Chem. Phys., 2023, just accepted.
   
   for PTB refer to:
   * S. Grimme, M. Mueller, A. Hansen, J. Chem. Phys., 2023, 158, 124111.
     DOI: 10.1063/5.0137838
   
   with help from (in alphabetical order)
   P. Atkinson, C. Bannwarth, F. Bohle, G. Brandenburg, E. Caldeweyher
   M. Checinski, S. Dohm, S. Ehlert, S. Ehrlich, I. Gerasimov, C. Hölzer
   A. Katbashev, J. Kohn, J. Koopman, C. Lavigne, S. Lehtola, F. März, M. Müller,
   F. Musil, H. Neugebauer, J. Pisarek, C. Plett, P. Pracht, F. Pultar,
   J. Seibert, P. Shushkov, S. Spicher, M. Stahn, M. Steiner, T. Strunk,
   J. Stückrath, T. Rose, and J. Unsleber
   
 * started run on 2025/12/01 at 14:17:29.374     
   ID    Z sym.   atoms
    1    6 C      1, 3, 5-12
    2    8 O      2, 4
    3    1 H      13-22

           -------------------------------------------------
          |                Calculation Setup                |
           -------------------------------------------------

          program call               : xtb pipeline_data/3_conformer_xyz/acrylates/rdkit/CCRCUPLGCSFEDV-BQYQJAHWSA-N_conf189.xyz --opt --gfn 2-xTB --iterations 250
          coordinate file            : pipeline_data/3_conformer_xyz/acrylates/rdkit/CCRCUPLGCSFEDV-BQYQJAHWSA-N_conf189.xyz
          omp threads                :                    24

########################################################################
[WARNING] Please study the warnings concerning your input carefully
-1- readin_getIntValue: could not parse '2-xTB'
########################################################################

           -------------------------------------------------
          |                 G F N 2 - x T B                 |
           -------------------------------------------------

        Reference                      10.1021/acs.jctc.8b01176
      * Hamiltonian:
        H0-scaling (s, p, d)           1.850000    2.230000    2.230000
        zeta-weighting                 0.500000
      * Dispersion:
        s8                             2.700000
        a1                             0.520000
        a2                             5.000000
        s9                             5.000000
      * Repulsion:
        kExp                           1.500000    1.000000
        rExp                           1.000000
      * Coulomb:
        alpha                          2.000000
        third order                    shell-resolved
        anisotropic                    true
        a3                             3.000000
        a5                             4.000000
        cn-shift                       1.200000
        cn-exp                         4.000000
        max-rad                        5.000000

q/qsh data taken from xtbrestart
CAMM data taken from xtbrestart

          ...................................................
          :                      SETUP                      :
          :.................................................:
          :  # basis functions                  58          :
          :  # atomic orbitals                  58          :
          :  # shells                           34          :
          :  # electrons                        62          :
          :  max. iterations                   250          :
          :  Hamiltonian                  GFN2-xTB          :
          :  restarted?                       true          :
          :  GBSA solvation                  false          :
          :  PC potential                    false          :
          :  electronic temp.          300.0000000     K    :
          :  accuracy                    1.0000000          :
          :  -> integral cutoff          0.2500000E+02      :
          :  -> integral neglect         0.1000000E-07      :
          :  -> SCF convergence          0.1000000E-05 Eh   :
          :  -> wf. convergence          0.1000000E-03 e    :
          :  Broyden damping             0.4000000          :
          :  net charge                          0          :
          :  unpaired electrons                  0          :
          ...................................................

 iter      E             dE          RMSdq      gap      omega  full diag
   1    -35.1093456 -0.351093E+02  0.449E+00    2.90       0.0  T
   2    -35.1149615 -0.561583E-02  0.265E+00    3.08       1.0  T
   3    -35.1091340  0.582749E-02  0.668E-01    3.00       1.0  T
   4    -35.1163943 -0.726030E-02  0.181E-01    3.03       1.0  T
   5    -35.1167146 -0.320350E-03  0.885E-02    3.03       1.0  T
   6    -35.1167302 -0.155277E-04  0.424E-02    3.03       1.0  T
   7    -35.1167466 -0.164207E-04  0.122E-02    3.03       1.7  T
   8    -35.1167478 -0.121777E-05  0.582E-03    3.03       3.7  T
   9    -35.1167480 -0.172582E-06  0.331E-03    3.03       6.5  T
  10    -35.1167480 -0.613705E-07  0.718E-04    3.03      29.7  T
  11    -35.1167480 -0.275686E-08  0.326E-04    3.03      65.4  T

   *** convergence criteria satisfied after 11 iterations ***

         #    Occupation            Energy/Eh            Energy/eV
      -------------------------------------------------------------
         1        2.0000           -0.7271965             -19.7880
       ...           ...                  ...                  ...
        25        2.0000           -0.4520357             -12.3005
        26        2.0000           -0.4387073             -11.9378
        27        2.0000           -0.4363939             -11.8749
        28        2.0000           -0.4267738             -11.6131
        29        2.0000           -0.4158445             -11.3157
        30        2.0000           -0.4090895             -11.1319
        31        2.0000           -0.4031175             -10.9694 (HOMO)
        32                         -0.2917156              -7.9380 (LUMO)
        33                         -0.2324876              -6.3263
        34                         -0.2205408              -6.0012
        35                         -0.1594463              -4.3388
        36                         -0.0842025              -2.2913
       ...                                ...                  ...
        58                          0.7052489              19.1908
      -------------------------------------------------------------
                  HL-Gap            0.1114019 Eh            3.0314 eV
             Fermi-level           -0.3474166 Eh           -9.4537 eV

 SCC (total)                   0 d,  0 h,  0 min,  0.019 sec
 SCC setup                      ...        0 min,  0.000 sec (  1.752%)
 Dispersion                     ...        0 min,  0.000 sec (  1.132%)
 classical contributions        ...        0 min,  0.000 sec (  1.466%)
 integral evaluation            ...        0 min,  0.001 sec (  4.600%)
 iterations                     ...        0 min,  0.015 sec ( 79.751%)
 molecular gradient             ...        0 min,  0.002 sec ( 10.346%)
 printout                       ...        0 min,  0.000 sec (  0.791%)

         :::::::::::::::::::::::::::::::::::::::::::::::::::::
         ::                     SUMMARY                     ::
         :::::::::::::::::::::::::::::::::::::::::::::::::::::
         :: total energy             -34.600765650223 Eh    ::
         :: gradient norm              0.113091743381 Eh/a0 ::
         :: HOMO-LUMO gap              3.031400400633 eV    ::
         ::.................................................::
         :: SCC energy               -35.116890551796 Eh    ::
         :: -> isotropic ES            0.049298155702 Eh    ::
         :: -> anisotropic ES          0.000141328742 Eh    ::
         :: -> anisotropic XC          0.014563222801 Eh    ::
         :: -> dispersion             -0.017396876187 Eh    ::
         :: repulsion energy           0.516124901573 Eh    ::
         :: add. restraining           0.000000000000 Eh    ::
         :: total charge              -0.000000000000 e     ::
         :::::::::::::::::::::::::::::::::::::::::::::::::::::

      ----------------------------------------------------------- 
     |                   =====================                   |
     |                        A N C O P T                        |
     |                   =====================                   |
     |               Approximate Normal Coordinate               |
     |                Rational Function Optimizer                |
      ----------------------------------------------------------- 
      ----------------------------------------------------------- 
     |                   =====================                   |
     |                        A N C O P T                        |
     |                   =====================                   |
     |               Approximate Normal Coordinate               |
     |                Rational Function Optimizer                |
      ----------------------------------------------------------- 

          ...................................................
          :                      SETUP                      :
          :.................................................:
          :   optimization level            normal          :
          :   max. optcycles                   200          :
          :   ANC micro-cycles                  20          :
          :   degrees of freedom                60          :
          :.................................................:
          :   RF solver                   davidson          :
          :   write xtbopt.log                true          :
          :   linear?                        false          :
          :   energy convergence         0.5000000E-05 Eh   :
          :   grad. convergence          0.1000000E-02 Eh/α :
          :   maxmium RF displ.          1.0000000          :
          :   Hlow (freq-cutoff)         0.1000000E-01      :
          :   Hmax (freq-cutoff)         5.0000000          :
          :   S6 in model hess.         20.0000000          :
          ...................................................

generating ANC from exact Hessian ...
Using Lindh-Hessian (1995)
 Shifting diagonal of input Hessian by   9.154684570596257E-003
 Lowest  eigenvalues of input Hessian
    0.000000    0.000000    0.000000    0.000000    0.000000    0.000000
    0.010000    0.011100    0.011151    0.013788    0.014938    0.020594
    0.020695    0.025093    0.029253    0.031195    0.032032    0.036587
 Highest eigenvalues
    1.721613    1.932551    1.980679    2.040102    2.118697    2.141398
 

........................................................................
.............................. CYCLE    1 ..............................
........................................................................

 iter      E             dE          RMSdq      gap      omega  full diag
   1    -35.1167480 -0.351167E+02  0.150E-04    3.03       0.0  T
   2    -35.1167480 -0.192614E-09  0.974E-05    3.03     218.8  T
   3    -35.1167480 -0.148070E-09  0.523E-05    3.03     407.6  T
     SCC iter.                  ...        0 min,  0.004 sec
     gradient                   ...        0 min,  0.002 sec
 * total energy  :   -34.6007657 Eh     change       -0.4731291E-09 Eh
   gradient norm :     0.1130908 Eh/α   predicted     0.0000000E+00 (-100.00%)
   displ. norm   :     0.2999376 α      lambda       -0.1617815E-01
   maximum displ.:     0.1370331 α      in ANC's #10, #31, #13, ...

........................................................................
.............................. CYCLE    2 ..............................
........................................................................

 iter      E             dE          RMSdq      gap      omega  full diag
   1    -35.1300450 -0.351300E+02  0.226E-01    3.03       0.0  T
   2    -35.1302578 -0.212846E-03  0.145E-01    3.01       1.0  T
   3    -35.1302449  0.129756E-04  0.721E-02    3.00       1.0  T
   4    -35.1302778 -0.329665E-04  0.341E-02    3.00       1.0  T
   5    -35.1302965 -0.186649E-04  0.824E-03    3.00       2.6  T
   6    -35.1302972 -0.718885E-06  0.358E-03    3.00       6.0  T
   7    -35.1302973 -0.499050E-07  0.160E-03    3.00      13.3  T
   8    -35.1302973 -0.147626E-07  0.714E-04    3.00      29.9  T
   9    -35.1302973 -0.250669E-08  0.289E-04    3.00      73.7  T
     SCC iter.                  ...        0 min,  0.012 sec
     gradient                   ...        0 min,  0.003 sec
 * total energy  :   -34.6119162 Eh     change       -0.1115054E-01 Eh
   gradient norm :     0.0397377 Eh/α   predicted    -0.8822587E-02 ( -20.88%)
   displ. norm   :     0.3026046 α      lambda       -0.4979830E-02
   maximum displ.:     0.1991626 α      in ANC's #10, #13, #14, ...

........................................................................
.............................. CYCLE    3 ..............................
........................................................................

 iter      E             dE          RMSdq      gap      omega  full diag
   1    -35.1386834 -0.351387E+02  0.154E-01    3.03       0.0  T
   2    -35.1387587 -0.752382E-04  0.952E-02    3.01       1.0  T
   3    -35.1387376  0.210576E-04  0.522E-02    3.01       1.0  T
   4    -35.1387671 -0.294695E-04  0.223E-02    3.01       1.0  T
   5    -35.1387745 -0.742471E-05  0.477E-03    3.01       4.5  T
   6    -35.1387747 -0.201913E-06  0.207E-03    3.01      10.3  T
   7    -35.1387747 -0.358657E-07  0.825E-04    3.01      25.8  T
   8    -35.1387747 -0.452184E-08  0.332E-04    3.01      64.2  T
     SCC iter.                  ...        0 min,  0.010 sec
     gradient                   ...        0 min,  0.002 sec
 * total energy  :   -34.6148140 Eh     change       -0.2897789E-02 Eh
   gradient norm :     0.0121716 Eh/α   predicted    -0.2718854E-02 (  -6.17%)
   displ. norm   :     0.1214112 α      lambda       -0.5551677E-03
   maximum displ.:     0.0854782 α      in ANC's #10, #13, #14, ...

........................................................................
.............................. CYCLE    4 ..............................
........................................................................

 iter      E             dE          RMSdq      gap      omega  full diag
   1    -35.1404255 -0.351404E+02  0.551E-02    3.02       0.0  T
   2    -35.1404274 -0.188601E-05  0.324E-02    3.02       1.0  T
   3    -35.1404262  0.115656E-05  0.101E-02    3.02       2.1  T
   4    -35.1404275 -0.123492E-05  0.334E-03    3.02       6.4  T
   5    -35.1404277 -0.223048E-06  0.100E-03    3.02      21.3  T
   6    -35.1404277 -0.107235E-07  0.443E-04    3.02      48.1  T
   7    -35.1404277 -0.343242E-09  0.177E-04    3.02     120.6  T
     SCC iter.                  ...        0 min,  0.009 sec
     gradient                   ...        0 min,  0.002 sec
 * total energy  :   -34.6151622 Eh     change       -0.3481971E-03 Eh
   gradient norm :     0.0065940 Eh/α   predicted    -0.2816884E-03 ( -19.10%)
   displ. norm   :     0.0510167 α      lambda       -0.1216436E-03
   maximum displ.:     0.0305352 α      in ANC's #10, #13, #18, ...

........................................................................
.............................. CYCLE    5 ..............................
........................................................................

 iter      E             dE          RMSdq      gap      omega  full diag
   1    -35.1418013 -0.351418E+02  0.329E-02    3.03       0.0  T
   2    -35.1418016 -0.266437E-06  0.196E-02    3.03       1.1  T
   3    -35.1418015  0.981527E-07  0.279E-03    3.03       7.6  T
   4    -35.1418017 -0.141595E-06  0.826E-04    3.03      25.8  T
   5    -35.1418017 -0.737340E-08  0.487E-04    3.03      43.7  T
     SCC iter.                  ...        0 min,  0.006 sec
     gradient                   ...        0 min,  0.002 sec
 * total energy  :   -34.6152279 Eh     change       -0.6571096E-04 Eh
   gradient norm :     0.0021426 Eh/α   predicted    -0.6124483E-04 (  -6.80%)
   displ. norm   :     0.0194420 α      lambda       -0.2355080E-04
   maximum displ.:     0.0110549 α      in ANC's #2, #7, #20, ...

........................................................................
.............................. CYCLE    6 ..............................
........................................................................

 iter      E             dE          RMSdq      gap      omega  full diag
   1    -35.1421979 -0.351422E+02  0.162E-02    3.04       0.0  T
   2    -35.1421980 -0.508314E-07  0.968E-03    3.04       2.2  T
   3    -35.1421979  0.602505E-07  0.187E-03    3.04      11.4  T
   4    -35.1421980 -0.692295E-07  0.582E-04    3.04      36.7  T
   5    -35.1421980 -0.460111E-08  0.249E-04    3.04      85.7  T
     SCC iter.                  ...        0 min,  0.007 sec
     gradient                   ...        0 min,  0.002 sec
 * total energy  :   -34.6152384 Eh     change       -0.1046454E-04 Eh
   gradient norm :     0.0011732 Eh/α   predicted    -0.1179085E-04 (  12.67%)
   displ. norm   :     0.0196429 α      lambda       -0.5936599E-05
   maximum displ.:     0.0123341 α      in ANC's #2, #13, #7, ...

........................................................................
.............................. CYCLE    7 ..............................
........................................................................

 iter      E             dE          RMSdq      gap      omega  full diag
   1    -35.1419885 -0.351420E+02  0.937E-03    3.03       0.0  T
   2    -35.1419885 -0.149697E-07  0.561E-03    3.03       3.8  T
   3    -35.1419885  0.274034E-07  0.130E-03    3.03      16.4  T
   4    -35.1419885 -0.310798E-07  0.335E-04    3.03      63.6  T
   5    -35.1419885 -0.148734E-08  0.135E-04    3.03     157.6  T
     SCC iter.                  ...        0 min,  0.007 sec
     gradient                   ...        0 min,  0.002 sec
 * total energy  :   -34.6152428 Eh     change       -0.4475693E-05 Eh
   gradient norm :     0.0005627 Eh/α   predicted    -0.2969737E-05 ( -33.65%)
   displ. norm   :     0.0134133 α      lambda       -0.1230150E-05
   maximum displ.:     0.0120831 α      in ANC's #2, #3, #13, ...

   *** GEOMETRY OPTIMIZATION CONVERGED AFTER 7 ITERATIONS ***

------------------------------------------------------------------------
 total energy gain   :        -0.0144772 Eh       -9.0846 kcal/mol
 total RMSD          :         0.1560986 a0        0.0826 Å
 total power (kW/mol):        -5.4299744 (step) -433.2088 (real)
------------------------------------------------------------------------

 ANCopt (total)                0 d,  0 h,  0 min,  0.088 sec
 optimizer setup                ...        0 min,  0.000 sec (  0.132%)
 model hessian                  ...        0 min,  0.003 sec (  3.437%)
 ANC generation                 ...        0 min,  0.001 sec (  0.759%)
 coordinate transformation      ...        0 min,  0.000 sec (  0.065%)
 single point calculation       ...        0 min,  0.080 sec ( 90.892%)
 optimization log               ...        0 min,  0.001 sec (  0.788%)
 hessian update                 ...        0 min,  0.003 sec (  3.036%)
 rational function              ...        0 min,  0.000 sec (  0.505%)

================
 final structure:
================
22
 xtb: 6.7.1 (edcfbbe)
C           -4.76122525513065        0.29772499862406        0.54745999352063
O           -3.37660327182407        0.56081883024094        0.70321567738545
C           -2.54610178620984       -0.18406828563529       -0.05165134193360
O           -2.93364086856111       -1.02940655141818       -0.82243577559850
C           -1.14647423543499        0.17805611476515        0.19804328130091
C           -0.15408699582798       -0.44571559478785       -0.44917974064648
C            1.26912379530695       -0.20839519658582       -0.31387093396591
C            2.15513571696657       -0.96938656854801       -1.08240169141641
C            3.51995654611943       -0.78002169350039       -0.98733772483673
C            4.02951170104776        0.17432643802779       -0.12185873644176
C            3.16404460293456        0.93709260321213        0.64693445096364
C            1.79921134953566        0.75016095024862        0.55416404985600
H           -5.07281511871580        0.49781888709244       -0.48007887812247
H           -4.97784014232175       -0.74718044775871        0.78055620139136
H           -5.27749661316379        0.95883164151067        1.23873055514019
H           -0.99460068821054        0.96117045533601        0.92330544923310
H           -0.43991423393900       -1.21733188132239       -1.15499229885683
H            1.76032718672858       -1.71439871648661       -1.75809075833039
H            4.19000979129428       -1.37697810671779       -1.58849917793363
H            5.09625907443350        0.32379594570769       -0.04594946326367
H            3.55881133534038        1.68185627047483        1.32255184054264
H            1.13840610963187        1.35122990752072        1.15880902201249
 
 Bond Distances (Angstroems)
 ---------------------------
C1-O2=1.4180         C1-H13=1.0922        C1-H14=1.0923        C1-H15=1.0869        O2-C1=1.4180         O2-C3=1.3470         
C3-O2=1.3470         C3-O4=1.2078         C3-C5=1.4671         O4-C3=1.2078         C5-C3=1.4671         C5-C6=1.3390         
C5-H16=1.0781        C6-C5=1.3390         C6-C7=1.4492         C6-H17=1.0841        C7-C6=1.4492         C7-C8=1.3981         
C7-C12=1.3976        C8-C7=1.3981         C8-C9=1.3812         C8-H18=1.0805        C9-C8=1.3812         C9-C10=1.3855        
C9-H19=1.0801        C10-C9=1.3855        C10-C11=1.3863       C10-H20=1.0798       C11-C10=1.3863       C11-C12=1.3807       
C11-H21=1.0803       C12-C7=1.3976        C12-C11=1.3807       C12-H22=1.0787       H13-C1=1.0922        H14-C1=1.0923        
H15-C1=1.0869        H16-C5=1.0781        H17-C6=1.0841        H18-C8=1.0805        H19-C9=1.0801        H20-C10=1.0798       
H21-C11=1.0803       H22-C12=1.0787       
 C  H  Rav=1.0833 sigma=0.0051  Rmin=1.0781  Rmax=1.0923    10
 C  C  Rav=1.3983 sigma=0.0361  Rmin=1.3390  Rmax=1.4671     9
 O  C  Rav=1.3243 sigma=0.0873  Rmin=1.2078  Rmax=1.4180     3
 
 selected bond angles (degree)
 --------------------
H13-C1-O2=110.36               H14-C1-O2=110.35               H14-C1-H13=108.63              H15-C1-O2=106.33               
H15-C1-H13=110.57              H15-C1-H14=110.61              C3-O2-C1=115.97                O4-C3-O2=123.15                
C5-C3-O2=110.87                C5-C3-O4=125.98                C6-C5-C3=120.65                H16-C5-C3=115.35               
H16-C5-C6=124.00               C7-C6-C5=127.33                H17-C6-C5=116.80               H17-C6-C7=115.87               
C8-C7-C6=118.81                C12-C7-C6=122.87               C12-C7-C8=118.32               C9-C8-C7=120.91                
H18-C8-C7=119.18               H18-C8-C9=119.91               C10-C9-C8=120.06               H19-C9-C8=119.93               
H19-C9-C10=120.01              C11-C10-C9=119.72              H20-C10-C9=120.17              H20-C10-C11=120.10             
 
 selected dihedral angles (degree)
 ---------------------------------
C3-O2-C1-H13=298.51           C3-O2-C1-H14= 58.58           C3-O2-C1-H15=178.56           O4-C3-O2-C1=  0.08            
C5-C3-O2-C1=180.06            C6-C5-C3-O2=179.85            C6-C5-C3-O4=359.82            H16-C5-C3-O2=359.93           
H16-C5-C3-O4=179.90           C7-C6-C5-C3=180.14            C7-C6-C5-H16=  0.06           H17-C6-C5-C3=  0.07           
H17-C6-C5-H16=179.99          C8-C7-C6-C5=179.96            C8-C7-C6-H17=  0.03           C12-C7-C6-C5=  0.00           
C12-C7-C6-H17=180.07          C9-C8-C7-C6=180.04            C9-C8-C7-C12=  0.00           H18-C8-C7-C6=  0.04           
H18-C8-C7-C12=180.00          C10-C9-C8-C7=  0.00           C10-C9-C8-H18=180.01          H19-C9-C8-C7=179.99           
H19-C9-C8-H18=  0.00          C11-C10-C9-C8=  0.00          C11-C10-C9-H19=180.00         H20-C10-C9-C8=179.99          
H20-C10-C9-H19=  0.00         
           -------------------------------------------------
          |                Final Singlepoint                |
           -------------------------------------------------

          ...................................................
          :                      SETUP                      :
          :.................................................:
          :  # basis functions                  58          :
          :  # atomic orbitals                  58          :
          :  # shells                           34          :
          :  # electrons                        62          :
          :  max. iterations                   250          :
          :  Hamiltonian                  GFN2-xTB          :
          :  restarted?                      false          :
          :  GBSA solvation                  false          :
          :  PC potential                    false          :
          :  electronic temp.          300.0000000     K    :
          :  accuracy                    1.0000000          :
          :  -> integral cutoff          0.2500000E+02      :
          :  -> integral neglect         0.1000000E-07      :
          :  -> SCF convergence          0.1000000E-05 Eh   :
          :  -> wf. convergence          0.1000000E-03 e    :
          :  Broyden damping             0.4000000          :
          :  net charge                          0          :
          :  unpaired electrons                  0          :
          ...................................................

 iter      E             dE          RMSdq      gap      omega  full diag
   1    -35.1419885 -0.351420E+02  0.573E-05    3.03       0.0  T
   2    -35.1419885 -0.780886E-11  0.371E-05    3.03     575.3  T
   3    -35.1419885 -0.160583E-11  0.247E-05    3.03     862.6  T

   *** convergence criteria satisfied after 3 iterations ***

         #    Occupation            Energy/Eh            Energy/eV
      -------------------------------------------------------------
         1        2.0000           -0.7367211             -20.0472
       ...           ...                  ...                  ...
        25        2.0000           -0.4489487             -12.2165
        26        2.0000           -0.4422107             -12.0332
        27        2.0000           -0.4376300             -11.9085
        28        2.0000           -0.4291539             -11.6779
        29        2.0000           -0.4158255             -11.3152
        30        2.0000           -0.4105787             -11.1724
        31        2.0000           -0.3994746             -10.8703 (HOMO)
        32                         -0.2879575              -7.8357 (LUMO)
        33                         -0.2328240              -6.3355
        34                         -0.2147592              -5.8439
        35                         -0.1550727              -4.2197
        36                         -0.0871367              -2.3711
       ...                                ...                  ...
        58                          0.7189258              19.5630
      -------------------------------------------------------------
                  HL-Gap            0.1115170 Eh            3.0345 eV
             Fermi-level           -0.3437160 Eh           -9.3530 eV

 SCC (total)                   0 d,  0 h,  0 min,  0.008 sec
 SCC setup                      ...        0 min,  0.001 sec (  7.287%)
 Dispersion                     ...        0 min,  0.000 sec (  1.812%)
 classical contributions        ...        0 min,  0.000 sec (  2.233%)
 integral evaluation            ...        0 min,  0.001 sec (  6.483%)
 iterations                     ...        0 min,  0.004 sec ( 49.365%)
 molecular gradient             ...        0 min,  0.003 sec ( 30.961%)
 printout                       ...        0 min,  0.000 sec (  1.586%)

         :::::::::::::::::::::::::::::::::::::::::::::::::::::
         ::                     SUMMARY                     ::
         :::::::::::::::::::::::::::::::::::::::::::::::::::::
         :: total energy             -34.615242826582 Eh    ::
         :: gradient norm              0.000562531276 Eh/a0 ::
         :: HOMO-LUMO gap              3.034533090809 eV    ::
         ::.................................................::
         :: SCC energy               -35.142130608370 Eh    ::
         :: -> isotropic ES            0.046041843262 Eh    ::
         :: -> anisotropic ES          0.001062943675 Eh    ::
         :: -> anisotropic XC          0.014312279588 Eh    ::
         :: -> dispersion             -0.017471520371 Eh    ::
         :: repulsion energy           0.526887781788 Eh    ::
         :: add. restraining           0.000000000000 Eh    ::
         :: total charge              -0.000000000000 e     ::
         :::::::::::::::::::::::::::::::::::::::::::::::::::::

           -------------------------------------------------
          |                Property Printout                |
           -------------------------------------------------

    * Orbital Energies and Occupations

         #    Occupation            Energy/Eh            Energy/eV
      -------------------------------------------------------------
         1        2.0000           -0.7367211             -20.0472
       ...           ...                  ...                  ...
        19        2.0000           -0.4998248             -13.6009
        20        2.0000           -0.4933756             -13.4254
        21        2.0000           -0.4871279             -13.2554
        22        2.0000           -0.4846667             -13.1885
        23        2.0000           -0.4734443             -12.8831
        24        2.0000           -0.4575576             -12.4508
        25        2.0000           -0.4489487             -12.2165
        26        2.0000           -0.4422107             -12.0332
        27        2.0000           -0.4376300             -11.9085
        28        2.0000           -0.4291539             -11.6779
        29        2.0000           -0.4158255             -11.3152
        30        2.0000           -0.4105787             -11.1724
        31        2.0000           -0.3994746             -10.8703 (HOMO)
        32                         -0.2879575              -7.8357 (LUMO)
        33                         -0.2328240              -6.3355
        34                         -0.2147592              -5.8439
        35                         -0.1550727              -4.2197
        36                         -0.0871367              -2.3711
        37                          0.0246486               0.6707
        38                          0.1044642               2.8426
        39                          0.1129602               3.0738
        40                          0.1162423               3.1631
        41                          0.1354551               3.6859
        42                          0.1420465               3.8653
       ...                                ...                  ...
        58                          0.7189258              19.5630
      -------------------------------------------------------------
                  HL-Gap            0.1115170 Eh            3.0345 eV
             Fermi-level           -0.3437160 Eh           -9.3530 eV

     #   Z          covCN         q      C6AA      α(0)
     1   6 C        3.656     0.036    20.256     6.461
     2   8 O        1.706    -0.269    18.454     5.800
     3   6 C        2.731     0.352    21.032     7.508
     4   8 O        0.856    -0.421    22.103     6.303
     5   6 C        2.892    -0.073    29.814     8.952
     6   6 C        2.907    -0.012    28.304     8.724
     7   6 C        2.970     0.017    27.623     8.621
     8   6 C        2.928    -0.029    28.720     8.789
     9   6 C        2.917    -0.027    28.681     8.782
    10   6 C        2.920    -0.025    28.629     8.774
    11   6 C        2.917    -0.027    28.685     8.783
    12   6 C        2.923    -0.028    28.711     8.787
    13   1 H        0.924     0.060     2.199     2.319
    14   1 H        0.924     0.061     2.191     2.315
    15   1 H        0.925     0.065     2.145     2.290
    16   1 H        0.926     0.060     2.202     2.320
    17   1 H        0.925     0.069     2.095     2.264
    18   1 H        0.926     0.041     2.434     2.440
    19   1 H        0.926     0.037     2.490     2.468
    20   1 H        0.926     0.037     2.492     2.469
    21   1 H        0.926     0.036     2.497     2.471
    22   1 H        0.926     0.040     2.444     2.445

 Mol. C6AA /au·bohr⁶  :       5771.246829
 Mol. C8AA /au·bohr⁸  :     138221.828831
 Mol. α(0) /au        :        120.082972


Wiberg/Mayer (AO) data.
largest (>0.10) Wiberg bond orders for each atom

 ---------------------------------------------------------------------------
     #   Z sym  total        # sym  WBO       # sym  WBO       # sym  WBO
 ---------------------------------------------------------------------------
     1   6 C    3.930 --    15 H    0.982    14 H    0.977    13 H    0.977
                             2 O    0.964
     2   8 O    2.288 --     3 C    1.102     1 C    0.964     4 O    0.166
     3   6 C    3.918 --     4 O    1.712     2 O    1.102     5 C    1.039
     4   8 O    2.021 --     3 C    1.712     2 O    0.166
     5   6 C    3.987 --     6 C    1.775     3 C    1.039    16 H    0.961
     6   6 C    3.982 --     5 C    1.775     7 C    1.116    17 H    0.957
     7   6 C    3.990 --     8 C    1.365    12 C    1.362     6 C    1.116
     8   6 C    3.989 --     9 C    1.460     7 C    1.365    18 H    0.968
                            11 C    0.103
     9   6 C    3.992 --     8 C    1.460    10 C    1.431    19 H    0.970
                            12 C    0.105
    10   6 C    3.983 --     9 C    1.431    11 C    1.425    20 H    0.971
    11   6 C    3.992 --    12 C    1.466    10 C    1.425    21 H    0.971
                             8 C    0.103
    12   6 C    3.992 --    11 C    1.466     7 C    1.362    22 H    0.966
                             9 C    0.105
    13   1 H    0.996 --     1 C    0.977
    14   1 H    0.996 --     1 C    0.977
    15   1 H    0.995 --     1 C    0.982
    16   1 H    0.996 --     5 C    0.961
    17   1 H    0.995 --     6 C    0.957
    18   1 H    0.998 --     8 C    0.968
    19   1 H    0.998 --     9 C    0.970
    20   1 H    0.998 --    10 C    0.971
    21   1 H    0.998 --    11 C    0.971
    22   1 H    0.998 --    12 C    0.966
 ---------------------------------------------------------------------------

Topologies differ in total number of bonds
Writing topology from bond orders to xtbtopo.mol

molecular dipole:
                 x           y           z       tot (Debye)
 q only:        0.637       0.456       0.394
   full:        0.600       0.525       0.460       2.340
molecular quadrupole (traceless):
                xx          xy          yy          xz          yz          zz
 q only:        7.792      -4.881      -4.185      -5.445      -0.055      -3.608
  q+dip:        8.957      -5.428      -4.619      -6.213       2.792      -4.338
   full:        7.667      -5.509      -4.171      -5.979      -0.403      -3.497

           -------------------------------------------------
          |                Geometry Summary                 |
           -------------------------------------------------

      molecular mass/u    :      162.1855763
   center of mass at/Å    :       -0.0860697      -0.0602890      -0.0877743
  moments of inertia/u·Å² :        0.1436097E+03   0.1411927E+04   0.1552362E+04
rotational constants/cm⁻¹ :        0.1173850E+00   0.1193945E-01   0.1085934E-01

 * 20 selected distances

     #   Z          #   Z                                           value/Å
     1   6 C        2   8 O                                       1.4179762 (max)
     2   8 O        3   6 C                                       1.3470019
     3   6 C        4   8 O                                       1.2078461
     5   6 C        6   6 C                                       1.3389629
     7   6 C        8   6 C                                       1.3981291
     8   6 C        9   6 C                                       1.3811707
     9   6 C       10   6 C                                       1.3854534
    10   6 C       11   6 C                                       1.3863221
     7   6 C       12   6 C                                       1.3976079
    11   6 C       12   6 C                                       1.3806955
     1   6 C       13   1 H                                       1.0922281
     1   6 C       14   1 H                                       1.0922836
     1   6 C       15   1 H                                       1.0869468
     5   6 C       16   1 H                                       1.0781183 (min)
     6   6 C       17   1 H                                       1.0840943
     8   6 C       18   1 H                                       1.0804966
     9   6 C       19   1 H                                       1.0801498
    10   6 C       20   1 H                                       1.0798396
    11   6 C       21   1 H                                       1.0802651
    12   6 C       22   1 H                                       1.0786766

 * 3 distinct bonds (by element types)

   Z      Z             #   av. dist./Å        max./Å        min./Å
   1 H    6 C          10     1.0833099     1.0922836     1.0781183
   6 C    6 C           7     1.3811916     1.3981291     1.3389629
   6 C    8 O           3     1.3242747     1.4179762     1.2078461


optimized geometry written to: xtbopt.xyz


           -------------------------------------------------
          | TOTAL ENERGY              -34.615242826582 Eh   |
          | GRADIENT NORM               0.000562531276 Eh/α |
          | HOMO-LUMO GAP               3.034533090809 eV   |
           -------------------------------------------------

------------------------------------------------------------------------
 * finished run on 2025/12/01 at 14:17:29.503     
------------------------------------------------------------------------
 total:
 * wall-time:     0 d,  0 h,  0 min,  0.128 sec
 *  cpu-time:     0 d,  0 h,  0 min,  2.874 sec
 * ratio c/w:    22.477 speedup
 SCF:
 * wall-time:     0 d,  0 h,  0 min,  0.019 sec
 *  cpu-time:     0 d,  0 h,  0 min,  0.428 sec
 * ratio c/w:    22.570 speedup
 ANC optimizer:
 * wall-time:     0 d,  0 h,  0 min,  0.097 sec
 *  cpu-time:     0 d,  0 h,  0 min,  2.208 sec
 * ratio c/w:    22.792 speedup

normal termination of xtb
