      -----------------------------------------------------------      
     |                   =====================                   |     
     |                           x T B                           |     
     |                   =====================                   |     
     |                         S. Grimme                         |     
     |          Mulliken Center for Theoretical Chemistry        |     
     |                    University of Bonn                     |     
      -----------------------------------------------------------      

   * xtb version 6.7.1 (edcfbbe) compiled by 'albert@albert-system' on 2024-07-22

   xtb is free software: you can redistribute it and/or modify it under
   the terms of the GNU Lesser General Public License as published by
   the Free Software Foundation, either version 3 of the License, or
   (at your option) any later version.
   
   xtb is distributed in the hope that it will be useful,
   but WITHOUT ANY WARRANTY; without even the implied warranty of
   MERCHANTABILITY or FITNESS FOR A PARTICULAR PURPOSE.  See the
   GNU Lesser General Public License for more details.
   
   Cite this work as:
   * C. Bannwarth, E. Caldeweyher, S. Ehlert, A. Hansen, P. Pracht,
     J. Seibert, S. Spicher, S. Grimme, WIREs Comput. Mol. Sci., 2020, 11,
     e01493. DOI: 10.1002/wcms.1493
   
   for GFN2-xTB:
   * C. Bannwarth, S. Ehlert and S. Grimme., J. Chem. Theory Comput., 2019,
     15, 1652-1671. DOI: 10.1021/acs.jctc.8b01176
   for GFN1-xTB:
   * S. Grimme, C. Bannwarth, P. Shushkov, J. Chem. Theory Comput., 2017,
     13, 1989-2009. DOI: 10.1021/acs.jctc.7b00118
   for GFN0-xTB:
   * P. Pracht, E. Caldeweyher, S. Ehlert, S. Grimme, ChemRxiv, 2019, preprint.
     DOI: 10.26434/chemrxiv.8326202.v1
   for GFN-FF:
   * S. Spicher and S. Grimme, Angew. Chem. Int. Ed., 2020, 59, 15665-15673.
     DOI: 10.1002/anie.202004239
   
   for ALPB and GBSA implicit solvation:
   * S. Ehlert, M. Stahn, S. Spicher, S. Grimme, J. Chem. Theory Comput.,
     2021, 17, 4250-4261. DOI: 10.1021/acs.jctc.1c00471
   
   for ddCOSMO and CPCM-X implicit solvation:
   * M. Stahn, S. Ehlert, S. Grimme, J. Phys. Chem. A,
     2023, XX, XXXX-XXXX. DOI: 10.1021/acs.jpca.3c04382
   
   for DFT-D4:
   * E. Caldeweyher, C. Bannwarth and S. Grimme, J. Chem. Phys., 2017,
     147, 034112. DOI: 10.1063/1.4993215
   * E. Caldeweyher, S. Ehlert, A. Hansen, H. Neugebauer, S. Spicher,
     C. Bannwarth and S. Grimme, J. Chem. Phys., 2019, 150, 154122.
     DOI: 10.1063/1.5090222
   * E. Caldeweyher, J.-M. Mewes, S. Ehlert and S. Grimme, Phys. Chem. Chem. Phys.
     2020, 22, 8499-8512. DOI: 10.1039/D0CP00502A
   
   for sTDA-xTB:
   * S. Grimme and C. Bannwarth, J. Chem. Phys., 2016, 145, 054103.
     DOI: 10.1063/1.4959605
   
   in the mass-spec context:
   * V. Asgeirsson, C. Bauer and S. Grimme, Chem. Sci., 2017, 8, 4879.
     DOI: 10.1039/c7sc00601b
   * J. Koopman and S. Grimme, ACS Omega 2019, 4, 12, 15120-15133.
     DOI: 10.1021/acsomega.9b02011
   
   for metadynamics refer to:
   * S. Grimme, J. Chem. Theory Comput., 2019, 155, 2847-2862
     DOI: 10.1021/acs.jctc.9b00143
   
   for SPH calculations refer to:
   * S. Spicher and S. Grimme, J. Chem. Theory Comput., 2021, 17, 1701-1714
     DOI: 10.1021/acs.jctc.0c01306
   
   for ONIOM refer to:
   * C. Plett, A. Katbashev, S. Ehlert, S. Grimme, M. Bursch,
     Phys. Chem. Chem. Phys., 2023, 25, 17860-17868. DOI: 10.1039/D3CP02178E
   
   for DIPRO refer to:
   * J. Kohn, N. Gildemeister, S. Grimme, D. Fazzi, A. Hansen,
     J. Chem. Phys., 2023, just accepted.
   
   for PTB refer to:
   * S. Grimme, M. Mueller, A. Hansen, J. Chem. Phys., 2023, 158, 124111.
     DOI: 10.1063/5.0137838
   
   with help from (in alphabetical order)
   P. Atkinson, C. Bannwarth, F. Bohle, G. Brandenburg, E. Caldeweyher
   M. Checinski, S. Dohm, S. Ehlert, S. Ehrlich, I. Gerasimov, C. Hölzer
   A. Katbashev, J. Kohn, J. Koopman, C. Lavigne, S. Lehtola, F. März, M. Müller,
   F. Musil, H. Neugebauer, J. Pisarek, C. Plett, P. Pracht, F. Pultar,
   J. Seibert, P. Shushkov, S. Spicher, M. Stahn, M. Steiner, T. Strunk,
   J. Stückrath, T. Rose, and J. Unsleber
   
 * started run on 2025/12/01 at 14:17:29.510     
   ID    Z sym.   atoms
    1    6 C      1, 3, 5-12
    2    8 O      2, 4
    3    1 H      13-22

           -------------------------------------------------
          |                Calculation Setup                |
           -------------------------------------------------

          program call               : xtb pipeline_data/3_conformer_xyz/acrylates/rdkit/CCRCUPLGCSFEDV-BQYQJAHWSA-N_conf54.xyz --opt --gfn 2-xTB --iterations 250
          coordinate file            : pipeline_data/3_conformer_xyz/acrylates/rdkit/CCRCUPLGCSFEDV-BQYQJAHWSA-N_conf54.xyz
          omp threads                :                    24

########################################################################
[WARNING] Please study the warnings concerning your input carefully
-1- readin_getIntValue: could not parse '2-xTB'
########################################################################

           -------------------------------------------------
          |                 G F N 2 - x T B                 |
           -------------------------------------------------

        Reference                      10.1021/acs.jctc.8b01176
      * Hamiltonian:
        H0-scaling (s, p, d)           1.850000    2.230000    2.230000
        zeta-weighting                 0.500000
      * Dispersion:
        s8                             2.700000
        a1                             0.520000
        a2                             5.000000
        s9                             5.000000
      * Repulsion:
        kExp                           1.500000    1.000000
        rExp                           1.000000
      * Coulomb:
        alpha                          2.000000
        third order                    shell-resolved
        anisotropic                    true
        a3                             3.000000
        a5                             4.000000
        cn-shift                       1.200000
        cn-exp                         4.000000
        max-rad                        5.000000

q/qsh data taken from xtbrestart
CAMM data taken from xtbrestart

          ...................................................
          :                      SETUP                      :
          :.................................................:
          :  # basis functions                  58          :
          :  # atomic orbitals                  58          :
          :  # shells                           34          :
          :  # electrons                        62          :
          :  max. iterations                   250          :
          :  Hamiltonian                  GFN2-xTB          :
          :  restarted?                       true          :
          :  GBSA solvation                  false          :
          :  PC potential                    false          :
          :  electronic temp.          300.0000000     K    :
          :  accuracy                    1.0000000          :
          :  -> integral cutoff          0.2500000E+02      :
          :  -> integral neglect         0.1000000E-07      :
          :  -> SCF convergence          0.1000000E-05 Eh   :
          :  -> wf. convergence          0.1000000E-03 e    :
          :  Broyden damping             0.4000000          :
          :  net charge                          0          :
          :  unpaired electrons                  0          :
          ...................................................

 iter      E             dE          RMSdq      gap      omega  full diag
   1    -35.1146405 -0.351146E+02  0.495E+00    3.02       0.0  T
   2    -35.1203569 -0.571638E-02  0.294E+00    3.14       1.0  T
   3    -35.1163962  0.396063E-02  0.606E-01    3.06       1.0  T
   4    -35.1217629 -0.536671E-02  0.184E-01    3.08       1.0  T
   5    -35.1220432 -0.280244E-03  0.915E-02    3.08       1.0  T
   6    -35.1220494 -0.623174E-05  0.385E-02    3.09       1.0  T
   7    -35.1220678 -0.184258E-04  0.121E-02    3.09       1.8  T
   8    -35.1220688 -0.988411E-06  0.616E-03    3.09       3.5  T
   9    -35.1220689 -0.112398E-06  0.324E-03    3.09       6.6  T
  10    -35.1220690 -0.702174E-07  0.833E-04    3.09      25.6  T
  11    -35.1220690 -0.250883E-08  0.401E-04    3.09      53.2  T

   *** convergence criteria satisfied after 11 iterations ***

         #    Occupation            Energy/Eh            Energy/eV
      -------------------------------------------------------------
         1        2.0000           -0.7282938             -19.8179
       ...           ...                  ...                  ...
        25        2.0000           -0.4537073             -12.3460
        26        2.0000           -0.4379631             -11.9176
        27        2.0000           -0.4309047             -11.7255
        28        2.0000           -0.4282308             -11.6528
        29        2.0000           -0.4161557             -11.3242
        30        2.0000           -0.4100237             -11.1573
        31        2.0000           -0.4053941             -11.0313 (HOMO)
        32                         -0.2919432              -7.9442 (LUMO)
        33                         -0.2342397              -6.3740
        34                         -0.2198978              -5.9837
        35                         -0.1568239              -4.2674
        36                         -0.0829334              -2.2567
       ...                                ...                  ...
        58                          0.7255558              19.7434
      -------------------------------------------------------------
                  HL-Gap            0.1134509 Eh            3.0872 eV
             Fermi-level           -0.3486687 Eh           -9.4878 eV

 SCC (total)                   0 d,  0 h,  0 min,  0.036 sec
 SCC setup                      ...        0 min,  0.000 sec (  0.816%)
 Dispersion                     ...        0 min,  0.000 sec (  0.807%)
 classical contributions        ...        0 min,  0.000 sec (  0.233%)
 integral evaluation            ...        0 min,  0.001 sec (  2.815%)
 iterations                     ...        0 min,  0.032 sec ( 88.876%)
 molecular gradient             ...        0 min,  0.002 sec (  5.935%)
 printout                       ...        0 min,  0.000 sec (  0.420%)

         :::::::::::::::::::::::::::::::::::::::::::::::::::::
         ::                     SUMMARY                     ::
         :::::::::::::::::::::::::::::::::::::::::::::::::::::
         :: total energy             -34.595370829138 Eh    ::
         :: gradient norm              0.142191793365 Eh/a0 ::
         :: HOMO-LUMO gap              3.087156438175 eV    ::
         ::.................................................::
         :: SCC energy               -35.122213986186 Eh    ::
         :: -> isotropic ES            0.048884631006 Eh    ::
         :: -> anisotropic ES          0.000068182526 Eh    ::
         :: -> anisotropic XC          0.013832421988 Eh    ::
         :: -> dispersion             -0.017432015275 Eh    ::
         :: repulsion energy           0.526843157047 Eh    ::
         :: add. restraining           0.000000000000 Eh    ::
         :: total charge              -0.000000000000 e     ::
         :::::::::::::::::::::::::::::::::::::::::::::::::::::

      ----------------------------------------------------------- 
     |                   =====================                   |
     |                        A N C O P T                        |
     |                   =====================                   |
     |               Approximate Normal Coordinate               |
     |                Rational Function Optimizer                |
      ----------------------------------------------------------- 
      ----------------------------------------------------------- 
     |                   =====================                   |
     |                        A N C O P T                        |
     |                   =====================                   |
     |               Approximate Normal Coordinate               |
     |                Rational Function Optimizer                |
      ----------------------------------------------------------- 

          ...................................................
          :                      SETUP                      :
          :.................................................:
          :   optimization level            normal          :
          :   max. optcycles                   200          :
          :   ANC micro-cycles                  20          :
          :   degrees of freedom                60          :
          :.................................................:
          :   RF solver                   davidson          :
          :   write xtbopt.log                true          :
          :   linear?                        false          :
          :   energy convergence         0.5000000E-05 Eh   :
          :   grad. convergence          0.1000000E-02 Eh/α :
          :   maxmium RF displ.          1.0000000          :
          :   Hlow (freq-cutoff)         0.1000000E-01      :
          :   Hmax (freq-cutoff)         5.0000000          :
          :   S6 in model hess.         20.0000000          :
          ...................................................

generating ANC from exact Hessian ...
Using Lindh-Hessian (1995)
 Shifting diagonal of input Hessian by   9.112963904278310E-003
 Lowest  eigenvalues of input Hessian
    0.000000    0.000000    0.000000    0.000000    0.000000    0.000000
    0.010000    0.011091    0.011325    0.014066    0.015195    0.020985
    0.021018    0.025306    0.030144    0.031912    0.033063    0.037103
 Highest eigenvalues
    1.771792    1.950566    2.012631    2.066417    2.117868    2.178338
 

........................................................................
.............................. CYCLE    1 ..............................
........................................................................

 iter      E             dE          RMSdq      gap      omega  full diag
   1    -35.1220690 -0.351221E+02  0.155E-04    3.09       0.0  T
   2    -35.1220690 -0.138506E-09  0.101E-04    3.09     211.6  T
   3    -35.1220690 -0.842562E-10  0.554E-05    3.09     384.8  T
     SCC iter.                  ...        0 min,  0.006 sec
     gradient                   ...        0 min,  0.002 sec
 * total energy  :   -34.5953708 Eh     change       -0.6778578E-09 Eh
   gradient norm :     0.1421917 Eh/α   predicted     0.0000000E+00 (-100.00%)
   displ. norm   :     0.3221812 α      lambda       -0.2093872E-01
   maximum displ.:     0.1708665 α      in ANC's #13, #14, #10, ...

........................................................................
.............................. CYCLE    2 ..............................
........................................................................

 iter      E             dE          RMSdq      gap      omega  full diag
   1    -35.1287128 -0.351287E+02  0.253E-01    3.05       0.0  T
   2    -35.1289749 -0.262099E-03  0.161E-01    3.03       1.0  T
   3    -35.1289615  0.134270E-04  0.791E-02    3.02       1.0  T
   4    -35.1289896 -0.281433E-04  0.358E-02    3.02       1.0  T
   5    -35.1290110 -0.214013E-04  0.814E-03    3.02       2.6  T
   6    -35.1290118 -0.786137E-06  0.311E-03    3.02       6.9  T
   7    -35.1290119 -0.431932E-07  0.136E-03    3.02      15.7  T
   8    -35.1290119 -0.981156E-08  0.559E-04    3.02      38.2  T
   9    -35.1290119 -0.160107E-08  0.223E-04    3.02      95.4  T
     SCC iter.                  ...        0 min,  0.016 sec
     gradient                   ...        0 min,  0.001 sec
 * total energy  :   -34.6101108 Eh     change       -0.1473996E-01 Eh
   gradient norm :     0.0559934 Eh/α   predicted    -0.1156297E-01 ( -21.55%)
   displ. norm   :     0.3203671 α      lambda       -0.7609169E-02
   maximum displ.:     0.2052289 α      in ANC's #10, #14, #13, ...

........................................................................
.............................. CYCLE    3 ..............................
........................................................................

 iter      E             dE          RMSdq      gap      omega  full diag
   1    -35.1367985 -0.351368E+02  0.208E-01    3.02       0.0  T
   2    -35.1369520 -0.153443E-03  0.123E-01    3.01       1.0  T
   3    -35.1369286  0.233187E-04  0.688E-02    3.00       1.0  T
   4    -35.1369603 -0.317056E-04  0.322E-02    3.00       1.0  T
   5    -35.1369757 -0.153686E-04  0.575E-03    3.00       3.7  T
   6    -35.1369761 -0.333262E-06  0.259E-03    3.00       8.2  T
   7    -35.1369761 -0.458902E-07  0.110E-03    3.00      19.3  T
   8    -35.1369761 -0.720610E-08  0.479E-04    3.00      44.5  T
   9    -35.1369761 -0.846008E-09  0.196E-04    3.00     108.6  T
     SCC iter.                  ...        0 min,  0.009 sec
     gradient                   ...        0 min,  0.002 sec
 * total energy  :   -34.6144610 Eh     change       -0.4350172E-02 Eh
   gradient norm :     0.0164177 Eh/α   predicted    -0.4196756E-02 (  -3.53%)
   displ. norm   :     0.1349140 α      lambda       -0.8003364E-03
   maximum displ.:     0.1016589 α      in ANC's #10, #13, #14, ...

........................................................................
.............................. CYCLE    4 ..............................
........................................................................

 iter      E             dE          RMSdq      gap      omega  full diag
   1    -35.1387892 -0.351388E+02  0.729E-02    3.01       0.0  T
   2    -35.1387922 -0.292082E-05  0.431E-02    3.02       1.0  T
   3    -35.1387896  0.258214E-05  0.141E-02    3.01       1.5  T
   4    -35.1387922 -0.261546E-05  0.504E-03    3.02       4.2  T
   5    -35.1387926 -0.450526E-06  0.113E-03    3.02      18.9  T
   6    -35.1387927 -0.436219E-08  0.685E-04    3.02      31.1  T
   7    -35.1387927 -0.301881E-08  0.196E-04    3.02     108.7  T
     SCC iter.                  ...        0 min,  0.025 sec
     gradient                   ...        0 min,  0.003 sec
 * total energy  :   -34.6149447 Eh     change       -0.4837049E-03 Eh
   gradient norm :     0.0091353 Eh/α   predicted    -0.4074640E-03 ( -15.76%)
   displ. norm   :     0.0727886 α      lambda       -0.2240848E-03
   maximum displ.:     0.0503431 α      in ANC's #10, #18, #6, ...

........................................................................
.............................. CYCLE    5 ..............................
........................................................................

 iter      E             dE          RMSdq      gap      omega  full diag
   1    -35.1410255 -0.351410E+02  0.428E-02    3.03       0.0  T
   2    -35.1410265 -0.104495E-05  0.257E-02    3.03       1.0  T
   3    -35.1410261  0.373589E-06  0.571E-03    3.03       3.7  T
   4    -35.1410265 -0.331021E-06  0.290E-03    3.03       7.3  T
   5    -35.1410266 -0.147931E-06  0.585E-04    3.03      36.5  T
   6    -35.1410266 -0.589409E-09  0.376E-04    3.03      56.7  T
     SCC iter.                  ...        0 min,  0.006 sec
     gradient                   ...        0 min,  0.002 sec
 * total energy  :   -34.6150620 Eh     change       -0.1173340E-03 Eh
   gradient norm :     0.0033169 Eh/α   predicted    -0.1126562E-03 (  -3.99%)
   displ. norm   :     0.0243256 α      lambda       -0.4555806E-04
   maximum displ.:     0.0151268 α      in ANC's #6, #18, #7, ...

........................................................................
.............................. CYCLE    6 ..............................
........................................................................

 iter      E             dE          RMSdq      gap      omega  full diag
   1    -35.1419491 -0.351419E+02  0.225E-02    3.04       0.0  T
   2    -35.1419493 -0.154348E-06  0.133E-02    3.04       1.6  T
   3    -35.1419492  0.466854E-07  0.227E-03    3.04       9.4  T
   4    -35.1419493 -0.665166E-07  0.782E-04    3.04      27.3  T
   5    -35.1419493 -0.678916E-08  0.329E-04    3.04      64.8  T
     SCC iter.                  ...        0 min,  0.016 sec
     gradient                   ...        0 min,  0.018 sec
 * total energy  :   -34.6150851 Eh     change       -0.2308691E-04 Eh
   gradient norm :     0.0012469 Eh/α   predicted    -0.2279459E-04 (  -1.27%)
   displ. norm   :     0.0180038 α      lambda       -0.5910115E-05
   maximum displ.:     0.0091571 α      in ANC's #6, #10, #4, ...

........................................................................
.............................. CYCLE    7 ..............................
........................................................................

 iter      E             dE          RMSdq      gap      omega  full diag
   1    -35.1415606 -0.351416E+02  0.120E-02    3.04       0.0  T
   2    -35.1415607 -0.480132E-07  0.717E-03    3.04       3.0  T
   3    -35.1415607  0.597722E-08  0.903E-04    3.04      23.6  T
   4    -35.1415607 -0.110537E-07  0.303E-04    3.04      70.5  T
     SCC iter.                  ...        0 min,  0.041 sec
     gradient                   ...        0 min,  0.003 sec
 * total energy  :   -34.6150894 Eh     change       -0.4338032E-05 Eh
   gradient norm :     0.0006231 Eh/α   predicted    -0.2960623E-05 ( -31.75%)
   displ. norm   :     0.0053455 α      lambda       -0.7288131E-06
   maximum displ.:     0.0028902 α      in ANC's #1, #14, #2, ...

   *** GEOMETRY OPTIMIZATION CONVERGED AFTER 7 ITERATIONS ***

------------------------------------------------------------------------
 total energy gain   :        -0.0197186 Eh      -12.3736 kcal/mol
 total RMSD          :         0.1691423 a0        0.0895 Å
 total power (kW/mol):        -7.3958803 (step) -288.9128 (real)
------------------------------------------------------------------------

 ANCopt (total)                0 d,  0 h,  0 min,  0.179 sec
 optimizer setup                ...        0 min,  0.000 sec (  0.069%)
 model hessian                  ...        0 min,  0.003 sec (  1.891%)
 ANC generation                 ...        0 min,  0.001 sec (  0.309%)
 coordinate transformation      ...        0 min,  0.000 sec (  0.039%)
 single point calculation       ...        0 min,  0.168 sec ( 93.976%)
 optimization log               ...        0 min,  0.001 sec (  0.399%)
 hessian update                 ...        0 min,  0.005 sec (  2.835%)
 rational function              ...        0 min,  0.001 sec (  0.281%)

================
 final structure:
================
22
 xtb: 6.7.1 (edcfbbe)
C            4.81230784202202        0.13437184223597       -0.06977726378955
O            3.45273791219296        0.53885563887907       -0.11761979333097
C            2.51418689481855       -0.42654574962585       -0.13936618380843
O            2.76353947188896       -1.60831445002100       -0.12079046502998
C            1.17119470882950        0.16238313478081       -0.19195569462393
C            0.08728806346097       -0.62317858753766       -0.22521637786085
C           -1.30025203542869       -0.20969345956646       -0.28209207622009
C           -1.69312203389109        1.13123071482130       -0.31227341233282
C           -3.03023173057976        1.47113286854419       -0.36768121563583
C           -4.00363189674400        0.48434281013760       -0.39417214707712
C           -3.63057724461538       -0.84962608865117       -0.36491467579221
C           -2.29391601021376       -1.19286991437055       -0.30953532307212
H            5.22902966173218        0.41135006297419        0.90011270241221
H            4.88269995353484       -0.94610169440855       -0.20855233063578
H            5.34600268834018        0.65566248652474       -0.86423059908892
H            1.13624296192873        1.23986261516433       -0.20265782212866
H            0.26061278522324       -1.69326737554516       -0.20918566137584
H           -0.94709472362581        1.91018663617115       -0.29247427705956
H           -3.31860650167964        2.51185455257948       -0.39066834313341
H           -5.04811397759832        0.75465066259610       -0.43758413784405
H           -4.38485693562781       -1.62242037857331       -0.38561655999364
H           -2.00543985396790       -2.23386632710924       -0.28697734257847
 
 Bond Distances (Angstroems)
 ---------------------------
C1-O2=1.4193         C1-H13=1.0914        C1-H14=1.0916        C1-H15=1.0898        O2-C1=1.4193         O2-C3=1.3466         
C3-O2=1.3466         C3-O4=1.2079         C3-C5=1.4674         O4-C3=1.2079         C5-C3=1.4674         C5-C6=1.3391         
C5-H16=1.0781        C6-C5=1.3391         C6-C7=1.4490         C6-H17=1.0842        C7-C6=1.4490         C7-C8=1.3976         
C7-C12=1.3981        C8-C7=1.3976         C8-C9=1.3807         C8-H18=1.0788        C9-C8=1.3807         C9-C10=1.3863        
C9-H19=1.0802        C10-C9=1.3863        C10-C11=1.3855       C10-H20=1.0798       C11-C10=1.3855       C11-C12=1.3811       
C11-H21=1.0801       C12-C7=1.3981        C12-C11=1.3811       C12-H22=1.0805       H13-C1=1.0914        H14-C1=1.0916        
H15-C1=1.0898        H16-C5=1.0781        H17-C6=1.0842        H18-C8=1.0788        H19-C9=1.0802        H20-C10=1.0798       
H21-C11=1.0801       H22-C12=1.0805       
 C  H  Rav=1.0834 sigma=0.0052  Rmin=1.0781  Rmax=1.0916    10
 C  C  Rav=1.3983 sigma=0.0361  Rmin=1.3391  Rmax=1.4674     9
 O  C  Rav=1.3246 sigma=0.0877  Rmin=1.2079  Rmax=1.4193     3
 
 selected bond angles (degree)
 --------------------
H13-C1-O2=108.87               H14-C1-O2=109.85               H14-C1-H13=109.85              H15-C1-O2=107.95               
H15-C1-H13=109.84              H15-C1-H14=110.44              C3-O2-C1=117.64                O4-C3-O2=123.87                
C5-C3-O2=110.53                C5-C3-O4=125.60                C6-C5-C3=120.42                H16-C5-C3=115.54               
H16-C5-C6=124.04               C7-C6-C5=127.50                H17-C6-C5=116.70               H17-C6-C7=115.81               
C8-C7-C6=122.94                C12-C7-C6=118.73               C12-C7-C8=118.33               C9-C8-C7=120.62                
H18-C8-C7=119.87               H18-C8-C9=119.52               C10-C9-C8=120.36               H19-C9-C8=119.77               
H19-C9-C10=119.86              C11-C10-C9=119.73              H20-C10-C9=120.12              H20-C10-C11=120.16             
 
 selected dihedral angles (degree)
 ---------------------------------
C3-O2-C1-H13=248.12           C3-O2-C1-H14=  8.44           C3-O2-C1-H15=128.92           O4-C3-O2-C1=  0.00            
C5-C3-O2-C1=180.15            C6-C5-C3-O2=179.77            C6-C5-C3-O4=359.94            H16-C5-C3-O2=359.87           
H16-C5-C3-O4=180.04           C7-C6-C5-C3=180.20            C7-C6-C5-H16=  0.09           H17-C6-C5-C3=  0.12           
H17-C6-C5-H16=180.02          C8-C7-C6-C5=  0.09            C8-C7-C6-H17=180.16           C12-C7-C6-C5=180.02           
C12-C7-C6-H17=  0.10          C9-C8-C7-C6=179.94            C9-C8-C7-C12=  0.00           H18-C8-C7-C6=359.95           
H18-C8-C7-C12=180.02          C10-C9-C8-C7=  0.00           C10-C9-C8-H18=179.98          H19-C9-C8-C7=180.01           
H19-C9-C8-H18=  0.00          C11-C10-C9-C8=  0.00          C11-C10-C9-H19=179.98         H20-C10-C9-C8=180.00          
H20-C10-C9-H19=  0.00         
           -------------------------------------------------
          |                Final Singlepoint                |
           -------------------------------------------------

          ...................................................
          :                      SETUP                      :
          :.................................................:
          :  # basis functions                  58          :
          :  # atomic orbitals                  58          :
          :  # shells                           34          :
          :  # electrons                        62          :
          :  max. iterations                   250          :
          :  Hamiltonian                  GFN2-xTB          :
          :  restarted?                      false          :
          :  GBSA solvation                  false          :
          :  PC potential                    false          :
          :  electronic temp.          300.0000000     K    :
          :  accuracy                    1.0000000          :
          :  -> integral cutoff          0.2500000E+02      :
          :  -> integral neglect         0.1000000E-07      :
          :  -> SCF convergence          0.1000000E-05 Eh   :
          :  -> wf. convergence          0.1000000E-03 e    :
          :  Broyden damping             0.4000000          :
          :  net charge                          0          :
          :  unpaired electrons                  0          :
          ...................................................

 iter      E             dE          RMSdq      gap      omega  full diag
   1    -35.1415607 -0.351416E+02  0.154E-04    3.04       0.0  T
   2    -35.1415607 -0.448068E-10  0.104E-04    3.04     205.8  T
   3    -35.1415607 -0.284643E-10  0.681E-05    3.04     312.9  T

   *** convergence criteria satisfied after 3 iterations ***

         #    Occupation            Energy/Eh            Energy/eV
      -------------------------------------------------------------
         1        2.0000           -0.7364076             -20.0387
       ...           ...                  ...                  ...
        25        2.0000           -0.4491524             -12.2221
        26        2.0000           -0.4402993             -11.9812
        27        2.0000           -0.4376852             -11.9100
        28        2.0000           -0.4292100             -11.6794
        29        2.0000           -0.4158600             -11.3161
        30        2.0000           -0.4126790             -11.2296
        31        2.0000           -0.3996061             -10.8738 (HOMO)
        32                         -0.2879759              -7.8362 (LUMO)
        33                         -0.2328595              -6.3364
        34                         -0.2146890              -5.8420
        35                         -0.1550355              -4.2187
        36                         -0.0871527              -2.3715
       ...                                ...                  ...
        58                          0.7193487              19.5745
      -------------------------------------------------------------
                  HL-Gap            0.1116302 Eh            3.0376 eV
             Fermi-level           -0.3437910 Eh           -9.3550 eV

 SCC (total)                   0 d,  0 h,  0 min,  0.010 sec
 SCC setup                      ...        0 min,  0.001 sec (  9.162%)
 Dispersion                     ...        0 min,  0.000 sec (  2.018%)
 classical contributions        ...        0 min,  0.000 sec (  2.161%)
 integral evaluation            ...        0 min,  0.001 sec (  7.780%)
 iterations                     ...        0 min,  0.005 sec ( 51.501%)
 molecular gradient             ...        0 min,  0.002 sec ( 24.332%)
 printout                       ...        0 min,  0.000 sec (  2.815%)

         :::::::::::::::::::::::::::::::::::::::::::::::::::::
         ::                     SUMMARY                     ::
         :::::::::::::::::::::::::::::::::::::::::::::::::::::
         :: total energy             -34.615089424406 Eh    ::
         :: gradient norm              0.000624520568 Eh/a0 ::
         :: HOMO-LUMO gap              3.037613045969 eV    ::
         ::.................................................::
         :: SCC energy               -35.141703353237 Eh    ::
         :: -> isotropic ES            0.046242820361 Eh    ::
         :: -> anisotropic ES          0.000365425289 Eh    ::
         :: -> anisotropic XC          0.014365113776 Eh    ::
         :: -> dispersion             -0.017450479570 Eh    ::
         :: repulsion energy           0.526613928831 Eh    ::
         :: add. restraining           0.000000000000 Eh    ::
         :: total charge               0.000000000000 e     ::
         :::::::::::::::::::::::::::::::::::::::::::::::::::::

           -------------------------------------------------
          |                Property Printout                |
           -------------------------------------------------

    * Orbital Energies and Occupations

         #    Occupation            Energy/Eh            Energy/eV
      -------------------------------------------------------------
         1        2.0000           -0.7364076             -20.0387
       ...           ...                  ...                  ...
        19        2.0000           -0.4993369             -13.5876
        20        2.0000           -0.4935907             -13.4313
        21        2.0000           -0.4870975             -13.2546
        22        2.0000           -0.4840491             -13.1716
        23        2.0000           -0.4689956             -12.7620
        24        2.0000           -0.4578160             -12.4578
        25        2.0000           -0.4491524             -12.2221
        26        2.0000           -0.4402993             -11.9812
        27        2.0000           -0.4376852             -11.9100
        28        2.0000           -0.4292100             -11.6794
        29        2.0000           -0.4158600             -11.3161
        30        2.0000           -0.4126790             -11.2296
        31        2.0000           -0.3996061             -10.8738 (HOMO)
        32                         -0.2879759              -7.8362 (LUMO)
        33                         -0.2328595              -6.3364
        34                         -0.2146890              -5.8420
        35                         -0.1550355              -4.2187
        36                         -0.0871527              -2.3715
        37                          0.0191561               0.5213
        38                          0.1050039               2.8573
        39                          0.1133987               3.0857
        40                          0.1171880               3.1888
        41                          0.1360373               3.7018
        42                          0.1454521               3.9580
       ...                                ...                  ...
        58                          0.7193487              19.5745
      -------------------------------------------------------------
                  HL-Gap            0.1116302 Eh            3.0376 eV
             Fermi-level           -0.3437910 Eh           -9.3550 eV

     #   Z          covCN         q      C6AA      α(0)
     1   6 C        3.648     0.029    20.407     6.491
     2   8 O        1.706    -0.269    18.453     5.800
     3   6 C        2.723     0.353    21.001     7.502
     4   8 O        0.856    -0.424    22.164     6.312
     5   6 C        2.892    -0.072    29.805     8.951
     6   6 C        2.907    -0.011    28.301     8.723
     7   6 C        2.970     0.017    27.621     8.621
     8   6 C        2.923    -0.028    28.709     8.787
     9   6 C        2.917    -0.027    28.685     8.783
    10   6 C        2.920    -0.025    28.628     8.774
    11   6 C        2.917    -0.027    28.681     8.782
    12   6 C        2.928    -0.029    28.719     8.789
    13   1 H        0.924     0.057     2.229     2.335
    14   1 H        0.924     0.075     2.033     2.230
    15   1 H        0.925     0.060     2.202     2.321
    16   1 H        0.926     0.060     2.201     2.320
    17   1 H        0.925     0.070     2.089     2.260
    18   1 H        0.926     0.040     2.443     2.444
    19   1 H        0.926     0.036     2.496     2.471
    20   1 H        0.926     0.037     2.491     2.468
    21   1 H        0.926     0.037     2.489     2.467
    22   1 H        0.926     0.041     2.433     2.439

 Mol. C6AA /au·bohr⁶  :       5769.769756
 Mol. C8AA /au·bohr⁸  :     138218.410104
 Mol. α(0) /au        :        120.068848


Wiberg/Mayer (AO) data.
largest (>0.10) Wiberg bond orders for each atom

 ---------------------------------------------------------------------------
     #   Z sym  total        # sym  WBO       # sym  WBO       # sym  WBO
 ---------------------------------------------------------------------------
     1   6 C    3.927 --    15 H    0.978    13 H    0.977    14 H    0.973
                             2 O    0.962
     2   8 O    2.293 --     3 C    1.106     1 C    0.962     4 O    0.169
     3   6 C    3.918 --     4 O    1.707     2 O    1.106     5 C    1.038
     4   8 O    2.025 --     3 C    1.707     2 O    0.169
     5   6 C    3.987 --     6 C    1.775     3 C    1.038    16 H    0.961
     6   6 C    3.980 --     5 C    1.775     7 C    1.116    17 H    0.957
     7   6 C    3.990 --    12 C    1.364     8 C    1.362     6 C    1.116
     8   6 C    3.992 --     9 C    1.466     7 C    1.362    18 H    0.966
                            11 C    0.105
     9   6 C    3.992 --     8 C    1.466    10 C    1.425    19 H    0.971
                            12 C    0.103
    10   6 C    3.983 --    11 C    1.430     9 C    1.425    20 H    0.971
    11   6 C    3.992 --    12 C    1.460    10 C    1.430    21 H    0.970
                             8 C    0.105
    12   6 C    3.989 --    11 C    1.460     7 C    1.364    22 H    0.968
                             9 C    0.103
    13   1 H    0.995 --     1 C    0.977
    14   1 H    0.994 --     1 C    0.973
    15   1 H    0.995 --     1 C    0.978
    16   1 H    0.996 --     5 C    0.961
    17   1 H    0.995 --     6 C    0.957
    18   1 H    0.998 --     8 C    0.966
    19   1 H    0.998 --     9 C    0.971
    20   1 H    0.998 --    10 C    0.971
    21   1 H    0.998 --    11 C    0.970
    22   1 H    0.998 --    12 C    0.968
 ---------------------------------------------------------------------------

Topologies differ in total number of bonds
Writing topology from bond orders to xtbtopo.mol

molecular dipole:
                 x           y           z       tot (Debye)
 q only:       -0.571       0.657      -0.037
   full:       -0.515       0.763      -0.032       2.341
molecular quadrupole (traceless):
                xx          xy          yy          xz          yz          zz
 q only:        9.250       5.618      -5.388       0.671      -0.222      -3.862
  q+dip:       10.702       6.826      -3.371       0.893      -0.315      -7.330
   full:        9.385       6.589      -5.912       0.686      -0.261      -3.473

           -------------------------------------------------
          |                Geometry Summary                 |
           -------------------------------------------------

      molecular mass/u    :      162.1855763
   center of mass at/Å    :        0.0748292      -0.0933221      -0.2350609
  moments of inertia/u·Å² :        0.1443679E+03   0.1412122E+04   0.1553278E+04
rotational constants/cm⁻¹ :        0.1167686E+00   0.1193780E-01   0.1085294E-01

 * 20 selected distances

     #   Z          #   Z                                           value/Å
     1   6 C        2   8 O                                       1.4192698 (max)
     2   8 O        3   6 C                                       1.3466073
     3   6 C        4   8 O                                       1.2079318
     5   6 C        6   6 C                                       1.3390547
     7   6 C        8   6 C                                       1.3976179
     8   6 C        9   6 C                                       1.3807484
     9   6 C       10   6 C                                       1.3863494
    10   6 C       11   6 C                                       1.3854599
     7   6 C       12   6 C                                       1.3981264
    11   6 C       12   6 C                                       1.3811397
     1   6 C       13   1 H                                       1.0913573
     1   6 C       14   1 H                                       1.0916212
     1   6 C       15   1 H                                       1.0898305
     5   6 C       16   1 H                                       1.0780994 (min)
     6   6 C       17   1 H                                       1.0841534
     8   6 C       18   1 H                                       1.0787591
     9   6 C       19   1 H                                       1.0801807
    10   6 C       20   1 H                                       1.0797657
    11   6 C       21   1 H                                       1.0800822
    12   6 C       22   1 H                                       1.0804634

 * 3 distinct bonds (by element types)

   Z      Z             #   av. dist./Å        max./Å        min./Å
   1 H    6 C          10     1.0834313     1.0916212     1.0780994
   6 C    6 C           7     1.3812138     1.3981264     1.3390547
   6 C    8 O           3     1.3246030     1.4192698     1.2079318


optimized geometry written to: xtbopt.xyz


           -------------------------------------------------
          | TOTAL ENERGY              -34.615089424406 Eh   |
          | GRADIENT NORM               0.000624520568 Eh/α |
          | HOMO-LUMO GAP               3.037613045969 eV   |
           -------------------------------------------------

------------------------------------------------------------------------
 * finished run on 2025/12/01 at 14:17:29.767     
------------------------------------------------------------------------
 total:
 * wall-time:     0 d,  0 h,  0 min,  0.256 sec
 *  cpu-time:     0 d,  0 h,  0 min,  5.398 sec
 * ratio c/w:    21.076 speedup
 SCF:
 * wall-time:     0 d,  0 h,  0 min,  0.036 sec
 *  cpu-time:     0 d,  0 h,  0 min,  0.797 sec
 * ratio c/w:    22.238 speedup
 ANC optimizer:
 * wall-time:     0 d,  0 h,  0 min,  0.190 sec
 *  cpu-time:     0 d,  0 h,  0 min,  4.383 sec
 * ratio c/w:    23.045 speedup

normal termination of xtb
