      -----------------------------------------------------------      
     |                   =====================                   |     
     |                           x T B                           |     
     |                   =====================                   |     
     |                         S. Grimme                         |     
     |          Mulliken Center for Theoretical Chemistry        |     
     |                    University of Bonn                     |     
      -----------------------------------------------------------      

   * xtb version 6.7.1 (edcfbbe) compiled by 'albert@albert-system' on 2024-07-22

   xtb is free software: you can redistribute it and/or modify it under
   the terms of the GNU Lesser General Public License as published by
   the Free Software Foundation, either version 3 of the License, or
   (at your option) any later version.
   
   xtb is distributed in the hope that it will be useful,
   but WITHOUT ANY WARRANTY; without even the implied warranty of
   MERCHANTABILITY or FITNESS FOR A PARTICULAR PURPOSE.  See the
   GNU Lesser General Public License for more details.
   
   Cite this work as:
   * C. Bannwarth, E. Caldeweyher, S. Ehlert, A. Hansen, P. Pracht,
     J. Seibert, S. Spicher, S. Grimme, WIREs Comput. Mol. Sci., 2020, 11,
     e01493. DOI: 10.1002/wcms.1493
   
   for GFN2-xTB:
   * C. Bannwarth, S. Ehlert and S. Grimme., J. Chem. Theory Comput., 2019,
     15, 1652-1671. DOI: 10.1021/acs.jctc.8b01176
   for GFN1-xTB:
   * S. Grimme, C. Bannwarth, P. Shushkov, J. Chem. Theory Comput., 2017,
     13, 1989-2009. DOI: 10.1021/acs.jctc.7b00118
   for GFN0-xTB:
   * P. Pracht, E. Caldeweyher, S. Ehlert, S. Grimme, ChemRxiv, 2019, preprint.
     DOI: 10.26434/chemrxiv.8326202.v1
   for GFN-FF:
   * S. Spicher and S. Grimme, Angew. Chem. Int. Ed., 2020, 59, 15665-15673.
     DOI: 10.1002/anie.202004239
   
   for ALPB and GBSA implicit solvation:
   * S. Ehlert, M. Stahn, S. Spicher, S. Grimme, J. Chem. Theory Comput.,
     2021, 17, 4250-4261. DOI: 10.1021/acs.jctc.1c00471
   
   for ddCOSMO and CPCM-X implicit solvation:
   * M. Stahn, S. Ehlert, S. Grimme, J. Phys. Chem. A,
     2023, XX, XXXX-XXXX. DOI: 10.1021/acs.jpca.3c04382
   
   for DFT-D4:
   * E. Caldeweyher, C. Bannwarth and S. Grimme, J. Chem. Phys., 2017,
     147, 034112. DOI: 10.1063/1.4993215
   * E. Caldeweyher, S. Ehlert, A. Hansen, H. Neugebauer, S. Spicher,
     C. Bannwarth and S. Grimme, J. Chem. Phys., 2019, 150, 154122.
     DOI: 10.1063/1.5090222
   * E. Caldeweyher, J.-M. Mewes, S. Ehlert and S. Grimme, Phys. Chem. Chem. Phys.
     2020, 22, 8499-8512. DOI: 10.1039/D0CP00502A
   
   for sTDA-xTB:
   * S. Grimme and C. Bannwarth, J. Chem. Phys., 2016, 145, 054103.
     DOI: 10.1063/1.4959605
   
   in the mass-spec context:
   * V. Asgeirsson, C. Bauer and S. Grimme, Chem. Sci., 2017, 8, 4879.
     DOI: 10.1039/c7sc00601b
   * J. Koopman and S. Grimme, ACS Omega 2019, 4, 12, 15120-15133.
     DOI: 10.1021/acsomega.9b02011
   
   for metadynamics refer to:
   * S. Grimme, J. Chem. Theory Comput., 2019, 155, 2847-2862
     DOI: 10.1021/acs.jctc.9b00143
   
   for SPH calculations refer to:
   * S. Spicher and S. Grimme, J. Chem. Theory Comput., 2021, 17, 1701-1714
     DOI: 10.1021/acs.jctc.0c01306
   
   for ONIOM refer to:
   * C. Plett, A. Katbashev, S. Ehlert, S. Grimme, M. Bursch,
     Phys. Chem. Chem. Phys., 2023, 25, 17860-17868. DOI: 10.1039/D3CP02178E
   
   for DIPRO refer to:
   * J. Kohn, N. Gildemeister, S. Grimme, D. Fazzi, A. Hansen,
     J. Chem. Phys., 2023, just accepted.
   
   for PTB refer to:
   * S. Grimme, M. Mueller, A. Hansen, J. Chem. Phys., 2023, 158, 124111.
     DOI: 10.1063/5.0137838
   
   with help from (in alphabetical order)
   P. Atkinson, C. Bannwarth, F. Bohle, G. Brandenburg, E. Caldeweyher
   M. Checinski, S. Dohm, S. Ehlert, S. Ehrlich, I. Gerasimov, C. Hölzer
   A. Katbashev, J. Kohn, J. Koopman, C. Lavigne, S. Lehtola, F. März, M. Müller,
   F. Musil, H. Neugebauer, J. Pisarek, C. Plett, P. Pracht, F. Pultar,
   J. Seibert, P. Shushkov, S. Spicher, M. Stahn, M. Steiner, T. Strunk,
   J. Stückrath, T. Rose, and J. Unsleber
   
 * started run on 2025/12/01 at 14:17:33.049     
   ID    Z sym.   atoms
    1    6 C      1-10, 12, 14-16
    2    8 O      11, 13
    3    1 H      17-42

           -------------------------------------------------
          |                Calculation Setup                |
           -------------------------------------------------

          program call               : xtb pipeline_data/3_conformer_xyz/acrylates/rdkit/COCLLEMEIJQBAG-UHFFFAOYSA-N_conf43.xyz --opt --gfn 2-xTB --iterations 250
          coordinate file            : pipeline_data/3_conformer_xyz/acrylates/rdkit/COCLLEMEIJQBAG-UHFFFAOYSA-N_conf43.xyz
          omp threads                :                    24

########################################################################
[WARNING] Please study the warnings concerning your input carefully
-1- readin_getIntValue: could not parse '2-xTB'
########################################################################

           -------------------------------------------------
          |                 G F N 2 - x T B                 |
           -------------------------------------------------

        Reference                      10.1021/acs.jctc.8b01176
      * Hamiltonian:
        H0-scaling (s, p, d)           1.850000    2.230000    2.230000
        zeta-weighting                 0.500000
      * Dispersion:
        s8                             2.700000
        a1                             0.520000
        a2                             5.000000
        s9                             5.000000
      * Repulsion:
        kExp                           1.500000    1.000000
        rExp                           1.000000
      * Coulomb:
        alpha                          2.000000
        third order                    shell-resolved
        anisotropic                    true
        a3                             3.000000
        a5                             4.000000
        cn-shift                       1.200000
        cn-exp                         4.000000
        max-rad                        5.000000

q/qsh data taken from xtbrestart
CAMM data taken from xtbrestart

          ...................................................
          :                      SETUP                      :
          :.................................................:
          :  # basis functions                  90          :
          :  # atomic orbitals                  90          :
          :  # shells                           58          :
          :  # electrons                        94          :
          :  max. iterations                   250          :
          :  Hamiltonian                  GFN2-xTB          :
          :  restarted?                       true          :
          :  GBSA solvation                  false          :
          :  PC potential                    false          :
          :  electronic temp.          300.0000000     K    :
          :  accuracy                    1.0000000          :
          :  -> integral cutoff          0.2500000E+02      :
          :  -> integral neglect         0.1000000E-07      :
          :  -> SCF convergence          0.1000000E-05 Eh   :
          :  -> wf. convergence          0.1000000E-03 e    :
          :  Broyden damping             0.4000000          :
          :  net charge                          0          :
          :  unpaired electrons                  0          :
          ...................................................

 iter      E             dE          RMSdq      gap      omega  full diag
   1    -51.9910979 -0.519911E+02  0.400E+00    3.37       0.0  T
   2    -51.9979621 -0.686429E-02  0.237E+00    3.36       1.0  T
   3    -51.9999440 -0.198182E-02  0.229E-01    3.45       1.0  T
   4    -52.0001614 -0.217419E-03  0.136E-01    3.42       1.0  T
   5    -52.0001875 -0.261623E-04  0.926E-02    3.45       1.0  T
   6    -52.0003414 -0.153872E-03  0.158E-02    3.43       1.0  T
   7    -52.0003458 -0.436933E-05  0.623E-03    3.43       2.5  T
   8    -52.0003460 -0.262917E-06  0.318E-03    3.43       4.9  T
   9    -52.0003461 -0.890852E-07  0.925E-04    3.43      16.7  T
  10    -52.0003461 -0.345985E-08  0.405E-04    3.43      38.1  T

   *** convergence criteria satisfied after 10 iterations ***

         #    Occupation            Energy/Eh            Energy/eV
      -------------------------------------------------------------
         1        2.0000           -0.7306376             -19.8817
       ...           ...                  ...                  ...
        41        2.0000           -0.4246125             -11.5543
        42        2.0000           -0.4194151             -11.4129
        43        2.0000           -0.4180205             -11.3749
        44        2.0000           -0.4168502             -11.3431
        45        2.0000           -0.4152043             -11.2983
        46        2.0000           -0.4072588             -11.0821
        47        2.0000           -0.4031832             -10.9712 (HOMO)
        48                         -0.2770254              -7.5382 (LUMO)
        49                         -0.1637108              -4.4548
        50                         -0.0107868              -0.2935
        51                          0.0672791               1.8308
        52                          0.0713801               1.9424
       ...                                ...                  ...
        90                          0.6444813              17.5372
      -------------------------------------------------------------
                  HL-Gap            0.1261578 Eh            3.4329 eV
             Fermi-level           -0.3401043 Eh           -9.2547 eV

 SCC (total)                   0 d,  0 h,  0 min,  0.054 sec
 SCC setup                      ...        0 min,  0.000 sec (  0.686%)
 Dispersion                     ...        0 min,  0.001 sec (  0.956%)
 classical contributions        ...        0 min,  0.000 sec (  0.467%)
 integral evaluation            ...        0 min,  0.002 sec (  3.117%)
 iterations                     ...        0 min,  0.044 sec ( 81.805%)
 molecular gradient             ...        0 min,  0.007 sec ( 12.197%)
 printout                       ...        0 min,  0.000 sec (  0.708%)

         :::::::::::::::::::::::::::::::::::::::::::::::::::::
         ::                     SUMMARY                     ::
         :::::::::::::::::::::::::::::::::::::::::::::::::::::
         :: total energy             -51.342171061692 Eh    ::
         :: gradient norm              0.136938997542 Eh/a0 ::
         :: HOMO-LUMO gap              3.432927912208 eV    ::
         ::.................................................::
         :: SCC energy               -52.000368772634 Eh    ::
         :: -> isotropic ES            0.052939616960 Eh    ::
         :: -> anisotropic ES          0.009099583181 Eh    ::
         :: -> anisotropic XC          0.025598245527 Eh    ::
         :: -> dispersion             -0.031381936839 Eh    ::
         :: repulsion energy           0.658197710942 Eh    ::
         :: add. restraining           0.000000000000 Eh    ::
         :: total charge              -0.000000000000 e     ::
         :::::::::::::::::::::::::::::::::::::::::::::::::::::

      ----------------------------------------------------------- 
     |                   =====================                   |
     |                        A N C O P T                        |
     |                   =====================                   |
     |               Approximate Normal Coordinate               |
     |                Rational Function Optimizer                |
      ----------------------------------------------------------- 
      ----------------------------------------------------------- 
     |                   =====================                   |
     |                        A N C O P T                        |
     |                   =====================                   |
     |               Approximate Normal Coordinate               |
     |                Rational Function Optimizer                |
      ----------------------------------------------------------- 

          ...................................................
          :                      SETUP                      :
          :.................................................:
          :   optimization level            normal          :
          :   max. optcycles                   200          :
          :   ANC micro-cycles                  20          :
          :   degrees of freedom               120          :
          :.................................................:
          :   RF solver                   davidson          :
          :   write xtbopt.log                true          :
          :   linear?                        false          :
          :   energy convergence         0.5000000E-05 Eh   :
          :   grad. convergence          0.1000000E-02 Eh/α :
          :   maxmium RF displ.          1.0000000          :
          :   Hlow (freq-cutoff)         0.1000000E-01      :
          :   Hmax (freq-cutoff)         5.0000000          :
          :   S6 in model hess.         20.0000000          :
          ...................................................

generating ANC from exact Hessian ...
Using Lindh-Hessian (1995)
 Shifting diagonal of input Hessian by   9.859656020483283E-003
 Lowest  eigenvalues of input Hessian
    0.000000    0.000000    0.000000    0.000000    0.000000    0.000000
    0.010000    0.010165    0.010333    0.010536    0.010646    0.011287
    0.012308    0.013472    0.013867    0.014575    0.015787    0.017104
 Highest eigenvalues
    1.317740    1.330527    1.485073    1.793698    1.996377    2.162305
 

........................................................................
.............................. CYCLE    1 ..............................
........................................................................

 iter      E             dE          RMSdq      gap      omega  full diag
   1    -52.0003461 -0.520003E+02  0.113E-04    3.43       0.0  T
   2    -52.0003461 -0.467750E-10  0.675E-05    3.43     228.7  T
   3    -52.0003461  0.186162E-11  0.383E-05    3.43     402.8  T
     SCC iter.                  ...        0 min,  0.008 sec
     gradient                   ...        0 min,  0.005 sec
 * total energy  :   -51.3421711 Eh     change       -0.1061956E-08 Eh
   gradient norm :     0.1369433 Eh/α   predicted     0.0000000E+00 (-100.00%)
   displ. norm   :     0.4817590 α      lambda       -0.3258126E-01
   maximum displ.:     0.1988674 α      in ANC's #20, #33, #26, ...

........................................................................
.............................. CYCLE    2 ..............................
........................................................................

 iter      E             dE          RMSdq      gap      omega  full diag
   1    -52.0584480 -0.520584E+02  0.320E-01    3.55       0.0  T
   2    -52.0586779 -0.229936E-03  0.189E-01    3.60       1.0  T
   3    -52.0586254  0.524950E-04  0.552E-02    3.60       1.0  T
   4    -52.0586717 -0.463193E-04  0.266E-02    3.60       1.0  T
   5    -52.0586984 -0.266421E-04  0.616E-03    3.60       2.5  T
   6    -52.0586986 -0.268912E-06  0.313E-03    3.60       4.9  T
   7    -52.0586987 -0.576431E-07  0.694E-04    3.60      22.2  T
   8    -52.0586987 -0.301291E-08  0.283E-04    3.60      54.6  T
     SCC iter.                  ...        0 min,  0.018 sec
     gradient                   ...        0 min,  0.005 sec
 * total energy  :   -51.3646620 Eh     change       -0.2249095E-01 Eh
   gradient norm :     0.0574446 Eh/α   predicted    -0.2011871E-01 ( -10.55%)
   displ. norm   :     0.4539209 α      lambda       -0.1051944E-01
   maximum displ.:     0.1746883 α      in ANC's #20, #7, #26, ...

........................................................................
.............................. CYCLE    3 ..............................
........................................................................

 iter      E             dE          RMSdq      gap      omega  full diag
   1    -52.0810193 -0.520810E+02  0.177E-01    3.69       0.0  T
   2    -52.0811113 -0.919415E-04  0.105E-01    3.73       1.0  T
   3    -52.0810677  0.435770E-04  0.472E-02    3.72       1.0  T
   4    -52.0811119 -0.442317E-04  0.177E-02    3.73       1.0  T
   5    -52.0811234 -0.115108E-04  0.331E-03    3.72       4.7  T
   6    -52.0811235 -0.578749E-07  0.162E-03    3.72       9.5  T
   7    -52.0811235 -0.169535E-07  0.478E-04    3.72      32.3  T
   8    -52.0811235 -0.147482E-08  0.192E-04    3.72      80.5  T
     SCC iter.                  ...        0 min,  0.021 sec
     gradient                   ...        0 min,  0.007 sec
 * total energy  :   -51.3715817 Eh     change       -0.6919678E-02 Eh
   gradient norm :     0.0174640 Eh/α   predicted    -0.6343462E-02 (  -8.33%)
   displ. norm   :     0.4357676 α      lambda       -0.3561879E-02
   maximum displ.:     0.1956777 α      in ANC's #7, #20, #6, ...

........................................................................
.............................. CYCLE    4 ..............................
........................................................................

 iter      E             dE          RMSdq      gap      omega  full diag
   1    -52.0787158 -0.520787E+02  0.106E-01    3.75       0.0  T
   2    -52.0787262 -0.103972E-04  0.625E-02    3.76       1.0  T
   3    -52.0787065  0.196988E-04  0.262E-02    3.75       1.0  T
   4    -52.0787284 -0.218692E-04  0.595E-03    3.76       2.6  T
   5    -52.0787294 -0.107936E-05  0.152E-03    3.76      10.2  T
   6    -52.0787294 -0.732688E-08  0.591E-04    3.76      26.1  T
   7    -52.0787294 -0.103883E-08  0.198E-04    3.76      78.1  T
     SCC iter.                  ...        0 min,  0.022 sec
     gradient                   ...        0 min,  0.005 sec
 * total energy  :   -51.3741886 Eh     change       -0.2606915E-02 Eh
   gradient norm :     0.0114514 Eh/α   predicted    -0.2119254E-02 ( -18.71%)
   displ. norm   :     0.4900947 α      lambda       -0.2333999E-02
   maximum displ.:     0.2307570 α      in ANC's #7, #6, #13, ...

........................................................................
.............................. CYCLE    5 ..............................
........................................................................

 iter      E             dE          RMSdq      gap      omega  full diag
   1    -52.0740090 -0.520740E+02  0.102E-01    3.78       0.0  T
   2    -52.0740216 -0.125951E-04  0.603E-02    3.78       1.0  T
   3    -52.0740102  0.114225E-04  0.209E-02    3.78       1.0  T
   4    -52.0740221 -0.118828E-04  0.759E-03    3.78       2.0  T
   5    -52.0740240 -0.188840E-05  0.168E-03    3.78       9.2  T
   6    -52.0740240 -0.480000E-08  0.676E-04    3.78      22.8  T
   7    -52.0740240 -0.287787E-08  0.219E-04    3.78      70.5  T
     SCC iter.                  ...        0 min,  0.018 sec
     gradient                   ...        0 min,  0.005 sec
 * total energy  :   -51.3758444 Eh     change       -0.1655779E-02 Eh
   gradient norm :     0.0117089 Eh/α   predicted    -0.1447308E-02 ( -12.59%)
   displ. norm   :     0.4480328 α      lambda       -0.1498644E-02
   maximum displ.:     0.2090169 α      in ANC's #7, #6, #13, ...

........................................................................
.............................. CYCLE    6 ..............................
........................................................................

 iter      E             dE          RMSdq      gap      omega  full diag
   1    -52.0724326 -0.520724E+02  0.952E-02    3.81       0.0  T
   2    -52.0724358 -0.327665E-05  0.566E-02    3.80       1.0  T
   3    -52.0724268  0.904165E-05  0.167E-02    3.80       1.0  T
   4    -52.0724372 -0.103694E-04  0.353E-03    3.81       4.4  T
   5    -52.0724374 -0.235942E-06  0.145E-03    3.80      10.6  T
   6    -52.0724374 -0.393678E-08  0.456E-04    3.80      33.9  T
   7    -52.0724374 -0.137545E-08  0.174E-04    3.80      88.9  T
     SCC iter.                  ...        0 min,  0.013 sec
     gradient                   ...        0 min,  0.003 sec
 * total energy  :   -51.3768651 Eh     change       -0.1020676E-02 Eh
   gradient norm :     0.0126942 Eh/α   predicted    -0.8997379E-03 ( -11.85%)
   displ. norm   :     0.3902530 α      lambda       -0.1064288E-02
   maximum displ.:     0.1698250 α      in ANC's #6, #7, #12, ...

........................................................................
.............................. CYCLE    7 ..............................
........................................................................

 iter      E             dE          RMSdq      gap      omega  full diag
   1    -52.0731551 -0.520732E+02  0.843E-02    3.82       0.0  T
   2    -52.0731587 -0.356528E-05  0.502E-02    3.81       1.0  T
   3    -52.0731591 -0.417211E-06  0.454E-03    3.81       3.4  T
   4    -52.0731593 -0.244530E-06  0.237E-03    3.81       6.5  T
   5    -52.0731594 -0.398429E-07  0.149E-03    3.81      10.3  T
   6    -52.0731594 -0.241639E-07  0.525E-04    3.81      29.4  T
   7    -52.0731594 -0.609063E-08  0.159E-04    3.81      96.9  T
     SCC iter.                  ...        0 min,  0.012 sec
     gradient                   ...        0 min,  0.006 sec
 * total energy  :   -51.3776293 Eh     change       -0.7642441E-03 Eh
   gradient norm :     0.0124554 Eh/α   predicted    -0.6131904E-03 ( -19.77%)
   displ. norm   :     0.3538649 α      lambda       -0.8580458E-03
   maximum displ.:     0.1734609 α      in ANC's #12, #6, #13, ...

........................................................................
.............................. CYCLE    8 ..............................
........................................................................

 iter      E             dE          RMSdq      gap      omega  full diag
   1    -52.0772144 -0.520772E+02  0.721E-02    3.83       0.0  T
   2    -52.0772178 -0.340132E-05  0.428E-02    3.83       1.0  T
   3    -52.0772181 -0.294030E-06  0.448E-03    3.83       3.4  T
   4    -52.0772183 -0.234227E-06  0.190E-03    3.83       8.1  T
   5    -52.0772183 -0.220830E-07  0.120E-03    3.83      12.8  T
   6    -52.0772183 -0.947372E-08  0.619E-04    3.83      24.9  T
   7    -52.0772183 -0.844306E-08  0.115E-04    3.83     134.4  T
     SCC iter.                  ...        0 min,  0.012 sec
     gradient                   ...        0 min,  0.003 sec
 * total energy  :   -51.3782457 Eh     change       -0.6163764E-03 Eh
   gradient norm :     0.0071584 Eh/α   predicted    -0.4827495E-03 ( -21.68%)
   displ. norm   :     0.3370758 α      lambda       -0.5400041E-03
   maximum displ.:     0.1731182 α      in ANC's #12, #6, #20, ...

........................................................................
.............................. CYCLE    9 ..............................
........................................................................

 iter      E             dE          RMSdq      gap      omega  full diag
   1    -52.0774533 -0.520775E+02  0.749E-02    3.83       0.0  T
   2    -52.0774552 -0.190966E-05  0.446E-02    3.83       1.0  T
   3    -52.0774544  0.769679E-06  0.651E-03    3.83       2.4  T
   4    -52.0774558 -0.137493E-05  0.268E-03    3.83       5.8  T
   5    -52.0774559 -0.114331E-06  0.149E-03    3.83      10.4  T
   6    -52.0774560 -0.192265E-07  0.456E-04    3.83      33.8  T
   7    -52.0774560 -0.101092E-08  0.117E-04    3.83     131.8  T
     SCC iter.                  ...        0 min,  0.012 sec
     gradient                   ...        0 min,  0.006 sec
 * total energy  :   -51.3786057 Eh     change       -0.3600518E-03 Eh
   gradient norm :     0.0096555 Eh/α   predicted    -0.3006837E-03 ( -16.49%)
   displ. norm   :     0.2425972 α      lambda       -0.3911729E-03
   maximum displ.:     0.1126514 α      in ANC's #6, #12, #20, ...

........................................................................
.............................. CYCLE   10 ..............................
........................................................................

 iter      E             dE          RMSdq      gap      omega  full diag
   1    -52.0830563 -0.520831E+02  0.487E-02    3.86       0.0  T
   2    -52.0830652 -0.892118E-05  0.286E-02    3.86       1.0  T
   3    -52.0830653 -0.844117E-07  0.848E-03    3.86       1.8  T
   4    -52.0830656 -0.313732E-06  0.159E-03    3.86       9.7  T
   5    -52.0830657 -0.436807E-07  0.836E-04    3.86      18.5  T
   6    -52.0830657 -0.246460E-08  0.247E-04    3.86      62.5  T
     SCC iter.                  ...        0 min,  0.010 sec
     gradient                   ...        0 min,  0.006 sec
 * total energy  :   -51.3787760 Eh     change       -0.1702480E-03 Eh
   gradient norm :     0.0078921 Eh/α   predicted    -0.2071201E-03 (  21.66%)
   displ. norm   :     0.2084257 α      lambda       -0.2307753E-03
   maximum displ.:     0.1010279 α      in ANC's #6, #12, #15, ...

........................................................................
.............................. CYCLE   11 ..............................
........................................................................

 iter      E             dE          RMSdq      gap      omega  full diag
   1    -52.0797261 -0.520797E+02  0.508E-02    3.87       0.0  T
   2    -52.0797291 -0.295420E-05  0.296E-02    3.86       1.0  T
   3    -52.0797288  0.287996E-06  0.575E-03    3.86       2.7  T
   4    -52.0797291 -0.300045E-06  0.312E-03    3.86       4.9  T
   5    -52.0797294 -0.313621E-06  0.960E-04    3.86      16.1  T
   6    -52.0797294 -0.226709E-08  0.305E-04    3.86      50.7  T
     SCC iter.                  ...        0 min,  0.010 sec
     gradient                   ...        0 min,  0.003 sec
 * total energy  :   -51.3788893 Eh     change       -0.1133325E-03 Eh
   gradient norm :     0.0064055 Eh/α   predicted    -0.1204034E-03 (   6.24%)
   displ. norm   :     0.1066888 α      lambda       -0.1700768E-03
   maximum displ.:     0.0550350 α      in ANC's #7, #6, #18, ...

........................................................................
.............................. CYCLE   12 ..............................
........................................................................

 iter      E             dE          RMSdq      gap      omega  full diag
   1    -52.0804550 -0.520805E+02  0.370E-02    3.86       0.0  T
   2    -52.0804615 -0.644762E-05  0.215E-02    3.85       1.0  T
   3    -52.0804613  0.154314E-06  0.759E-03    3.85       2.0  T
   4    -52.0804612  0.125041E-06  0.377E-03    3.85       4.1  T
   5    -52.0804617 -0.515670E-06  0.616E-04    3.85      25.1  T
   6    -52.0804617 -0.124295E-08  0.267E-04    3.85      57.8  T
     SCC iter.                  ...        0 min,  0.011 sec
     gradient                   ...        0 min,  0.005 sec
 * total energy  :   -51.3789644 Eh     change       -0.7504646E-04 Eh
   gradient norm :     0.0076835 Eh/α   predicted    -0.8600695E-04 (  14.60%)
   displ. norm   :     0.1260086 α      lambda       -0.1623748E-03
   maximum displ.:     0.0786077 α      in ANC's #7, #6, #15, ...

........................................................................
.............................. CYCLE   13 ..............................
........................................................................

 iter      E             dE          RMSdq      gap      omega  full diag
   1    -52.0816224 -0.520816E+02  0.252E-02    3.86       0.0  T
   2    -52.0816242 -0.171520E-05  0.153E-02    3.86       1.0  T
   3    -52.0816237  0.433694E-06  0.520E-03    3.86       3.0  T
   4    -52.0816242 -0.482881E-06  0.203E-03    3.86       7.6  T
   5    -52.0816244 -0.145204E-06  0.528E-04    3.86      29.2  T
   6    -52.0816244 -0.486448E-08  0.277E-04    3.86      55.6  T
     SCC iter.                  ...        0 min,  0.010 sec
     gradient                   ...        0 min,  0.003 sec
 * total energy  :   -51.3790779 Eh     change       -0.1135630E-03 Eh
   gradient norm :     0.0026174 Eh/α   predicted    -0.8247798E-04 ( -27.37%)
   displ. norm   :     0.2288309 α      lambda       -0.1278590E-03
   maximum displ.:     0.1248225 α      in ANC's #6, #7, #15, ...

........................................................................
.............................. CYCLE   14 ..............................
........................................................................

 iter      E             dE          RMSdq      gap      omega  full diag
   1    -52.0803921 -0.520804E+02  0.422E-02    3.87       0.0  T
   2    -52.0803930 -0.833364E-06  0.250E-02    3.87       1.0  T
   3    -52.0803930  0.182464E-08  0.207E-03    3.87       7.4  T
   4    -52.0803930 -0.447872E-07  0.119E-03    3.87      13.0  T
   5    -52.0803931 -0.393464E-07  0.497E-04    3.87      31.1  T
   6    -52.0803931 -0.189819E-08  0.195E-04    3.87      79.0  T
     SCC iter.                  ...        0 min,  0.010 sec
     gradient                   ...        0 min,  0.006 sec
 * total energy  :   -51.3791622 Eh     change       -0.8428822E-04 Eh
   gradient norm :     0.0041380 Eh/α   predicted    -0.6727790E-04 ( -20.18%)
   displ. norm   :     0.1964187 α      lambda       -0.9532158E-04
   maximum displ.:     0.1006861 α      in ANC's #7, #6, #2, ...

........................................................................
.............................. CYCLE   15 ..............................
........................................................................

 iter      E             dE          RMSdq      gap      omega  full diag
   1    -52.0819666 -0.520820E+02  0.361E-02    3.87       0.0  T
   2    -52.0819671 -0.470665E-06  0.213E-02    3.87       1.0  T
   3    -52.0819671  0.218488E-07  0.201E-03    3.87       7.7  T
   4    -52.0819671 -0.603065E-07  0.960E-04    3.87      16.1  T
   5    -52.0819672 -0.225804E-07  0.441E-04    3.87      35.0  T
     SCC iter.                  ...        0 min,  0.009 sec
     gradient                   ...        0 min,  0.003 sec
 * total energy  :   -51.3792179 Eh     change       -0.5568411E-04 Eh
   gradient norm :     0.0046782 Eh/α   predicted    -0.4950012E-04 ( -11.11%)
   displ. norm   :     0.1788078 α      lambda       -0.7504928E-04
   maximum displ.:     0.1051629 α      in ANC's #6, #2, #7, ...

........................................................................
.............................. CYCLE   16 ..............................
........................................................................

 iter      E             dE          RMSdq      gap      omega  full diag
   1    -52.0814232 -0.520814E+02  0.354E-02    3.86       0.0  T
   2    -52.0814238 -0.675455E-06  0.208E-02    3.86       1.0  T
   3    -52.0814237  0.182288E-06  0.306E-03    3.86       5.0  T
   4    -52.0814239 -0.204023E-06  0.149E-03    3.86      10.3  T
   5    -52.0814239 -0.717281E-07  0.484E-04    3.86      31.9  T
   6    -52.0814239 -0.105656E-08  0.196E-04    3.86      78.8  T
     SCC iter.                  ...        0 min,  0.010 sec
     gradient                   ...        0 min,  0.003 sec
 * total energy  :   -51.3792580 Eh     change       -0.4007945E-04 Eh
   gradient norm :     0.0030347 Eh/α   predicted    -0.3872592E-04 (  -3.38%)
   displ. norm   :     0.0866631 α      lambda       -0.4291263E-04
   maximum displ.:     0.0516423 α      in ANC's #6, #2, #3, ...

........................................................................
.............................. CYCLE   17 ..............................
........................................................................

 iter      E             dE          RMSdq      gap      omega  full diag
   1    -52.0818602 -0.520819E+02  0.177E-02    3.86       0.0  T
   2    -52.0818606 -0.394857E-06  0.104E-02    3.86       1.5  T
   3    -52.0818604  0.121571E-06  0.244E-03    3.86       6.3  T
   4    -52.0818606 -0.126725E-06  0.110E-03    3.86      14.0  T
   5    -52.0818606 -0.402071E-07  0.286E-04    3.86      54.0  T
   6    -52.0818606 -0.609425E-09  0.156E-04    3.86      99.0  T
     SCC iter.                  ...        0 min,  0.010 sec
     gradient                   ...        0 min,  0.004 sec
 * total energy  :   -51.3792859 Eh     change       -0.2787942E-04 Eh
   gradient norm :     0.0018327 Eh/α   predicted    -0.2162196E-04 ( -22.44%)
   displ. norm   :     0.1341107 α      lambda       -0.2808985E-04
   maximum displ.:     0.0739705 α      in ANC's #2, #6, #3, ...

........................................................................
.............................. CYCLE   18 ..............................
........................................................................

 iter      E             dE          RMSdq      gap      omega  full diag
   1    -52.0823178 -0.520823E+02  0.251E-02    3.86       0.0  T
   2    -52.0823180 -0.193523E-06  0.148E-02    3.86       1.0  T
   3    -52.0823180 -0.846278E-08  0.958E-04    3.86      16.1  T
   4    -52.0823180 -0.170225E-07  0.383E-04    3.86      40.3  T
     SCC iter.                  ...        0 min,  0.007 sec
     gradient                   ...        0 min,  0.003 sec
 * total energy  :   -51.3793117 Eh     change       -0.2580832E-04 Eh
   gradient norm :     0.0024793 Eh/α   predicted    -0.1416210E-04 ( -45.13%)
   displ. norm   :     0.1097651 α      lambda       -0.2775818E-04
   maximum displ.:     0.0611669 α      in ANC's #2, #6, #3, ...

........................................................................
.............................. CYCLE   19 ..............................
........................................................................

 iter      E             dE          RMSdq      gap      omega  full diag
   1    -52.0820373 -0.520820E+02  0.204E-02    3.86       0.0  T
   2    -52.0820374 -0.759738E-07  0.120E-02    3.86       1.3  T
   3    -52.0820373  0.118150E-06  0.190E-03    3.86       8.1  T
   4    -52.0820374 -0.133459E-06  0.550E-04    3.86      28.0  T
   5    -52.0820374 -0.824652E-08  0.166E-04    3.86      93.1  T
     SCC iter.                  ...        0 min,  0.008 sec
     gradient                   ...        0 min,  0.003 sec
 * total energy  :   -51.3793349 Eh     change       -0.2321734E-04 Eh
   gradient norm :     0.0019108 Eh/α   predicted    -0.1404747E-04 ( -39.50%)
   displ. norm   :     0.4076889 α      lambda       -0.6633612E-04
   maximum displ.:     0.2278630 α      in ANC's #2, #3, #5, ...

........................................................................
.............................. CYCLE   20 ..............................
........................................................................

 iter      E             dE          RMSdq      gap      omega  full diag
   1    -52.0801726 -0.520802E+02  0.822E-02    3.85       0.0  T
   2    -52.0801735 -0.918287E-06  0.484E-02    3.85       1.0  T
   3    -52.0801696  0.391311E-05  0.105E-02    3.86       1.5  T
   4    -52.0801740 -0.437956E-05  0.153E-03    3.85      10.1  T
   5    -52.0801740 -0.463214E-07  0.612E-04    3.86      25.2  T
   6    -52.0801740 -0.641755E-09  0.198E-04    3.86      77.9  T
     SCC iter.                  ...        0 min,  0.025 sec
     gradient                   ...        0 min,  0.003 sec
 * total energy  :   -51.3793927 Eh     change       -0.5786592E-04 Eh
   gradient norm :     0.0035171 Eh/α   predicted    -0.3562267E-04 ( -38.44%)
   displ. norm   :     0.1327645 α      lambda       -0.3532303E-04
   maximum displ.:     0.0723328 α      in ANC's #2, #3, #5, ...
 * RMSD in coord.:     0.5613619 α      energy gain  -0.3722169E-01 Eh

generating ANC from exact Hessian ...
Using Lindh-Hessian (1995)
 Shifting diagonal of input Hessian by   9.861106634291766E-003
 Lowest  eigenvalues of input Hessian
    0.000000    0.000000    0.000000    0.000000    0.000000    0.010000
    0.000000    0.010241    0.010409    0.010618    0.010711    0.011513
    0.012669    0.013038    0.014012    0.014680    0.016158    0.017565
 Highest eigenvalues
    1.292802    1.316338    1.457638    1.767817    1.979732    2.379663
 

........................................................................
.............................. CYCLE   21 ..............................
........................................................................

 iter      E             dE          RMSdq      gap      omega  full diag
   1    -52.0808175 -0.520808E+02  0.313E-02    3.85       0.0  T
   2    -52.0808176 -0.107466E-06  0.184E-02    3.85       1.0  T
   3    -52.0808175  0.154667E-06  0.235E-03    3.85       6.6  T
   4    -52.0808177 -0.190240E-06  0.544E-04    3.85      28.3  T
   5    -52.0808177 -0.614892E-08  0.239E-04    3.85      64.5  T
     SCC iter.                  ...        0 min,  0.026 sec
     gradient                   ...        0 min,  0.004 sec
 * total energy  :   -51.3794196 Eh     change       -0.2684886E-04 Eh
   gradient norm :     0.0030001 Eh/α   predicted     0.0000000E+00 (-100.00%)
   displ. norm   :     0.0322423 α      lambda       -0.2614759E-04
   maximum displ.:     0.0109877 α      in ANC's #7, #9, #5, ...

........................................................................
.............................. CYCLE   22 ..............................
........................................................................

 iter      E             dE          RMSdq      gap      omega  full diag
   1    -52.0815121 -0.520815E+02  0.944E-03    3.85       0.0  T
   2    -52.0815122 -0.109633E-06  0.557E-03    3.85       2.8  T
   3    -52.0815122  0.382396E-07  0.133E-03    3.85      11.6  T
   4    -52.0815122 -0.342218E-07  0.676E-04    3.85      22.8  T
   5    -52.0815122 -0.163824E-07  0.140E-04    3.85     109.8  T
     SCC iter.                  ...        0 min,  0.009 sec
     gradient                   ...        0 min,  0.004 sec
 * total energy  :   -51.3794408 Eh     change       -0.2119185E-04 Eh
   gradient norm :     0.0011303 Eh/α   predicted    -0.1386324E-04 ( -34.58%)
   displ. norm   :     0.0982489 α      lambda       -0.2595711E-04
   maximum displ.:     0.0379338 α      in ANC's #2, #5, #9, ...

........................................................................
.............................. CYCLE   23 ..............................
........................................................................

 iter      E             dE          RMSdq      gap      omega  full diag
   1    -52.0824464 -0.520824E+02  0.232E-02    3.85       0.0  T
   2    -52.0824468 -0.419949E-06  0.137E-02    3.85       1.1  T
   3    -52.0824468 -0.710673E-08  0.155E-03    3.85      10.0  T
   4    -52.0824469 -0.230475E-07  0.821E-04    3.85      18.8  T
   5    -52.0824469 -0.178796E-07  0.368E-04    3.85      42.0  T
     SCC iter.                  ...        0 min,  0.010 sec
     gradient                   ...        0 min,  0.003 sec
 * total energy  :   -51.3794595 Eh     change       -0.1867909E-04 Eh
   gradient norm :     0.0021403 Eh/α   predicted    -0.1374634E-04 ( -26.41%)
   displ. norm   :     0.0244504 α      lambda       -0.8032491E-05
   maximum displ.:     0.0128189 α      in ANC's #2, #3, #5, ...

........................................................................
.............................. CYCLE   24 ..............................
........................................................................

 iter      E             dE          RMSdq      gap      omega  full diag
   1    -52.0822989 -0.520823E+02  0.589E-03    3.85       0.0  T
   2    -52.0822989 -0.109658E-07  0.348E-03    3.85       4.4  T
   3    -52.0822989  0.143464E-08  0.389E-04    3.85      39.7  T
   4    -52.0822989 -0.345077E-08  0.174E-04    3.85      88.8  T
     SCC iter.                  ...        0 min,  0.007 sec
     gradient                   ...        0 min,  0.004 sec
 * total energy  :   -51.3794667 Eh     change       -0.7194269E-05 Eh
   gradient norm :     0.0014630 Eh/α   predicted    -0.4018849E-05 ( -44.14%)
   displ. norm   :     0.1581950 α      lambda       -0.2845102E-04
   maximum displ.:     0.0818336 α      in ANC's #2, #3, #5, ...

........................................................................
.............................. CYCLE   25 ..............................
........................................................................

 iter      E             dE          RMSdq      gap      omega  full diag
   1    -52.0813079 -0.520813E+02  0.343E-02    3.85       0.0  T
   2    -52.0813082 -0.318308E-06  0.202E-02    3.86       1.0  T
   3    -52.0813081  0.119936E-06  0.246E-03    3.86       6.3  T
   4    -52.0813082 -0.162289E-06  0.114E-03    3.86      13.5  T
   5    -52.0813083 -0.365433E-07  0.423E-04    3.86      36.5  T
   6    -52.0813083 -0.603940E-09  0.112E-04    3.86     138.3  T
     SCC iter.                  ...        0 min,  0.011 sec
     gradient                   ...        0 min,  0.004 sec
 * total energy  :   -51.3794881 Eh     change       -0.2146468E-04 Eh
   gradient norm :     0.0025175 Eh/α   predicted    -0.1441133E-04 ( -32.86%)
   displ. norm   :     0.0669328 α      lambda       -0.1396127E-04
   maximum displ.:     0.0360065 α      in ANC's #2, #3, #5, ...

........................................................................
.............................. CYCLE   26 ..............................
........................................................................

 iter      E             dE          RMSdq      gap      omega  full diag
   1    -52.0813777 -0.520814E+02  0.163E-02    3.86       0.0  T
   2    -52.0813777 -0.296062E-07  0.963E-03    3.86       1.6  T
   3    -52.0813778 -0.607043E-08  0.613E-04    3.86      25.2  T
   4    -52.0813778 -0.673182E-08  0.318E-04    3.86      48.6  T
     SCC iter.                  ...        0 min,  0.007 sec
     gradient                   ...        0 min,  0.004 sec
 * total energy  :   -51.3794993 Eh     change       -0.1119853E-04 Eh
   gradient norm :     0.0022052 Eh/α   predicted    -0.7013705E-05 ( -37.37%)
   displ. norm   :     0.1287172 α      lambda       -0.2535090E-04
   maximum displ.:     0.0692151 α      in ANC's #2, #3, #5, ...

........................................................................
.............................. CYCLE   27 ..............................
........................................................................

 iter      E             dE          RMSdq      gap      omega  full diag
   1    -52.0817096 -0.520817E+02  0.295E-02    3.86       0.0  T
   2    -52.0817097 -0.963679E-07  0.174E-02    3.86       1.0  T
   3    -52.0817097 -0.207916E-07  0.102E-03    3.86      15.2  T
   4    -52.0817097 -0.173879E-07  0.536E-04    3.86      28.8  T
   5    -52.0817097 -0.171821E-08  0.306E-04    3.86      50.5  T
     SCC iter.                  ...        0 min,  0.010 sec
     gradient                   ...        0 min,  0.003 sec
 * total energy  :   -51.3795205 Eh     change       -0.2120315E-04 Eh
   gradient norm :     0.0011876 Eh/α   predicted    -0.1289240E-04 ( -39.20%)
   displ. norm   :     0.3313027 α      lambda       -0.3456687E-04
   maximum displ.:     0.1787687 α      in ANC's #2, #3, #5, ...

........................................................................
.............................. CYCLE   28 ..............................
........................................................................

 iter      E             dE          RMSdq      gap      omega  full diag
   1    -52.0816008 -0.520816E+02  0.736E-02    3.86       0.0  T
   2    -52.0816013 -0.564328E-06  0.434E-02    3.86       1.0  T
   3    -52.0816004  0.946359E-06  0.573E-03    3.86       2.7  T
   4    -52.0816016 -0.124446E-05  0.142E-03    3.86      10.8  T
   5    -52.0816017 -0.178515E-07  0.648E-04    3.86      23.8  T
   6    -52.0816017 -0.280837E-08  0.192E-04    3.86      80.2  T
     SCC iter.                  ...        0 min,  0.011 sec
     gradient                   ...        0 min,  0.004 sec
 * total energy  :   -51.3795550 Eh     change       -0.3450195E-04 Eh
   gradient norm :     0.0020277 Eh/α   predicted    -0.1813176E-04 ( -47.45%)
   displ. norm   :     0.1389643 α      lambda       -0.1742926E-04
   maximum displ.:     0.0760319 α      in ANC's #2, #3, #5, ...

........................................................................
.............................. CYCLE   29 ..............................
........................................................................

 iter      E             dE          RMSdq      gap      omega  full diag
   1    -52.0817485 -0.520817E+02  0.309E-02    3.86       0.0  T
   2    -52.0817486 -0.824368E-07  0.182E-02    3.86       1.0  T
   3    -52.0817486  0.169695E-08  0.123E-03    3.86      12.5  T
   4    -52.0817486 -0.367359E-07  0.542E-04    3.86      28.5  T
   5    -52.0817487 -0.279554E-08  0.256E-04    3.86      60.3  T
     SCC iter.                  ...        0 min,  0.009 sec
     gradient                   ...        0 min,  0.003 sec
 * total energy  :   -51.3795702 Eh     change       -0.1519549E-04 Eh
   gradient norm :     0.0016728 Eh/α   predicted    -0.8883300E-05 ( -41.54%)
   displ. norm   :     0.3783053 α      lambda       -0.3133161E-04
   maximum displ.:     0.2078195 α      in ANC's #2, #3, #5, ...

........................................................................
.............................. CYCLE   30 ..............................
........................................................................

 iter      E             dE          RMSdq      gap      omega  full diag
   1    -52.0814569 -0.520815E+02  0.838E-02    3.86       0.0  T
   2    -52.0814575 -0.614441E-06  0.493E-02    3.86       1.0  T
   3    -52.0814567  0.816306E-06  0.578E-03    3.86       2.7  T
   4    -52.0814578 -0.112628E-05  0.146E-03    3.86      10.6  T
   5    -52.0814579 -0.203987E-07  0.700E-04    3.86      22.1  T
   6    -52.0814579 -0.586301E-08  0.182E-04    3.86      84.9  T
     SCC iter.                  ...        0 min,  0.014 sec
     gradient                   ...        0 min,  0.004 sec
 * total energy  :   -51.3796020 Eh     change       -0.3179599E-04 Eh
   gradient norm :     0.0012293 Eh/α   predicted    -0.1666545E-04 ( -47.59%)
   displ. norm   :     0.2263141 α      lambda       -0.1722320E-04
   maximum displ.:     0.1240319 α      in ANC's #2, #3, #1, ...

........................................................................
.............................. CYCLE   31 ..............................
........................................................................

 iter      E             dE          RMSdq      gap      omega  full diag
   1    -52.0818701 -0.520819E+02  0.508E-02    3.86       0.0  T
   2    -52.0818703 -0.231594E-06  0.299E-02    3.86       1.0  T
   3    -52.0818704 -0.570009E-07  0.129E-03    3.86      11.9  T
   4    -52.0818704 -0.237360E-07  0.774E-04    3.86      19.9  T
   5    -52.0818704 -0.659143E-08  0.423E-04    3.86      36.4  T
     SCC iter.                  ...        0 min,  0.009 sec
     gradient                   ...        0 min,  0.003 sec
 * total energy  :   -51.3796216 Eh     change       -0.1959469E-04 Eh
   gradient norm :     0.0011837 Eh/α   predicted    -0.8815765E-05 ( -55.01%)
   displ. norm   :     0.3561338 α      lambda       -0.2040724E-04
   maximum displ.:     0.1935464 α      in ANC's #2, #3, #1, ...

........................................................................
.............................. CYCLE   32 ..............................
........................................................................

 iter      E             dE          RMSdq      gap      omega  full diag
   1    -52.0807293 -0.520807E+02  0.791E-02    3.86       0.0  T
   2    -52.0807298 -0.541214E-06  0.466E-02    3.85       1.0  T
   3    -52.0807278  0.202649E-05  0.783E-03    3.86       2.0  T
   4    -52.0807302 -0.240433E-05  0.128E-03    3.85      12.0  T
   5    -52.0807302 -0.988693E-08  0.518E-04    3.85      29.8  T
   6    -52.0807302 -0.930442E-09  0.153E-04    3.85     101.0  T
     SCC iter.                  ...        0 min,  0.011 sec
     gradient                   ...        0 min,  0.005 sec
 * total energy  :   -51.3796385 Eh     change       -0.1687338E-04 Eh
   gradient norm :     0.0020757 Eh/α   predicted    -0.1077941E-04 ( -36.12%)
   displ. norm   :     0.1402472 α      lambda       -0.3081215E-04
   maximum displ.:     0.0690019 α      in ANC's #3, #2, #1, ...

........................................................................
.............................. CYCLE   33 ..............................
........................................................................

 iter      E             dE          RMSdq      gap      omega  full diag
   1    -52.0825278 -0.520825E+02  0.315E-02    3.86       0.0  T
   2    -52.0825280 -0.185072E-06  0.186E-02    3.86       1.0  T
   3    -52.0825257  0.229891E-05  0.823E-03    3.86       1.9  T
   4    -52.0825283 -0.255972E-05  0.604E-04    3.86      25.6  T
   5    -52.0825283 -0.556047E-08  0.260E-04    3.86      59.3  T
   6    -52.0825283 -0.689724E-10  0.515E-05    3.86     299.4  T
     SCC iter.                  ...        0 min,  0.011 sec
     gradient                   ...        0 min,  0.003 sec
 * total energy  :   -51.3796536 Eh     change       -0.1506204E-04 Eh
   gradient norm :     0.0015088 Eh/α   predicted    -0.1570993E-04 (   4.30%)
   displ. norm   :     0.1986677 α      lambda       -0.1260306E-04
   maximum displ.:     0.1089946 α      in ANC's #3, #2, #1, ...

........................................................................
.............................. CYCLE   34 ..............................
........................................................................

 iter      E             dE          RMSdq      gap      omega  full diag
   1    -52.0818909 -0.520819E+02  0.489E-02    3.86       0.0  T
   2    -52.0818912 -0.288329E-06  0.287E-02    3.86       1.0  T
   3    -52.0818907  0.496179E-06  0.404E-03    3.86       3.8  T
   4    -52.0818913 -0.602504E-06  0.878E-04    3.86      17.6  T
   5    -52.0818913 -0.144821E-07  0.392E-04    3.86      39.4  T
     SCC iter.                  ...        0 min,  0.009 sec
     gradient                   ...        0 min,  0.004 sec
 * total energy  :   -51.3796625 Eh     change       -0.8987238E-05 Eh
   gradient norm :     0.0016016 Eh/α   predicted    -0.6417598E-05 ( -28.59%)
   displ. norm   :     0.1126893 α      lambda       -0.1004612E-04
   maximum displ.:     0.0640984 α      in ANC's #3, #2, #1, ...

........................................................................
.............................. CYCLE   35 ..............................
........................................................................

 iter      E             dE          RMSdq      gap      omega  full diag
   1    -52.0819582 -0.520820E+02  0.237E-02    3.86       0.0  T
   2    -52.0819583 -0.905202E-07  0.139E-02    3.86       1.1  T
   3    -52.0819582  0.892759E-07  0.168E-03    3.86       9.2  T
   4    -52.0819583 -0.105537E-06  0.661E-04    3.86      23.3  T
   5    -52.0819583 -0.114366E-07  0.215E-04    3.86      71.7  T
     SCC iter.                  ...        0 min,  0.009 sec
     gradient                   ...        0 min,  0.003 sec
 * total energy  :   -51.3796738 Eh     change       -0.1125095E-04 Eh
   gradient norm :     0.0009151 Eh/α   predicted    -0.5053017E-05 ( -55.09%)
   displ. norm   :     0.1508553 α      lambda       -0.1633230E-04
   maximum displ.:     0.0777991 α      in ANC's #3, #1, #9, ...

........................................................................
.............................. CYCLE   36 ..............................
........................................................................

 iter      E             dE          RMSdq      gap      omega  full diag
   1    -52.0826098 -0.520826E+02  0.323E-02    3.86       0.0  T
   2    -52.0826100 -0.204407E-06  0.191E-02    3.86       1.0  T
   3    -52.0826092  0.799533E-06  0.489E-03    3.86       3.2  T
   4    -52.0826101 -0.881754E-06  0.799E-04    3.86      19.3  T
   5    -52.0826101 -0.179642E-07  0.272E-04    3.86      56.7  T
     SCC iter.                  ...        0 min,  0.015 sec
     gradient                   ...        0 min,  0.004 sec
 * total energy  :   -51.3796872 Eh     change       -0.1345176E-04 Eh
   gradient norm :     0.0010860 Eh/α   predicted    -0.8250986E-05 ( -38.66%)
   displ. norm   :     0.2501027 α      lambda       -0.1015072E-04
   maximum displ.:     0.1470175 α      in ANC's #3, #2, #1, ...

........................................................................
.............................. CYCLE   37 ..............................
........................................................................

 iter      E             dE          RMSdq      gap      omega  full diag
   1    -52.0812567 -0.520813E+02  0.562E-02    3.86       0.0  T
   2    -52.0812570 -0.302736E-06  0.331E-02    3.86       1.0  T
   3    -52.0812551  0.194718E-05  0.741E-03    3.86       2.1  T
   4    -52.0812573 -0.220757E-05  0.931E-04    3.86      16.6  T
   5    -52.0812573 -0.594601E-08  0.419E-04    3.86      36.9  T
   6    -52.0812573 -0.413827E-09  0.122E-04    3.86     126.0  T
     SCC iter.                  ...        0 min,  0.016 sec
     gradient                   ...        0 min,  0.004 sec
 * total energy  :   -51.3796930 Eh     change       -0.5728505E-05 Eh
   gradient norm :     0.0018145 Eh/α   predicted    -0.5216676E-05 (  -8.93%)
   displ. norm   :     0.0531791 α      lambda       -0.9585245E-05
   maximum displ.:     0.0247132 α      in ANC's #7, #10, #9, ...

........................................................................
.............................. CYCLE   38 ..............................
........................................................................

 iter      E             dE          RMSdq      gap      omega  full diag
   1    -52.0821077 -0.520821E+02  0.122E-02    3.86       0.0  T
   2    -52.0821078 -0.813725E-07  0.726E-03    3.86       2.1  T
   3    -52.0821075  0.239777E-06  0.270E-03    3.86       5.7  T
   4    -52.0821078 -0.263499E-06  0.489E-04    3.86      31.5  T
   5    -52.0821078 -0.742597E-08  0.146E-04    3.86     106.0  T
     SCC iter.                  ...        0 min,  0.009 sec
     gradient                   ...        0 min,  0.004 sec
 * total energy  :   -51.3797011 Eh     change       -0.8105546E-05 Eh
   gradient norm :     0.0012639 Eh/α   predicted    -0.4802671E-05 ( -40.75%)
   displ. norm   :     0.0701986 α      lambda       -0.6035390E-05
   maximum displ.:     0.0399077 α      in ANC's #3, #1, #10, ...

........................................................................
.............................. CYCLE   39 ..............................
........................................................................

 iter      E             dE          RMSdq      gap      omega  full diag
   1    -52.0822108 -0.520822E+02  0.170E-02    3.86       0.0  T
   2    -52.0822109 -0.539695E-07  0.100E-02    3.86       1.5  T
   3    -52.0822107  0.134830E-06  0.196E-03    3.86       7.9  T
   4    -52.0822109 -0.155647E-06  0.489E-04    3.86      31.6  T
   5    -52.0822109 -0.451627E-08  0.196E-04    3.86      78.8  T
     SCC iter.                  ...        0 min,  0.009 sec
     gradient                   ...        0 min,  0.004 sec
 * total energy  :   -51.3797063 Eh     change       -0.5228209E-05 Eh
   gradient norm :     0.0005979 Eh/α   predicted    -0.3025061E-05 ( -42.14%)
   displ. norm   :     0.1011808 α      lambda       -0.2824826E-05
   maximum displ.:     0.0625275 α      in ANC's #3, #1, #2, ...

........................................................................
.............................. CYCLE   40 ..............................
........................................................................

 iter      E             dE          RMSdq      gap      omega  full diag
   1    -52.0819978 -0.520820E+02  0.215E-02    3.86       0.0  T
   2    -52.0819978 -0.470293E-07  0.126E-02    3.86       1.2  T
   3    -52.0819978  0.178336E-07  0.112E-03    3.87      13.8  T
   4    -52.0819978 -0.355282E-07  0.417E-04    3.86      37.0  T
   5    -52.0819979 -0.236251E-08  0.210E-04    3.86      73.5  T
     SCC iter.                  ...        0 min,  0.009 sec
     gradient                   ...        0 min,  0.004 sec
 * total energy  :   -51.3797089 Eh     change       -0.2566978E-05 Eh
   gradient norm :     0.0004175 Eh/α   predicted    -0.1422120E-05 ( -44.60%)
   displ. norm   :     0.0685117 α      lambda       -0.1845073E-05
   maximum displ.:     0.0428849 α      in ANC's #3, #1, #2, ...

   *** GEOMETRY OPTIMIZATION CONVERGED AFTER 40 ITERATIONS ***

------------------------------------------------------------------------
 total energy gain   :        -0.0375378 Eh      -23.5553 kcal/mol
 total RMSD          :         0.8001238 a0        0.4234 Å
 total power (kW/mol):        -2.4638877 (step) -115.7520 (real)
------------------------------------------------------------------------

 ANCopt (total)                0 d,  0 h,  0 min,  0.851 sec
 optimizer setup                ...        0 min,  0.000 sec (  0.014%)
 model hessian                  ...        0 min,  0.057 sec (  6.680%)
 ANC generation                 ...        0 min,  0.013 sec (  1.526%)
 coordinate transformation      ...        0 min,  0.001 sec (  0.082%)
 single point calculation       ...        0 min,  0.734 sec ( 86.155%)
 optimization log               ...        0 min,  0.028 sec (  3.298%)
 hessian update                 ...        0 min,  0.008 sec (  0.956%)
 rational function              ...        0 min,  0.006 sec (  0.659%)

================
 final structure:
================
42
 xtb: 6.7.1 (edcfbbe)
C            5.04527547627043       -1.69735772755955        1.25552921203431
C            5.03916158530611       -0.21930960881260        0.87270996534506
C            6.29515925020327        0.11116091326727        0.06777883638797
C            3.78950460312272        0.15459316205155        0.06758400577696
C            2.49715032217448        0.10937761052712        0.88012658386204
C            1.29964576119667        0.59255229966805        0.06448016412394
C            0.00877811121121        0.55836490309951        0.87977736137078
C           -1.19577341560211        1.12778328986755        0.13143823356302
C           -1.61361609353914        0.27971803429802       -1.06843342528913
C           -2.94098301517059        0.75254823116648       -1.65751998196784
O           -4.00581762385872        0.64436240042190       -0.71673158022232
C           -4.56443779155406       -0.56412066190050       -0.57113611278868
O           -4.23298502892723       -1.53588507502064       -1.20640984154769
C           -5.64386498361924       -0.55564185336887        0.45459977116295
C           -5.91448624892935        0.73261020838083        1.16232880143807
C           -6.30191686009816       -1.68748117239276        0.68294979994458
H            5.95579443383727       -1.94308115965254        1.79775820063862
H            5.00017999326400       -2.31880583879614        0.36337542480060
H            4.19837862260123       -1.94259088545979        1.89056324082986
H            5.04965064060513        0.37889496588269        1.79135893561490
H            6.31277873938069       -0.46192117345047       -0.85714623475245
H            6.32529733965502        1.16909611036544       -0.18385689356241
H            7.18971850112490       -0.13043507925686        0.63748538345366
H            3.70229824890880       -0.51662017837211       -0.79025450321537
H            3.91713175658595        1.16850841339909       -0.32079757601174
H            2.60770375041911        0.73864700148966        1.76689184336750
H            2.30451033259635       -0.90994292994050        1.21832208025509
H            1.48283591677280        1.61465536090133       -0.27607961180858
H            1.19499974811976       -0.03956400264354       -0.81884834423403
H           -0.20495803254449       -0.47131053538533        1.17593016597505
H            0.15670146323273        1.13933769380510        1.79375399310030
H           -0.96864384738574        2.14244588700388       -0.20485087731267
H           -2.04047873605349        1.18946866829849        0.82168534078030
H           -1.72128264711245       -0.76354544719632       -0.76517149649240
H           -0.86055551406171        0.33029586047920       -1.85516527142221
H           -2.89767254420028        1.81253079494465       -1.91756667326056
H           -3.18936420233980        0.15848420494401       -2.54346338565028
H           -6.19055936258212        1.50357017829760        0.44504543098484
H           -5.01878835089514        1.07313772999525        1.67907466916556
H           -6.71796369331759        0.60949807577241        1.88358761375062
H           -6.05534003842656       -2.58104563461629        0.13443011988605
H           -7.09316556637121       -1.75298103450055        1.41003563192640
 
 Bond Distances (Angstroems)
 ---------------------------
C1-C2=1.5268         C1-H17=1.0879        C1-H18=1.0882        C1-H19=1.0866        C2-C1=1.5268         C2-C3=1.5280         
C2-C4=1.5329         C2-H20=1.0963        C3-C2=1.5280         C3-H21=1.0882        C3-H22=1.0879        C3-H23=1.0877        
C4-C2=1.5329         C4-C5=1.5272         C4-H24=1.0927        C4-H25=1.0932        C5-C4=1.5272         C5-C6=1.5273         
C5-H26=1.0930        C5-H27=1.0911        C6-C5=1.5273         C6-C7=1.5272         C6-H28=1.0928        C6-H29=1.0912        
C7-C6=1.5272         C7-C8=1.5281         C7-H30=1.0925        C7-H31=1.0931        C8-C7=1.5281         C8-C9=1.5276         
C8-H32=1.0928        C8-H33=1.0926        C9-C8=1.5276         C9-C10=1.5273        C9-H34=1.0918        C9-H35=1.0902        
C10-C9=1.5273        C10-O11=1.4250       C10-H36=1.0923       C10-H37=1.0952       O11-C10=1.4250       O11-C12=1.3393       
C12-O11=1.3393       C12-O13=1.2074       C12-C14=1.4891       O13-C12=1.2074       C14-C12=1.4891       C14-C15=1.4946       
C14-C16=1.3290       C15-C14=1.4946       C15-H38=1.0886       C15-H39=1.0887       C15-H40=1.0867       C16-C14=1.3290       
C16-H41=1.0771       C16-H42=1.0766       H17-C1=1.0879        H18-C1=1.0882        H19-C1=1.0866        H20-C2=1.0963        
H21-C3=1.0882        H22-C3=1.0879        H23-C3=1.0877        H24-C4=1.0927        H25-C4=1.0932        H26-C5=1.0930        
H27-C5=1.0911        H28-C6=1.0928        H29-C6=1.0912        H30-C7=1.0925        H31-C7=1.0931        H32-C8=1.0928        
H33-C8=1.0926        H34-C9=1.0918        H35-C9=1.0902        H36-C10=1.0923       H37-C10=1.0952       H38-C15=1.0886       
H39-C15=1.0887       H40-C15=1.0867       H41-C16=1.0771       H42-C16=1.0766       
 C  H  Rav=1.0898 sigma=0.0045  Rmin=1.0766  Rmax=1.0963    26
 C  C  Rav=1.5054 sigma=0.0549  Rmin=1.3290  Rmax=1.5329    12
 O  C  Rav=1.3239 sigma=0.0895  Rmin=1.2074  Rmax=1.4250     3
 
 selected bond angles (degree)
 --------------------
H17-C1-C2=110.30               H18-C1-C2=110.31               H18-C1-H17=108.32              H19-C1-C2=111.22               
H19-C1-H17=108.06              H19-C1-H18=108.54              C3-C2-C1=109.77                C4-C2-C1=111.78                
C4-C2-C3=109.92                H20-C2-C1=108.55               H20-C2-C3=108.39               H20-C2-C4=108.35               
H21-C3-C2=110.31               H22-C3-C2=110.79               H22-C3-H21=108.37              H23-C3-C2=110.61               
H23-C3-H21=108.35              H23-C3-H22=108.32              C5-C4-C2=113.78                H24-C4-C2=109.12               
H24-C4-C5=109.39               H25-C4-C2=108.52               H25-C4-C5=108.38               H25-C4-H24=107.46              
C6-C5-C4=111.71                H26-C5-C4=109.21               H26-C5-C6=109.30               H27-C5-C4=110.00               
H27-C5-C6=108.82               H27-C5-H26=107.71              C7-C6-C5=111.75                H28-C6-C5=109.32               
H28-C6-C7=109.21               H29-C6-C5=108.92               H29-C6-C7=109.76               H29-C6-H28=107.79              
C8-C7-C6=113.36                H30-C7-C6=109.34               H30-C7-C8=109.25               H31-C7-C6=108.67               
H31-C7-C8=108.55               H31-C7-H30=107.50              C9-C8-C7=113.17                H32-C8-C7=109.44               
H32-C8-C9=109.31               H33-C8-C7=108.73               H33-C8-C9=108.43               H33-C8-H32=107.62              
C10-C9-C8=111.64               H34-C9-C8=109.83               H34-C9-C10=108.50              H35-C9-C8=110.62               
H35-C9-C10=107.92              H35-C9-H34=108.23              O11-C10-C9=111.80              H36-C10-C9=110.97              
H36-C10-O11=105.10             H37-C10-C9=109.95              H37-C10-O11=108.87             H37-C10-H36=110.05             
 
 selected dihedral angles (degree)
 ---------------------------------
C3-C2-C1-H17= 55.97           C3-C2-C1-H18=296.35           C3-C2-C1-H19=175.86           C4-C2-C1-H17=178.21           
C4-C2-C1-H18= 58.59           C4-C2-C1-H19=298.10           H20-C2-C1-H17=297.66          H20-C2-C1-H18=178.04          
H20-C2-C1-H19= 57.55          H21-C3-C2-C1= 62.01           H21-C3-C2-C4=298.67           H21-C3-C2-H20=180.42          
H22-C3-C2-C1=182.01           H22-C3-C2-C4= 58.67           H22-C3-C2-H20=300.41          H23-C3-C2-C1=302.15           
H23-C3-C2-C4=178.81           H23-C3-C2-H20= 60.55          C5-C4-C2-C1= 68.73            C5-C4-C2-C3=190.88            
C5-C4-C2-H20=309.16           H24-C4-C2-C1=306.27           H24-C4-C2-C3= 68.42           H24-C4-C2-H20=186.70          
H25-C4-C2-C1=189.45           H25-C4-C2-C3=311.60           H25-C4-C2-H20= 69.89          C6-C5-C4-C2=175.61            
C6-C5-C4-H24=297.92           C6-C5-C4-H25= 54.80           H26-C5-C4-C2= 54.58           H26-C5-C4-H24=176.89          
H26-C5-C4-H25=293.77          H27-C5-C4-C2=296.57           H27-C5-C4-H24= 58.88          H27-C5-C4-H25=175.76          
C7-C6-C5-C4=180.46            C7-C6-C5-H26=301.44           C7-C6-C5-H27= 58.82           H28-C6-C5-C4=301.48           
H28-C6-C5-H26= 62.45          H28-C6-C5-H27=179.83          H29-C6-C5-C4= 59.02           H29-C6-C5-H26=180.00          
H29-C6-C5-H27=297.38          C8-C7-C6-C5=175.90            C8-C7-C6-H28= 54.82           C8-C7-C6-H29=296.85           
H30-C7-C6-C5=298.06           H30-C7-C6-H28=176.98          H30-C7-C6-H29= 59.01          H31-C7-C6-C5= 55.13           
H31-C7-C6-H28=294.05          H31-C7-C6-H29=176.07          C9-C8-C7-C6= 66.86            C9-C8-C7-H30=304.65           
C9-C8-C7-H31=187.70           H32-C8-C7-C6=304.69           H32-C8-C7-H30=182.49          H32-C8-C7-H31= 65.54          
H33-C8-C7-C6=187.40           H33-C8-C7-H30= 65.19          H33-C8-C7-H31=308.24          C10-C9-C8-C7=171.09           
C10-C9-C8-H32=293.33          C10-C9-C8-H33= 50.38          H34-C9-C8-C7= 50.69           H34-C9-C8-H32=172.94          
H34-C9-C8-H33=289.99          H35-C9-C8-C7=291.28           H35-C9-C8-H32= 53.52          H35-C9-C8-H33=170.57          
O11-C10-C9-C8=298.29          O11-C10-C9-H34= 59.46         O11-C10-C9-H35=176.52         H36-C10-C9-C8= 55.26          
H36-C10-C9-H34=176.44         H36-C10-C9-H35=293.50         H37-C10-C9-C8=177.24          H37-C10-C9-H34=298.42         
H37-C10-C9-H35= 55.48         
           -------------------------------------------------
          |                Final Singlepoint                |
           -------------------------------------------------

          ...................................................
          :                      SETUP                      :
          :.................................................:
          :  # basis functions                  90          :
          :  # atomic orbitals                  90          :
          :  # shells                           58          :
          :  # electrons                        94          :
          :  max. iterations                   250          :
          :  Hamiltonian                  GFN2-xTB          :
          :  restarted?                      false          :
          :  GBSA solvation                  false          :
          :  PC potential                    false          :
          :  electronic temp.          300.0000000     K    :
          :  accuracy                    1.0000000          :
          :  -> integral cutoff          0.2500000E+02      :
          :  -> integral neglect         0.1000000E-07      :
          :  -> SCF convergence          0.1000000E-05 Eh   :
          :  -> wf. convergence          0.1000000E-03 e    :
          :  Broyden damping             0.4000000          :
          :  net charge                          0          :
          :  unpaired electrons                  0          :
          ...................................................

 iter      E             dE          RMSdq      gap      omega  full diag
   1    -52.0819979 -0.520820E+02  0.589E-05    3.86       0.0  T
   2    -52.0819979 -0.215152E-10  0.366E-05    3.86     421.6  T
   3    -52.0819979 -0.236611E-11  0.251E-05    3.86     613.9  T

   *** convergence criteria satisfied after 3 iterations ***

         #    Occupation            Energy/Eh            Energy/eV
      -------------------------------------------------------------
         1        2.0000           -0.7369556             -20.0536
       ...           ...                  ...                  ...
        41        2.0000           -0.4290042             -11.6738
        42        2.0000           -0.4222887             -11.4911
        43        2.0000           -0.4203596             -11.4386
        44        2.0000           -0.4169401             -11.3455
        45        2.0000           -0.4162622             -11.3271
        46        2.0000           -0.4146658             -11.2836
        47        2.0000           -0.4076882             -11.0938 (HOMO)
        48                         -0.2656573              -7.2289 (LUMO)
        49                         -0.1593772              -4.3369
        50                          0.0129915               0.3535
        51                          0.0443461               1.2067
        52                          0.0722661               1.9665
       ...                                ...                  ...
        90                          0.7020823              19.1046
      -------------------------------------------------------------
                  HL-Gap            0.1420310 Eh            3.8649 eV
             Fermi-level           -0.3366728 Eh           -9.1613 eV

 SCC (total)                   0 d,  0 h,  0 min,  0.014 sec
 SCC setup                      ...        0 min,  0.001 sec (  9.855%)
 Dispersion                     ...        0 min,  0.000 sec (  1.304%)
 classical contributions        ...        0 min,  0.000 sec (  1.171%)
 integral evaluation            ...        0 min,  0.001 sec (  5.647%)
 iterations                     ...        0 min,  0.006 sec ( 40.399%)
 molecular gradient             ...        0 min,  0.004 sec ( 31.305%)
 printout                       ...        0 min,  0.001 sec ( 10.146%)

         :::::::::::::::::::::::::::::::::::::::::::::::::::::
         ::                     SUMMARY                     ::
         :::::::::::::::::::::::::::::::::::::::::::::::::::::
         :: total energy             -51.379708872014 Eh    ::
         :: gradient norm              0.000417988133 Eh/a0 ::
         :: HOMO-LUMO gap              3.864858877609 eV    ::
         ::.................................................::
         :: SCC energy               -52.082025095027 Eh    ::
         :: -> isotropic ES            0.050372780694 Eh    ::
         :: -> anisotropic ES          0.009222226263 Eh    ::
         :: -> anisotropic XC          0.022715988488 Eh    ::
         :: -> dispersion             -0.030626006298 Eh    ::
         :: repulsion energy           0.702316223013 Eh    ::
         :: add. restraining           0.000000000000 Eh    ::
         :: total charge              -0.000000000000 e     ::
         :::::::::::::::::::::::::::::::::::::::::::::::::::::

           -------------------------------------------------
          |                Property Printout                |
           -------------------------------------------------

    * Orbital Energies and Occupations

         #    Occupation            Energy/Eh            Energy/eV
      -------------------------------------------------------------
         1        2.0000           -0.7369556             -20.0536
       ...           ...                  ...                  ...
        35        2.0000           -0.4518757             -12.2962
        36        2.0000           -0.4503146             -12.2537
        37        2.0000           -0.4465002             -12.1499
        38        2.0000           -0.4423601             -12.0372
        39        2.0000           -0.4381640             -11.9230
        40        2.0000           -0.4326588             -11.7732
        41        2.0000           -0.4290042             -11.6738
        42        2.0000           -0.4222887             -11.4911
        43        2.0000           -0.4203596             -11.4386
        44        2.0000           -0.4169401             -11.3455
        45        2.0000           -0.4162622             -11.3271
        46        2.0000           -0.4146658             -11.2836
        47        2.0000           -0.4076882             -11.0938 (HOMO)
        48                         -0.2656573              -7.2289 (LUMO)
        49                         -0.1593772              -4.3369
        50                          0.0129915               0.3535
        51                          0.0443461               1.2067
        52                          0.0722661               1.9665
        53                          0.0958589               2.6085
        54                          0.0979733               2.6660
        55                          0.1030363               2.8038
        56                          0.1064756               2.8973
        57                          0.1156267               3.1464
        58                          0.1222579               3.3268
       ...                                ...                  ...
        90                          0.7020823              19.1046
      -------------------------------------------------------------
                  HL-Gap            0.1420310 Eh            3.8649 eV
             Fermi-level           -0.3366728 Eh           -9.1613 eV

     #   Z          covCN         q      C6AA      α(0)
     1   6 C        3.756    -0.106    22.579     6.775
     2   6 C        3.849    -0.010    20.721     6.475
     3   6 C        3.757    -0.106    22.586     6.776
     4   6 C        3.806    -0.063    21.714     6.634
     5   6 C        3.802    -0.058    21.618     6.620
     6   6 C        3.802    -0.060    21.652     6.625
     7   6 C        3.802    -0.059    21.631     6.622
     8   6 C        3.802    -0.058    21.615     6.619
     9   6 C        3.800    -0.065    21.742     6.639
    10   6 C        3.703     0.076    19.454     6.306
    11   8 O        1.704    -0.264    18.371     5.787
    12   6 C        2.731     0.351    21.033     7.508
    13   8 O        0.856    -0.419    22.072     6.299
    14   6 C        2.938    -0.010    28.265     8.719
    15   6 C        3.757    -0.110    22.662     6.787
    16   6 C        2.849    -0.078    29.947     8.969
    17   1 H        0.925     0.033     2.548     2.496
    18   1 H        0.925     0.035     2.518     2.482
    19   1 H        0.925     0.034     2.535     2.490
    20   1 H        0.924     0.026     2.646     2.544
    21   1 H        0.925     0.035     2.521     2.483
    22   1 H        0.925     0.031     2.569     2.507
    23   1 H        0.925     0.034     2.532     2.488
    24   1 H        0.924     0.032     2.564     2.504
    25   1 H        0.924     0.030     2.589     2.516
    26   1 H        0.924     0.028     2.622     2.532
    27   1 H        0.924     0.032     2.562     2.503
    28   1 H        0.924     0.029     2.598     2.521
    29   1 H        0.924     0.032     2.559     2.502
    30   1 H        0.924     0.032     2.560     2.502
    31   1 H        0.924     0.031     2.570     2.507
    32   1 H        0.924     0.033     2.549     2.497
    33   1 H        0.924     0.037     2.484     2.465
    34   1 H        0.924     0.055     2.258     2.350
    35   1 H        0.924     0.042     2.422     2.434
    36   1 H        0.924     0.051     2.303     2.373
    37   1 H        0.924     0.054     2.275     2.358
    38   1 H        0.925     0.060     2.198     2.318
    39   1 H        0.925     0.058     2.217     2.329
    40   1 H        0.925     0.051     2.312     2.378
    41   1 H        0.926     0.071     2.079     2.255
    42   1 H        0.926     0.056     2.251     2.346

 Mol. C6AA /au·bohr⁶  :      13453.042357
 Mol. C8AA /au·bohr⁸  :     290147.307567
 Mol. α(0) /au        :        173.838255


Wiberg/Mayer (AO) data.
largest (>0.10) Wiberg bond orders for each atom

 ---------------------------------------------------------------------------
     #   Z sym  total        # sym  WBO       # sym  WBO       # sym  WBO
 ---------------------------------------------------------------------------
     1   6 C    3.997 --     2 C    1.010    18 H    0.987    17 H    0.986
                            19 H    0.985
     2   6 C    3.996 --     1 C    1.010     3 C    1.008     4 C    0.996
                            20 H    0.969
     3   6 C    3.996 --     2 C    1.008    21 H    0.987    22 H    0.987
                            23 H    0.987
     4   6 C    3.997 --     5 C    1.008     2 C    0.996    24 H    0.977
                            25 H    0.976
     5   6 C    3.997 --     4 C    1.008     6 C    1.006    26 H    0.977
                            27 H    0.975
     6   6 C    3.997 --     7 C    1.008     5 C    1.006    28 H    0.977
                            29 H    0.976
     7   6 C    3.997 --     6 C    1.008     8 C    1.007    30 H    0.977
                            31 H    0.977
     8   6 C    3.996 --     9 C    1.008     7 C    1.007    32 H    0.977
                            33 H    0.976
     9   6 C    3.992 --     8 C    1.008    10 C    0.997    34 H    0.974
                            35 H    0.973
    10   6 C    3.929 --     9 C    0.997    36 H    0.972    37 H    0.968
                            11 O    0.943
    11   8 O    2.311 --    12 C    1.126    10 C    0.943    13 O    0.171
    12   6 C    3.918 --    13 O    1.722    11 O    1.126    14 C    0.993
    13   8 O    2.030 --    12 C    1.722    11 O    0.171
    14   6 C    3.987 --    16 C    1.878    15 C    1.030    12 C    0.993
    15   6 C    3.995 --    14 C    1.030    40 H    0.984    39 H    0.969
                            38 H    0.968
    16   6 C    3.985 --    14 C    1.878    42 H    0.975    41 H    0.971
    17   1 H    0.999 --     1 C    0.986
    18   1 H    0.999 --     1 C    0.987
    19   1 H    0.999 --     1 C    0.985
    20   1 H    0.999 --     2 C    0.969
    21   1 H    0.999 --     3 C    0.987
    22   1 H    0.999 --     3 C    0.987
    23   1 H    0.999 --     3 C    0.987
    24   1 H    0.999 --     4 C    0.977
    25   1 H    0.999 --     4 C    0.976
    26   1 H    0.999 --     5 C    0.977
    27   1 H    0.999 --     5 C    0.975
    28   1 H    0.999 --     6 C    0.977
    29   1 H    0.999 --     6 C    0.976
    30   1 H    0.999 --     7 C    0.977
    31   1 H    0.999 --     7 C    0.977
    32   1 H    0.999 --     8 C    0.977
    33   1 H    0.998 --     8 C    0.976
    34   1 H    0.997 --     9 C    0.974
    35   1 H    0.998 --     9 C    0.973
    36   1 H    0.997 --    10 C    0.972
    37   1 H    0.997 --    10 C    0.968
    38   1 H    0.996 --    15 C    0.968
    39   1 H    0.997 --    15 C    0.969
    40   1 H    0.997 --    15 C    0.984
    41   1 H    0.995 --    16 C    0.971
    42   1 H    0.996 --    16 C    0.975
 ---------------------------------------------------------------------------

Topologies differ in total number of bonds
Writing topology from bond orders to xtbtopo.mol

molecular dipole:
                 x           y           z       tot (Debye)
 q only:        0.064       0.712       0.454
   full:        0.020       0.807       0.434       2.329
molecular quadrupole (traceless):
                xx          xy          yy          xz          yz          zz
 q only:        4.864      -6.940      -4.072      -9.222      -4.162      -0.793
  q+dip:        3.221      -7.258      -3.065      -9.268      -4.230      -0.156
   full:        4.565      -7.931      -4.584      -8.398      -4.893       0.019

           -------------------------------------------------
          |                Geometry Summary                 |
           -------------------------------------------------

      molecular mass/u    :      226.3555719
   center of mass at/Å    :       -0.7498287      -0.0738807       0.0718951
  moments of inertia/u·Å² :        0.3839581E+03   0.4140102E+04   0.4199334E+04
rotational constants/cm⁻¹ :        0.4390487E-01   0.4071791E-02   0.4014359E-02

 * 39 selected distances

     #   Z          #   Z                                           value/Å
     1   6 C        2   6 C                                       1.5268316
     2   6 C        3   6 C                                       1.5279579
     2   6 C        4   6 C                                       1.5328647 (max)
     4   6 C        5   6 C                                       1.5272360
     5   6 C        6   6 C                                       1.5273357
     6   6 C        7   6 C                                       1.5271601
     7   6 C        8   6 C                                       1.5281340
     8   6 C        9   6 C                                       1.5275797
     9   6 C       10   6 C                                       1.5272507
    10   6 C       11   8 O                                       1.4250123
    11   8 O       12   6 C                                       1.3392857
    12   6 C       13   8 O                                       1.2073773
    14   6 C       16   6 C                                       1.3289983
     1   6 C       17   1 H                                       1.0878590
     1   6 C       18   1 H                                       1.0881957
     1   6 C       19   1 H                                       1.0865735
     2   6 C       20   1 H                                       1.0963005
     3   6 C       21   1 H                                       1.0882188
     3   6 C       22   1 H                                       1.0878676
     3   6 C       23   1 H                                       1.0877365
     4   6 C       24   1 H                                       1.0927120
     4   6 C       25   1 H                                       1.0932307
     5   6 C       26   1 H                                       1.0929569
     5   6 C       27   1 H                                       1.0911008
     6   6 C       28   1 H                                       1.0928104
     6   6 C       29   1 H                                       1.0912338
     7   6 C       30   1 H                                       1.0925298
     7   6 C       31   1 H                                       1.0930527
     8   6 C       32   1 H                                       1.0928031
     8   6 C       33   1 H                                       1.0925994
     9   6 C       34   1 H                                       1.0917687
     9   6 C       35   1 H                                       1.0902319
    10   6 C       36   1 H                                       1.0922744
    10   6 C       37   1 H                                       1.0952174
    15   6 C       38   1 H                                       1.0886190
    15   6 C       39   1 H                                       1.0886966
    15   6 C       40   1 H                                       1.0867139
    16   6 C       41   1 H                                       1.0770941
    16   6 C       42   1 H                                       1.0765773 (min)

 * 3 distinct bonds (by element types)

   Z      Z             #   av. dist./Å        max./Å        min./Å
   1 H    6 C          26     1.0898067     1.0963005     1.0765773
   6 C    6 C          10     1.5081349     1.5328647     1.3289983
   6 C    8 O           3     1.3238918     1.4250123     1.2073773


optimized geometry written to: xtbopt.xyz


           -------------------------------------------------
          | TOTAL ENERGY              -51.379708872014 Eh   |
          | GRADIENT NORM               0.000417988133 Eh/α |
          | HOMO-LUMO GAP               3.864858877609 eV   |
           -------------------------------------------------

------------------------------------------------------------------------
 * finished run on 2025/12/01 at 14:17:33.989     
------------------------------------------------------------------------
 total:
 * wall-time:     0 d,  0 h,  0 min,  0.940 sec
 *  cpu-time:     0 d,  0 h,  0 min, 21.151 sec
 * ratio c/w:    22.502 speedup
 SCF:
 * wall-time:     0 d,  0 h,  0 min,  0.055 sec
 *  cpu-time:     0 d,  0 h,  0 min,  1.201 sec
 * ratio c/w:    22.013 speedup
 ANC optimizer:
 * wall-time:     0 d,  0 h,  0 min,  0.867 sec
 *  cpu-time:     0 d,  0 h,  0 min, 19.773 sec
 * ratio c/w:    22.812 speedup

normal termination of xtb
