      -----------------------------------------------------------      
     |                   =====================                   |     
     |                           x T B                           |     
     |                   =====================                   |     
     |                         S. Grimme                         |     
     |          Mulliken Center for Theoretical Chemistry        |     
     |                    University of Bonn                     |     
      -----------------------------------------------------------      

   * xtb version 6.7.1 (edcfbbe) compiled by 'albert@albert-system' on 2024-07-22

   xtb is free software: you can redistribute it and/or modify it under
   the terms of the GNU Lesser General Public License as published by
   the Free Software Foundation, either version 3 of the License, or
   (at your option) any later version.
   
   xtb is distributed in the hope that it will be useful,
   but WITHOUT ANY WARRANTY; without even the implied warranty of
   MERCHANTABILITY or FITNESS FOR A PARTICULAR PURPOSE.  See the
   GNU Lesser General Public License for more details.
   
   Cite this work as:
   * C. Bannwarth, E. Caldeweyher, S. Ehlert, A. Hansen, P. Pracht,
     J. Seibert, S. Spicher, S. Grimme, WIREs Comput. Mol. Sci., 2020, 11,
     e01493. DOI: 10.1002/wcms.1493
   
   for GFN2-xTB:
   * C. Bannwarth, S. Ehlert and S. Grimme., J. Chem. Theory Comput., 2019,
     15, 1652-1671. DOI: 10.1021/acs.jctc.8b01176
   for GFN1-xTB:
   * S. Grimme, C. Bannwarth, P. Shushkov, J. Chem. Theory Comput., 2017,
     13, 1989-2009. DOI: 10.1021/acs.jctc.7b00118
   for GFN0-xTB:
   * P. Pracht, E. Caldeweyher, S. Ehlert, S. Grimme, ChemRxiv, 2019, preprint.
     DOI: 10.26434/chemrxiv.8326202.v1
   for GFN-FF:
   * S. Spicher and S. Grimme, Angew. Chem. Int. Ed., 2020, 59, 15665-15673.
     DOI: 10.1002/anie.202004239
   
   for ALPB and GBSA implicit solvation:
   * S. Ehlert, M. Stahn, S. Spicher, S. Grimme, J. Chem. Theory Comput.,
     2021, 17, 4250-4261. DOI: 10.1021/acs.jctc.1c00471
   
   for ddCOSMO and CPCM-X implicit solvation:
   * M. Stahn, S. Ehlert, S. Grimme, J. Phys. Chem. A,
     2023, XX, XXXX-XXXX. DOI: 10.1021/acs.jpca.3c04382
   
   for DFT-D4:
   * E. Caldeweyher, C. Bannwarth and S. Grimme, J. Chem. Phys., 2017,
     147, 034112. DOI: 10.1063/1.4993215
   * E. Caldeweyher, S. Ehlert, A. Hansen, H. Neugebauer, S. Spicher,
     C. Bannwarth and S. Grimme, J. Chem. Phys., 2019, 150, 154122.
     DOI: 10.1063/1.5090222
   * E. Caldeweyher, J.-M. Mewes, S. Ehlert and S. Grimme, Phys. Chem. Chem. Phys.
     2020, 22, 8499-8512. DOI: 10.1039/D0CP00502A
   
   for sTDA-xTB:
   * S. Grimme and C. Bannwarth, J. Chem. Phys., 2016, 145, 054103.
     DOI: 10.1063/1.4959605
   
   in the mass-spec context:
   * V. Asgeirsson, C. Bauer and S. Grimme, Chem. Sci., 2017, 8, 4879.
     DOI: 10.1039/c7sc00601b
   * J. Koopman and S. Grimme, ACS Omega 2019, 4, 12, 15120-15133.
     DOI: 10.1021/acsomega.9b02011
   
   for metadynamics refer to:
   * S. Grimme, J. Chem. Theory Comput., 2019, 155, 2847-2862
     DOI: 10.1021/acs.jctc.9b00143
   
   for SPH calculations refer to:
   * S. Spicher and S. Grimme, J. Chem. Theory Comput., 2021, 17, 1701-1714
     DOI: 10.1021/acs.jctc.0c01306
   
   for ONIOM refer to:
   * C. Plett, A. Katbashev, S. Ehlert, S. Grimme, M. Bursch,
     Phys. Chem. Chem. Phys., 2023, 25, 17860-17868. DOI: 10.1039/D3CP02178E
   
   for DIPRO refer to:
   * J. Kohn, N. Gildemeister, S. Grimme, D. Fazzi, A. Hansen,
     J. Chem. Phys., 2023, just accepted.
   
   for PTB refer to:
   * S. Grimme, M. Mueller, A. Hansen, J. Chem. Phys., 2023, 158, 124111.
     DOI: 10.1063/5.0137838
   
   with help from (in alphabetical order)
   P. Atkinson, C. Bannwarth, F. Bohle, G. Brandenburg, E. Caldeweyher
   M. Checinski, S. Dohm, S. Ehlert, S. Ehrlich, I. Gerasimov, C. Hölzer
   A. Katbashev, J. Kohn, J. Koopman, C. Lavigne, S. Lehtola, F. März, M. Müller,
   F. Musil, H. Neugebauer, J. Pisarek, C. Plett, P. Pracht, F. Pultar,
   J. Seibert, P. Shushkov, S. Spicher, M. Stahn, M. Steiner, T. Strunk,
   J. Stückrath, T. Rose, and J. Unsleber
   
 * started run on 2025/12/01 at 14:17:29.800     
   ID    Z sym.   atoms
    1    6 C      1-10, 12, 14-16
    2    8 O      11, 13
    3    1 H      17-42

           -------------------------------------------------
          |                Calculation Setup                |
           -------------------------------------------------

          program call               : xtb pipeline_data/3_conformer_xyz/acrylates/rdkit/COCLLEMEIJQBAG-UHFFFAOYSA-N_conf47.xyz --opt --gfn 2-xTB --iterations 250
          coordinate file            : pipeline_data/3_conformer_xyz/acrylates/rdkit/COCLLEMEIJQBAG-UHFFFAOYSA-N_conf47.xyz
          omp threads                :                    24

########################################################################
[WARNING] Please study the warnings concerning your input carefully
-1- readin_getIntValue: could not parse '2-xTB'
########################################################################

           -------------------------------------------------
          |                 G F N 2 - x T B                 |
           -------------------------------------------------

        Reference                      10.1021/acs.jctc.8b01176
      * Hamiltonian:
        H0-scaling (s, p, d)           1.850000    2.230000    2.230000
        zeta-weighting                 0.500000
      * Dispersion:
        s8                             2.700000
        a1                             0.520000
        a2                             5.000000
        s9                             5.000000
      * Repulsion:
        kExp                           1.500000    1.000000
        rExp                           1.000000
      * Coulomb:
        alpha                          2.000000
        third order                    shell-resolved
        anisotropic                    true
        a3                             3.000000
        a5                             4.000000
        cn-shift                       1.200000
        cn-exp                         4.000000
        max-rad                        5.000000


          ...................................................
          :                      SETUP                      :
          :.................................................:
          :  # basis functions                  90          :
          :  # atomic orbitals                  90          :
          :  # shells                           58          :
          :  # electrons                        94          :
          :  max. iterations                   250          :
          :  Hamiltonian                  GFN2-xTB          :
          :  restarted?                      false          :
          :  GBSA solvation                  false          :
          :  PC potential                    false          :
          :  electronic temp.          300.0000000     K    :
          :  accuracy                    1.0000000          :
          :  -> integral cutoff          0.2500000E+02      :
          :  -> integral neglect         0.1000000E-07      :
          :  -> SCF convergence          0.1000000E-05 Eh   :
          :  -> wf. convergence          0.1000000E-03 e    :
          :  Broyden damping             0.4000000          :
          :  net charge                          0          :
          :  unpaired electrons                  0          :
          ...................................................

 iter      E             dE          RMSdq      gap      omega  full diag
   1    -51.8693284 -0.518693E+02  0.373E+00    4.01       0.0  T
   2    -51.9955859 -0.126258E+00  0.205E+00    3.15       1.0  T
   3    -51.9970452 -0.145933E-02  0.108E+00    3.63       1.0  T
   4    -52.0003000 -0.325472E-02  0.371E-01    3.41       1.0  T
   5    -52.0039423 -0.364230E-02  0.145E-01    3.41       1.0  T
   6    -52.0044976 -0.555301E-03  0.618E-02    3.46       1.0  T
   7    -52.0045154 -0.178774E-04  0.130E-02    3.45       1.2  T
   8    -52.0045170 -0.158076E-05  0.535E-03    3.45       2.9  T
   9    -52.0045172 -0.168395E-06  0.172E-03    3.45       9.0  T
  10    -52.0045172 -0.158299E-07  0.842E-04    3.45      18.3  T
  11    -52.0045172 -0.332234E-08  0.173E-04    3.45      89.4  T

   *** convergence criteria satisfied after 11 iterations ***

         #    Occupation            Energy/Eh            Energy/eV
      -------------------------------------------------------------
         1        2.0000           -0.7269727             -19.7819
       ...           ...                  ...                  ...
        41        2.0000           -0.4281870             -11.6516
        42        2.0000           -0.4275167             -11.6333
        43        2.0000           -0.4253528             -11.5744
        44        2.0000           -0.4187621             -11.3951
        45        2.0000           -0.4182856             -11.3821
        46        2.0000           -0.4115383             -11.1985
        47        2.0000           -0.4059693             -11.0470 (HOMO)
        48                         -0.2790824              -7.5942 (LUMO)
        49                         -0.1614745              -4.3939
        50                         -0.0282712              -0.7693
        51                          0.0628171               1.7093
        52                          0.0728918               1.9835
       ...                                ...                  ...
        90                          0.6441889              17.5293
      -------------------------------------------------------------
                  HL-Gap            0.1268869 Eh            3.4528 eV
             Fermi-level           -0.3425258 Eh           -9.3206 eV

 SCC (total)                   0 d,  0 h,  0 min,  0.040 sec
 SCC setup                      ...        0 min,  0.001 sec (  1.954%)
 Dispersion                     ...        0 min,  0.001 sec (  2.447%)
 classical contributions        ...        0 min,  0.000 sec (  1.224%)
 integral evaluation            ...        0 min,  0.003 sec (  6.549%)
 iterations                     ...        0 min,  0.031 sec ( 77.018%)
 molecular gradient             ...        0 min,  0.004 sec (  9.779%)
 printout                       ...        0 min,  0.000 sec (  0.930%)

         :::::::::::::::::::::::::::::::::::::::::::::::::::::
         ::                     SUMMARY                     ::
         :::::::::::::::::::::::::::::::::::::::::::::::::::::
         :: total energy             -51.345502650561 Eh    ::
         :: gradient norm              0.156078443102 Eh/a0 ::
         :: HOMO-LUMO gap              3.452768553699 eV    ::
         ::.................................................::
         :: SCC energy               -52.004795076135 Eh    ::
         :: -> isotropic ES            0.054423206241 Eh    ::
         :: -> anisotropic ES          0.008797996360 Eh    ::
         :: -> anisotropic XC          0.025885124488 Eh    ::
         :: -> dispersion             -0.029425861682 Eh    ::
         :: repulsion energy           0.659292425574 Eh    ::
         :: add. restraining           0.000000000000 Eh    ::
         :: total charge               0.000000000000 e     ::
         :::::::::::::::::::::::::::::::::::::::::::::::::::::

      ----------------------------------------------------------- 
     |                   =====================                   |
     |                        A N C O P T                        |
     |                   =====================                   |
     |               Approximate Normal Coordinate               |
     |                Rational Function Optimizer                |
      ----------------------------------------------------------- 
      ----------------------------------------------------------- 
     |                   =====================                   |
     |                        A N C O P T                        |
     |                   =====================                   |
     |               Approximate Normal Coordinate               |
     |                Rational Function Optimizer                |
      ----------------------------------------------------------- 

          ...................................................
          :                      SETUP                      :
          :.................................................:
          :   optimization level            normal          :
          :   max. optcycles                   200          :
          :   ANC micro-cycles                  20          :
          :   degrees of freedom               120          :
          :.................................................:
          :   RF solver                   davidson          :
          :   write xtbopt.log                true          :
          :   linear?                        false          :
          :   energy convergence         0.5000000E-05 Eh   :
          :   grad. convergence          0.1000000E-02 Eh/α :
          :   maxmium RF displ.          1.0000000          :
          :   Hlow (freq-cutoff)         0.1000000E-01      :
          :   Hmax (freq-cutoff)         5.0000000          :
          :   S6 in model hess.         20.0000000          :
          ...................................................

generating ANC from exact Hessian ...
Using Lindh-Hessian (1995)
 Shifting diagonal of input Hessian by   9.799072246414854E-003
 Lowest  eigenvalues of input Hessian
    0.000000    0.000000    0.000000    0.000000    0.000000    0.000000
    0.010000    0.010159    0.010279    0.010729    0.011111    0.011536
    0.012400    0.013452    0.013811    0.014438    0.015215    0.016921
 Highest eigenvalues
    1.339695    1.412722    1.450566    1.746063    2.014301    2.122688
 

........................................................................
.............................. CYCLE    1 ..............................
........................................................................

 iter      E             dE          RMSdq      gap      omega  full diag
   1    -52.0045172 -0.520045E+02  0.668E-05    3.45       0.0  T
   2    -52.0045172 -0.925837E-11  0.403E-05    3.45     383.3  T
   3    -52.0045172  0.700595E-11  0.234E-05    3.45     660.3  T
     SCC iter.                  ...        0 min,  0.009 sec
     gradient                   ...        0 min,  0.004 sec
 * total energy  :   -51.3455027 Eh     change       -0.2199840E-09 Eh
   gradient norm :     0.1560783 Eh/α   predicted     0.0000000E+00 (-100.00%)
   displ. norm   :     0.4257785 α      lambda       -0.3438944E-01
   maximum displ.:     0.1497717 α      in ANC's #21, #20, #41, ...

........................................................................
.............................. CYCLE    2 ..............................
........................................................................

 iter      E             dE          RMSdq      gap      omega  full diag
   1    -52.0619637 -0.520620E+02  0.310E-01    3.64       0.0  T
   2    -52.0622622 -0.298518E-03  0.186E-01    3.69       1.0  T
   3    -52.0621277  0.134508E-03  0.848E-02    3.68       1.0  T
   4    -52.0622754 -0.147719E-03  0.312E-02    3.69       1.0  T
   5    -52.0623068 -0.313964E-04  0.698E-03    3.68       2.2  T
   6    -52.0623073 -0.542156E-06  0.377E-03    3.69       4.1  T
   7    -52.0623074 -0.621229E-07  0.963E-04    3.69      16.0  T
   8    -52.0623074 -0.373025E-08  0.420E-04    3.69      36.8  T
     SCC iter.                  ...        0 min,  0.021 sec
     gradient                   ...        0 min,  0.004 sec
 * total energy  :   -51.3691667 Eh     change       -0.2366406E-01 Eh
   gradient norm :     0.0633700 Eh/α   predicted    -0.2034371E-01 ( -14.03%)
   displ. norm   :     0.3988801 α      lambda       -0.1017139E-01
   maximum displ.:     0.1972097 α      in ANC's #20, #10, #21, ...

........................................................................
.............................. CYCLE    3 ..............................
........................................................................

 iter      E             dE          RMSdq      gap      omega  full diag
   1    -52.0834164 -0.520834E+02  0.180E-01    3.80       0.0  T
   2    -52.0835382 -0.121819E-03  0.108E-01    3.85       1.0  T
   3    -52.0834781  0.600645E-04  0.602E-02    3.84       1.0  T
   4    -52.0835501 -0.719983E-04  0.194E-02    3.85       1.0  T
   5    -52.0835616 -0.114301E-04  0.376E-03    3.84       4.1  T
   6    -52.0835617 -0.131285E-06  0.189E-03    3.84       8.2  T
   7    -52.0835617 -0.203943E-07  0.566E-04    3.84      27.2  T
   8    -52.0835617 -0.140535E-08  0.242E-04    3.84      63.6  T
     SCC iter.                  ...        0 min,  0.020 sec
     gradient                   ...        0 min,  0.004 sec
 * total energy  :   -51.3754708 Eh     change       -0.6304114E-02 Eh
   gradient norm :     0.0155067 Eh/α   predicted    -0.5894860E-02 (  -6.49%)
   displ. norm   :     0.3413690 α      lambda       -0.2314944E-02
   maximum displ.:     0.2185253 α      in ANC's #10, #20, #8, ...

........................................................................
.............................. CYCLE    4 ..............................
........................................................................

 iter      E             dE          RMSdq      gap      omega  full diag
   1    -52.0805248 -0.520805E+02  0.822E-02    3.86       0.0  T
   2    -52.0805352 -0.104330E-04  0.493E-02    3.87       1.0  T
   3    -52.0805236  0.116175E-04  0.220E-02    3.86       1.0  T
   4    -52.0805363 -0.126883E-04  0.614E-03    3.87       2.5  T
   5    -52.0805374 -0.118154E-05  0.120E-03    3.87      12.9  T
   6    -52.0805374 -0.431202E-08  0.493E-04    3.87      31.3  T
   7    -52.0805374 -0.481862E-09  0.156E-04    3.87      99.2  T
     SCC iter.                  ...        0 min,  0.018 sec
     gradient                   ...        0 min,  0.004 sec
 * total energy  :   -51.3770790 Eh     change       -0.1608181E-02 Eh
   gradient norm :     0.0085065 Eh/α   predicted    -0.1292408E-02 ( -19.64%)
   displ. norm   :     0.3368000 α      lambda       -0.1084869E-02
   maximum displ.:     0.2345002 α      in ANC's #10, #8, #20, ...

........................................................................
.............................. CYCLE    5 ..............................
........................................................................

 iter      E             dE          RMSdq      gap      omega  full diag
   1    -52.0780685 -0.520781E+02  0.536E-02    3.88       0.0  T
   2    -52.0780715 -0.297789E-05  0.323E-02    3.88       1.0  T
   3    -52.0780646  0.685680E-05  0.159E-02    3.87       1.0  T
   4    -52.0780725 -0.781916E-05  0.303E-03    3.88       5.1  T
   5    -52.0780727 -0.233225E-06  0.804E-04    3.88      19.2  T
   6    -52.0780727 -0.134709E-08  0.256E-04    3.88      60.2  T
     SCC iter.                  ...        0 min,  0.019 sec
     gradient                   ...        0 min,  0.004 sec
 * total energy  :   -51.3778252 Eh     change       -0.7462249E-03 Eh
   gradient norm :     0.0060035 Eh/α   predicted    -0.6039736E-03 ( -19.06%)
   displ. norm   :     0.2975860 α      lambda       -0.5557390E-03
   maximum displ.:     0.1887688 α      in ANC's #10, #8, #1, ...

........................................................................
.............................. CYCLE    6 ..............................
........................................................................

 iter      E             dE          RMSdq      gap      omega  full diag
   1    -52.0775548 -0.520776E+02  0.413E-02    3.88       0.0  T
   2    -52.0775553 -0.505873E-06  0.249E-02    3.88       1.0  T
   3    -52.0775524  0.290435E-05  0.965E-03    3.87       1.6  T
   4    -52.0775556 -0.326139E-05  0.126E-03    3.87      12.3  T
   5    -52.0775556 -0.194956E-07  0.564E-04    3.87      27.3  T
   6    -52.0775557 -0.802686E-09  0.146E-04    3.87     105.5  T
     SCC iter.                  ...        0 min,  0.015 sec
     gradient                   ...        0 min,  0.004 sec
 * total energy  :   -51.3782108 Eh     change       -0.3856136E-03 Eh
   gradient norm :     0.0054322 Eh/α   predicted    -0.3024776E-03 ( -21.56%)
   displ. norm   :     0.2749345 α      lambda       -0.3791225E-03
   maximum displ.:     0.1623286 α      in ANC's #8, #10, #1, ...

........................................................................
.............................. CYCLE    7 ..............................
........................................................................

 iter      E             dE          RMSdq      gap      omega  full diag
   1    -52.0785423 -0.520785E+02  0.418E-02    3.87       0.0  T
   2    -52.0785429 -0.600914E-06  0.250E-02    3.87       1.0  T
   3    -52.0785424  0.459541E-06  0.438E-03    3.87       3.5  T
   4    -52.0785429 -0.525693E-06  0.165E-03    3.87       9.3  T
   5    -52.0785430 -0.717211E-07  0.538E-04    3.87      28.7  T
   6    -52.0785430 -0.142470E-08  0.227E-04    3.87      67.9  T
     SCC iter.                  ...        0 min,  0.011 sec
     gradient                   ...        0 min,  0.005 sec
 * total energy  :   -51.3784582 Eh     change       -0.2473703E-03 Eh
   gradient norm :     0.0049055 Eh/α   predicted    -0.2039008E-03 ( -17.57%)
   displ. norm   :     0.2189816 α      lambda       -0.2379169E-03
   maximum displ.:     0.1181881 α      in ANC's #8, #1, #11, ...

........................................................................
.............................. CYCLE    8 ..............................
........................................................................

 iter      E             dE          RMSdq      gap      omega  full diag
   1    -52.0802314 -0.520802E+02  0.360E-02    3.86       0.0  T
   2    -52.0802321 -0.712293E-06  0.214E-02    3.86       1.0  T
   3    -52.0802320  0.714597E-07  0.256E-03    3.86       6.0  T
   4    -52.0802321 -0.976990E-07  0.137E-03    3.86      11.3  T
   5    -52.0802322 -0.562436E-07  0.489E-04    3.86      31.6  T
   6    -52.0802322 -0.176012E-08  0.228E-04    3.86      67.7  T
     SCC iter.                  ...        0 min,  0.011 sec
     gradient                   ...        0 min,  0.004 sec
 * total energy  :   -51.3786156 Eh     change       -0.1574299E-03 Eh
   gradient norm :     0.0040174 Eh/α   predicted    -0.1246829E-03 ( -20.80%)
   displ. norm   :     0.1848316 α      lambda       -0.1549751E-03
   maximum displ.:     0.0805928 α      in ANC's #1, #8, #11, ...

........................................................................
.............................. CYCLE    9 ..............................
........................................................................

 iter      E             dE          RMSdq      gap      omega  full diag
   1    -52.0814832 -0.520815E+02  0.285E-02    3.86       0.0  T
   2    -52.0814835 -0.314561E-06  0.170E-02    3.86       1.0  T
   3    -52.0814832  0.357300E-06  0.353E-03    3.86       4.4  T
   4    -52.0814836 -0.386318E-06  0.129E-03    3.86      11.9  T
   5    -52.0814836 -0.481734E-07  0.372E-04    3.86      41.4  T
   6    -52.0814836 -0.267811E-09  0.170E-04    3.86      90.5  T
     SCC iter.                  ...        0 min,  0.011 sec
     gradient                   ...        0 min,  0.004 sec
 * total energy  :   -51.3787313 Eh     change       -0.1156309E-03 Eh
   gradient norm :     0.0031504 Eh/α   predicted    -0.8013547E-04 ( -30.70%)
   displ. norm   :     0.2296066 α      lambda       -0.1577956E-03
   maximum displ.:     0.1097681 α      in ANC's #1, #7, #15, ...

........................................................................
.............................. CYCLE   10 ..............................
........................................................................

 iter      E             dE          RMSdq      gap      omega  full diag
   1    -52.0820721 -0.520821E+02  0.323E-02    3.86       0.0  T
   2    -52.0820723 -0.185537E-06  0.193E-02    3.86       1.0  T
   3    -52.0820716  0.628594E-06  0.450E-03    3.86       3.4  T
   4    -52.0820723 -0.721550E-06  0.880E-04    3.86      17.5  T
   5    -52.0820724 -0.122401E-07  0.402E-04    3.86      38.4  T
     SCC iter.                  ...        0 min,  0.009 sec
     gradient                   ...        0 min,  0.005 sec
 * total energy  :   -51.3788474 Eh     change       -0.1161580E-03 Eh
   gradient norm :     0.0029651 Eh/α   predicted    -0.8305805E-04 ( -28.50%)
   displ. norm   :     0.2399454 α      lambda       -0.1281715E-03
   maximum displ.:     0.1246167 α      in ANC's #1, #7, #15, ...

........................................................................
.............................. CYCLE   11 ..............................
........................................................................

 iter      E             dE          RMSdq      gap      omega  full diag
   1    -52.0817668 -0.520818E+02  0.307E-02    3.86       0.0  T
   2    -52.0817671 -0.274012E-06  0.184E-02    3.86       1.0  T
   3    -52.0817669  0.224505E-06  0.303E-03    3.86       5.1  T
   4    -52.0817671 -0.255036E-06  0.115E-03    3.86      13.4  T
   5    -52.0817672 -0.361399E-07  0.367E-04    3.86      42.1  T
   6    -52.0817672 -0.343789E-09  0.143E-04    3.86     108.3  T
     SCC iter.                  ...        0 min,  0.011 sec
     gradient                   ...        0 min,  0.004 sec
 * total energy  :   -51.3789421 Eh     change       -0.9467790E-04 Eh
   gradient norm :     0.0033092 Eh/α   predicted    -0.6777610E-04 ( -28.41%)
   displ. norm   :     0.2239034 α      lambda       -0.1096060E-03
   maximum displ.:     0.1286431 α      in ANC's #1, #7, #15, ...

........................................................................
.............................. CYCLE   12 ..............................
........................................................................

 iter      E             dE          RMSdq      gap      omega  full diag
   1    -52.0821537 -0.520822E+02  0.273E-02    3.87       0.0  T
   2    -52.0821542 -0.492866E-06  0.161E-02    3.86       1.0  T
   3    -52.0821542  0.417190E-07  0.231E-03    3.87       6.7  T
   4    -52.0821542 -0.601481E-07  0.104E-03    3.86      14.8  T
   5    -52.0821543 -0.292419E-07  0.380E-04    3.86      40.6  T
   6    -52.0821543 -0.108859E-08  0.181E-04    3.86      85.3  T
     SCC iter.                  ...        0 min,  0.011 sec
     gradient                   ...        0 min,  0.004 sec
 * total energy  :   -51.3790175 Eh     change       -0.7535886E-04 Eh
   gradient norm :     0.0030799 Eh/α   predicted    -0.5755164E-04 ( -23.63%)
   displ. norm   :     0.2446644 α      lambda       -0.8950246E-04
   maximum displ.:     0.1399059 α      in ANC's #1, #7, #15, ...

........................................................................
.............................. CYCLE   13 ..............................
........................................................................

 iter      E             dE          RMSdq      gap      omega  full diag
   1    -52.0801018 -0.520801E+02  0.324E-02    3.87       0.0  T
   2    -52.0801027 -0.882409E-06  0.190E-02    3.87       1.0  T
   3    -52.0801027 -0.316154E-07  0.246E-03    3.87       6.3  T
   4    -52.0801027 -0.302132E-07  0.911E-04    3.87      16.9  T
   5    -52.0801028 -0.126668E-07  0.527E-04    3.87      29.3  T
     SCC iter.                  ...        0 min,  0.010 sec
     gradient                   ...        0 min,  0.004 sec
 * total energy  :   -51.3790546 Eh     change       -0.3716202E-04 Eh
   gradient norm :     0.0038966 Eh/α   predicted    -0.4743083E-04 (  27.63%)
   displ. norm   :     0.0817693 α      lambda       -0.6757187E-04
   maximum displ.:     0.0536836 α      in ANC's #1, #8, #7, ...

........................................................................
.............................. CYCLE   14 ..............................
........................................................................

 iter      E             dE          RMSdq      gap      omega  full diag
   1    -52.0818884 -0.520819E+02  0.155E-02    3.87       0.0  T
   2    -52.0818889 -0.552027E-06  0.872E-03    3.87       1.8  T
   3    -52.0818890 -0.272439E-07  0.219E-03    3.87       7.0  T
   4    -52.0818890 -0.977628E-08  0.709E-04    3.87      21.8  T
   5    -52.0818890 -0.659400E-08  0.413E-04    3.87      37.4  T
     SCC iter.                  ...        0 min,  0.009 sec
     gradient                   ...        0 min,  0.004 sec
 * total energy  :   -51.3790916 Eh     change       -0.3692375E-04 Eh
   gradient norm :     0.0015804 Eh/α   predicted    -0.3401636E-04 (  -7.87%)
   displ. norm   :     0.0758095 α      lambda       -0.1692413E-04
   maximum displ.:     0.0553406 α      in ANC's #1, #4, #7, ...

........................................................................
.............................. CYCLE   15 ..............................
........................................................................

 iter      E             dE          RMSdq      gap      omega  full diag
   1    -52.0818009 -0.520818E+02  0.972E-03    3.87       0.0  T
   2    -52.0818010 -0.145905E-06  0.586E-03    3.87       2.6  T
   3    -52.0818010  0.329680E-07  0.137E-03    3.87      11.3  T
   4    -52.0818010 -0.326901E-07  0.693E-04    3.87      22.3  T
   5    -52.0818010 -0.144338E-07  0.169E-04    3.87      91.3  T
     SCC iter.                  ...        0 min,  0.009 sec
     gradient                   ...        0 min,  0.004 sec
 * total energy  :   -51.3791088 Eh     change       -0.1721679E-04 Eh
   gradient norm :     0.0013108 Eh/α   predicted    -0.8485347E-05 ( -50.71%)
   displ. norm   :     0.0848403 α      lambda       -0.1691938E-04
   maximum displ.:     0.0589446 α      in ANC's #1, #4, #11, ...

........................................................................
.............................. CYCLE   16 ..............................
........................................................................

 iter      E             dE          RMSdq      gap      omega  full diag
   1    -52.0820848 -0.520821E+02  0.117E-02    3.87       0.0  T
   2    -52.0820850 -0.167443E-06  0.693E-03    3.87       2.2  T
   3    -52.0820849  0.299896E-07  0.148E-03    3.87      10.4  T
   4    -52.0820850 -0.335895E-07  0.688E-04    3.87      22.4  T
   5    -52.0820850 -0.145767E-07  0.206E-04    3.87      74.8  T
     SCC iter.                  ...        0 min,  0.009 sec
     gradient                   ...        0 min,  0.004 sec
 * total energy  :   -51.3791243 Eh     change       -0.1551708E-04 Eh
   gradient norm :     0.0015445 Eh/α   predicted    -0.8490330E-05 ( -45.28%)
   displ. norm   :     0.0897882 α      lambda       -0.1356291E-04
   maximum displ.:     0.0627540 α      in ANC's #1, #4, #6, ...

........................................................................
.............................. CYCLE   17 ..............................
........................................................................

 iter      E             dE          RMSdq      gap      omega  full diag
   1    -52.0816797 -0.520817E+02  0.112E-02    3.87       0.0  T
   2    -52.0816797 -0.400776E-07  0.661E-03    3.87       2.3  T
   3    -52.0816797  0.175466E-08  0.600E-04    3.87      25.7  T
   4    -52.0816797 -0.701812E-08  0.306E-04    3.87      50.4  T
     SCC iter.                  ...        0 min,  0.008 sec
     gradient                   ...        0 min,  0.004 sec
 * total energy  :   -51.3791404 Eh     change       -0.1610265E-04 Eh
   gradient norm :     0.0012903 Eh/α   predicted    -0.6807589E-05 ( -57.72%)
   displ. norm   :     0.1195200 α      lambda       -0.1601411E-04
   maximum displ.:     0.0819516 α      in ANC's #1, #4, #11, ...

........................................................................
.............................. CYCLE   18 ..............................
........................................................................

 iter      E             dE          RMSdq      gap      omega  full diag
   1    -52.0816581 -0.520817E+02  0.150E-02    3.87       0.0  T
   2    -52.0816582 -0.699833E-07  0.885E-03    3.87       1.7  T
   3    -52.0816582 -0.666725E-08  0.628E-04    3.87      24.6  T
   4    -52.0816582 -0.514269E-08  0.294E-04    3.87      52.4  T
     SCC iter.                  ...        0 min,  0.008 sec
     gradient                   ...        0 min,  0.004 sec
 * total energy  :   -51.3791588 Eh     change       -0.1837353E-04 Eh
   gradient norm :     0.0008326 Eh/α   predicted    -0.8060721E-05 ( -56.13%)
   displ. norm   :     0.1176459 α      lambda       -0.1188923E-04
   maximum displ.:     0.0829900 α      in ANC's #1, #4, #6, ...

........................................................................
.............................. CYCLE   19 ..............................
........................................................................

 iter      E             dE          RMSdq      gap      omega  full diag
   1    -52.0816983 -0.520817E+02  0.147E-02    3.87       0.0  T
   2    -52.0816984 -0.611333E-07  0.874E-03    3.87       1.8  T
   3    -52.0816983  0.311067E-07  0.119E-03    3.87      13.0  T
   4    -52.0816984 -0.403679E-07  0.558E-04    3.87      27.7  T
   5    -52.0816984 -0.756109E-08  0.204E-04    3.87      75.8  T
     SCC iter.                  ...        0 min,  0.009 sec
     gradient                   ...        0 min,  0.006 sec
 * total energy  :   -51.3791714 Eh     change       -0.1259504E-04 Eh
   gradient norm :     0.0009150 Eh/α   predicted    -0.5985118E-05 ( -52.48%)
   displ. norm   :     0.0870653 α      lambda       -0.7600231E-05
   maximum displ.:     0.0645242 α      in ANC's #1, #4, #6, ...

........................................................................
.............................. CYCLE   20 ..............................
........................................................................

 iter      E             dE          RMSdq      gap      omega  full diag
   1    -52.0817009 -0.520817E+02  0.113E-02    3.87       0.0  T
   2    -52.0817009 -0.277984E-07  0.667E-03    3.87       2.3  T
   3    -52.0817009 -0.140167E-08  0.554E-04    3.87      27.9  T
   4    -52.0817009 -0.542685E-08  0.298E-04    3.87      51.8  T
     SCC iter.                  ...        0 min,  0.007 sec
     gradient                   ...        0 min,  0.005 sec
 * total energy  :   -51.3791797 Eh     change       -0.8307414E-05 Eh
   gradient norm :     0.0007705 Eh/α   predicted    -0.3815024E-05 ( -54.08%)
   displ. norm   :     0.0623866 α      lambda       -0.5412774E-05
   maximum displ.:     0.0475470 α      in ANC's #1, #4, #6, ...
 * RMSD in coord.:     0.4170348 α      energy gain  -0.3367701E-01 Eh

generating ANC from exact Hessian ...
Using Lindh-Hessian (1995)
 Shifting diagonal of input Hessian by   9.782026086206996E-003
 Lowest  eigenvalues of input Hessian
    0.000000    0.000000    0.000000    0.000000    0.000000    0.000000
    0.010000    0.010220    0.010335    0.010716    0.011092    0.011591
    0.012347    0.012945    0.013798    0.014444    0.015055    0.016892
 Highest eigenvalues
    1.296036    1.323865    1.459900    1.774322    1.986611    2.379301
 

........................................................................
.............................. CYCLE   21 ..............................
........................................................................

 iter      E             dE          RMSdq      gap      omega  full diag
   1    -52.0820278 -0.520820E+02  0.773E-03    3.87       0.0  T
   2    -52.0820278 -0.148256E-07  0.457E-03    3.87       3.4  T
   3    -52.0820278 -0.163867E-08  0.354E-04    3.87      43.5  T
   4    -52.0820278 -0.161321E-08  0.210E-04    3.87      73.4  T
     SCC iter.                  ...        0 min,  0.014 sec
     gradient                   ...        0 min,  0.007 sec
 * total energy  :   -51.3791867 Eh     change       -0.7041685E-05 Eh
   gradient norm :     0.0006432 Eh/α   predicted     0.0000000E+00 (-100.00%)
   displ. norm   :     0.0225216 α      lambda       -0.3766031E-05
   maximum displ.:     0.0161250 α      in ANC's #1, #17, #8, ...

........................................................................
.............................. CYCLE   22 ..............................
........................................................................

 iter      E             dE          RMSdq      gap      omega  full diag
   1    -52.0818697 -0.520819E+02  0.345E-03    3.87       0.0  T
   2    -52.0818697 -0.129910E-07  0.202E-03    3.87       7.6  T
   3    -52.0818697 -0.486587E-09  0.311E-04    3.87      49.6  T
   4    -52.0818697 -0.626500E-09  0.840E-05    3.87     183.6  T
     SCC iter.                  ...        0 min,  0.015 sec
     gradient                   ...        0 min,  0.005 sec
 * total energy  :   -51.3791914 Eh     change       -0.4684768E-05 Eh
   gradient norm :     0.0002472 Eh/α   predicted    -0.1889195E-05 ( -59.67%)
   displ. norm   :     0.0600283 α      lambda       -0.7155894E-05
   maximum displ.:     0.0405048 α      in ANC's #1, #17, #8, ...

   *** GEOMETRY OPTIMIZATION CONVERGED AFTER 22 ITERATIONS ***

------------------------------------------------------------------------
 total energy gain   :        -0.0336887 Eh      -21.1400 kcal/mol
 total RMSD          :         0.4179838 a0        0.2212 Å
 total power (kW/mol):        -4.0204444 (step) -186.4353 (real)
------------------------------------------------------------------------

 ANCopt (total)                0 d,  0 h,  0 min,  0.474 sec
 optimizer setup                ...        0 min,  0.000 sec (  0.023%)
 model hessian                  ...        0 min,  0.043 sec (  9.159%)
 ANC generation                 ...        0 min,  0.007 sec (  1.392%)
 coordinate transformation      ...        0 min,  0.000 sec (  0.082%)
 single point calculation       ...        0 min,  0.399 sec ( 84.128%)
 optimization log               ...        0 min,  0.015 sec (  3.247%)
 hessian update                 ...        0 min,  0.004 sec (  0.803%)
 rational function              ...        0 min,  0.002 sec (  0.490%)

================
 final structure:
================
42
 xtb: 6.7.1 (edcfbbe)
C           -5.67463132998969        1.53027937730307       -0.74176374689623
C           -5.56916201063479        0.25759531070551        0.09537431934542
C           -6.81132536858116       -0.60594914258409       -0.11861557873028
C           -4.31060305370485       -0.54803822577118       -0.24593735699759
C           -3.00876328959723        0.16467237006718        0.11241503072018
C           -1.78733940441591       -0.71992483577572       -0.12900900415670
C           -0.48845180729293        0.02103047477406        0.17785244833037
C            0.74769841514939       -0.84399979377813       -0.05659929950162
C            2.02975860758238       -0.05929345566047        0.20585736862227
C            3.27421579169204       -0.89602287715652       -0.04949603241223
O            4.41462357589880       -0.07083118931861        0.17312179038612
C            5.61075172242762       -0.63024404139739       -0.04372947242424
O            5.75145860848174       -1.77459704544555       -0.40233339243811
C            6.72403408336130        0.32547172411104        0.20832220417768
C            6.35731986645248        1.71142342216239        0.63096198142718
C            7.97147848355784       -0.10147526753377        0.04224758904397
H           -4.84594329476162        2.20360764310769       -0.54008391385711
H           -5.67343785255482        1.28639835258727       -1.80225006559464
H           -6.59904411495949        2.05614160483432       -0.51266285829876
H           -5.52161604906553        0.54018269329930        1.15347077680023
H           -6.88660264126731       -0.90696507457590       -1.16153649602183
H           -7.71126536341347       -0.05453464137950        0.14424662791619
H           -6.76846167031466       -1.50322654048371        0.49472632129890
H           -4.31339819118719       -0.78008271044790       -1.31366157713390
H           -4.34788185738546       -1.49646520043106        0.29618829339189
H           -2.90652895459028        1.07173494075674       -0.48536181993747
H           -3.03665112028968        0.46050042423799        1.16399265410477
H           -1.85356477782285       -1.61309534805242        0.49637119456280
H           -1.77883470237131       -1.04701209525020       -1.17133042630759
H           -0.42704918425497        0.91037958241220       -0.45375032684334
H           -0.50185583201587        0.35625997124948        1.21743821799548
H            0.74808588108189       -1.20473274222669       -1.08752132674564
H            0.71276977733935       -1.71693022714769        0.59865415582309
H            2.06337009596561        0.81898307711162       -0.44169091336807
H            2.04660662125653        0.29006936927178        1.23982724124905
H            3.32073028686258       -1.76146465305111        0.62166418484364
H            3.29929590466272       -1.26931998275281       -1.07999942767763
H            5.74809602193910        2.18721175465815       -0.13550896508484
H            7.25000342581306        2.30763500321869        0.79974367980866
H            5.76646573166205        1.68123659802391        1.54448264793921
H            8.82146102147706        0.53843477364961        0.20676493859838
H            8.16419094780822       -1.11504437732459       -0.26564866595706
 
 Bond Distances (Angstroems)
 ---------------------------
C1-C2=1.5270         C1-H17=1.0866        C1-H18=1.0882        C1-H19=1.0879        C2-C1=1.5270         C2-C3=1.5279         
C2-C4=1.5328         C2-H20=1.0962        C3-C2=1.5279         C3-H21=1.0881        C3-H22=1.0877        C3-H23=1.0877        
C4-C2=1.5328         C4-C5=1.5268         C4-H24=1.0927        C4-H25=1.0931        C5-C4=1.5268         C5-C6=1.5273         
C5-H26=1.0911        C5-H27=1.0928        C6-C5=1.5273         C6-C7=1.5265         C6-H28=1.0924        C6-H29=1.0925        
C7-C6=1.5265         C7-C8=1.5269         C7-H30=1.0925        C7-H31=1.0924        C8-C7=1.5269         C8-C9=1.5259         
C8-H32=1.0922        C8-H33=1.0921        C9-C8=1.5259         C9-C10=1.5212        C9-H34=1.0917        C9-H35=1.0915        
C10-C9=1.5212        C10-O11=1.4251       C10-H36=1.0962       C10-H37=1.0963       O11-C10=1.4251       O11-C12=1.3382       
C12-O11=1.3382       C12-O13=1.2075       C12-C14=1.4887       O13-C12=1.2075       C14-C12=1.4887       C14-C15=1.4946       
C14-C16=1.3289       C15-C14=1.4946       C15-H38=1.0886       C15-H39=1.0867       C15-H40=1.0884       C16-C14=1.3289       
C16-H41=1.0766       C16-H42=1.0767       H17-C1=1.0866        H18-C1=1.0882        H19-C1=1.0879        H20-C2=1.0962        
H21-C3=1.0881        H22-C3=1.0877        H23-C3=1.0877        H24-C4=1.0927        H25-C4=1.0931        H26-C5=1.0911        
H27-C5=1.0928        H28-C6=1.0924        H29-C6=1.0925        H30-C7=1.0925        H31-C7=1.0924        H32-C8=1.0922        
H33-C8=1.0921        H34-C9=1.0917        H35-C9=1.0915        H36-C10=1.0962       H37-C10=1.0963       H38-C15=1.0886       
H39-C15=1.0867       H40-C15=1.0884       H41-C16=1.0766       H42-C16=1.0767       
 C  H  Rav=1.0899 sigma=0.0047  Rmin=1.0766  Rmax=1.0963    26
 C  C  Rav=1.5045 sigma=0.0546  Rmin=1.3289  Rmax=1.5328    12
 O  C  Rav=1.3236 sigma=0.0895  Rmin=1.2075  Rmax=1.4251     3
 
 selected bond angles (degree)
 --------------------
H17-C1-C2=111.22               H18-C1-C2=110.33               H18-C1-H17=108.60              H19-C1-C2=110.25               
H19-C1-H17=108.02              H19-C1-H18=108.33              C3-C2-C1=109.76                C4-C2-C1=111.88                
C4-C2-C3=109.83                H20-C2-C1=108.50               H20-C2-C3=108.43               H20-C2-C4=108.35               
H21-C3-C2=110.29               H22-C3-C2=110.63               H22-C3-H21=108.34              H23-C3-C2=110.81               
H23-C3-H21=108.36              H23-C3-H22=108.33              C5-C4-C2=113.73                H24-C4-C2=109.09               
H24-C4-C5=109.31               H25-C4-C2=108.52               H25-C4-C5=108.52               H25-C4-H24=107.48              
C6-C5-C4=111.99                H26-C5-C4=109.84               H26-C5-C6=108.66               H27-C5-C4=109.30               
H27-C5-C6=109.23               H27-C5-H26=107.73              C7-C6-C5=111.57                H28-C6-C5=109.55               
H28-C6-C7=109.47               H29-C6-C5=109.30               H29-C6-C7=109.30               H29-C6-H28=107.57              
C8-C7-C6=112.52                H30-C7-C6=109.07               H30-C7-C8=109.08               H31-C7-C6=109.26               
H31-C7-C8=109.26               H31-C7-H30=107.52              C9-C8-C7=111.25                H32-C8-C7=109.41               
H32-C8-C9=109.38               H33-C8-C7=109.56               H33-C8-C9=109.56               H33-C8-H32=107.60              
C10-C9-C8=112.06               H34-C9-C8=109.73               H34-C9-C10=108.53              H35-C9-C8=109.91               
H35-C9-C10=108.81              H35-C9-H34=107.69              O11-C10-C9=108.05              H36-C10-C9=111.48              
H36-C10-O11=109.12             H37-C10-C9=111.33              H37-C10-O11=109.01             H37-C10-H36=107.80             
 
 selected dihedral angles (degree)
 ---------------------------------
C3-C2-C1-H17=174.91           C3-C2-C1-H18=295.49           C3-C2-C1-H19= 55.10           C4-C2-C1-H17=297.10           
C4-C2-C1-H18= 57.68           C4-C2-C1-H19=177.30           H20-C2-C1-H17= 56.58          H20-C2-C1-H18=177.16          
H20-C2-C1-H19=296.78          H21-C3-C2-C1= 61.81           H21-C3-C2-C4=298.40           H21-C3-C2-H20=180.18          
H22-C3-C2-C1=301.97           H22-C3-C2-C4=178.56           H22-C3-C2-H20= 60.33          H23-C3-C2-C1=181.80           
H23-C3-C2-C4= 58.39           H23-C3-C2-H20=300.17          C5-C4-C2-C1= 65.56            C5-C4-C2-C3=187.71            
C5-C4-C2-H20=305.99           H24-C4-C2-C1=303.25           H24-C4-C2-C3= 65.41           H24-C4-C2-H20=183.68          
H25-C4-C2-C1=186.44           H25-C4-C2-C3=308.59           H25-C4-C2-H20= 66.87          C6-C5-C4-C2=174.96            
C6-C5-C4-H24=297.14           C6-C5-C4-H25= 54.08           H26-C5-C4-C2=295.79           H26-C5-C4-H24= 57.97          
H26-C5-C4-H25=174.91          H27-C5-C4-C2= 53.78           H27-C5-C4-H24=175.97          H27-C5-C4-H25=292.90          
C7-C6-C5-C4=177.67            C7-C6-C5-H26= 56.16           C7-C6-C5-H27=298.88           H28-C6-C5-C4=299.05           
H28-C6-C5-H26=177.54          H28-C6-C5-H27= 60.27          H29-C6-C5-C4= 56.68           H29-C6-C5-H26=295.17          
H29-C6-C5-H27=177.89          C8-C7-C6-C5=180.01            C8-C7-C6-H28= 58.59           C8-C7-C6-H29=301.00           
H30-C7-C6-C5=301.19           H30-C7-C6-H28=179.77          H30-C7-C6-H29= 62.18          H31-C7-C6-C5= 58.46           
H31-C7-C6-H28=297.04          H31-C7-C6-H29=179.45          C9-C8-C7-C6=177.77            C9-C8-C7-H30= 56.60           
C9-C8-C7-H31=299.32           H32-C8-C7-C6= 56.80           H32-C8-C7-H30=295.62          H32-C8-C7-H31=178.34          
H33-C8-C7-C6=299.06           H33-C8-C7-H30=177.89          H33-C8-C7-H31= 60.61          C10-C9-C8-C7=181.15           
C10-C9-C8-H32=302.14          C10-C9-C8-H33= 59.86          H34-C9-C8-C7=301.79           H34-C9-C8-H32= 62.78          
H34-C9-C8-H33=180.49          H35-C9-C8-C7= 60.03           H35-C9-C8-H32=181.02          H35-C9-C8-H33=298.74          
O11-C10-C9-C8=177.93          O11-C10-C9-H34= 56.60         O11-C10-C9-H35=299.68         H36-C10-C9-C8=297.83          
H36-C10-C9-H34=176.50         H36-C10-C9-H35= 59.58         H37-C10-C9-C8= 58.25          H37-C10-C9-H34=296.92         
H37-C10-C9-H35=180.00         
           -------------------------------------------------
          |                Final Singlepoint                |
           -------------------------------------------------

          ...................................................
          :                      SETUP                      :
          :.................................................:
          :  # basis functions                  90          :
          :  # atomic orbitals                  90          :
          :  # shells                           58          :
          :  # electrons                        94          :
          :  max. iterations                   250          :
          :  Hamiltonian                  GFN2-xTB          :
          :  restarted?                      false          :
          :  GBSA solvation                  false          :
          :  PC potential                    false          :
          :  electronic temp.          300.0000000     K    :
          :  accuracy                    1.0000000          :
          :  -> integral cutoff          0.2500000E+02      :
          :  -> integral neglect         0.1000000E-07      :
          :  -> SCF convergence          0.1000000E-05 Eh   :
          :  -> wf. convergence          0.1000000E-03 e    :
          :  Broyden damping             0.4000000          :
          :  net charge                          0          :
          :  unpaired electrons                  0          :
          ...................................................

 iter      E             dE          RMSdq      gap      omega  full diag
   1    -52.0818697 -0.520819E+02  0.481E-05    3.87       0.0  T
   2    -52.0818697 -0.633804E-11  0.281E-05    3.87     549.0  T
   3    -52.0818697 -0.321876E-11  0.208E-05    3.87     742.0  T

   *** convergence criteria satisfied after 3 iterations ***

         #    Occupation            Energy/Eh            Energy/eV
      -------------------------------------------------------------
         1        2.0000           -0.7371162             -20.0580
       ...           ...                  ...                  ...
        41        2.0000           -0.4312432             -11.7347
        42        2.0000           -0.4265244             -11.6063
        43        2.0000           -0.4222661             -11.4904
        44        2.0000           -0.4200229             -11.4294
        45        2.0000           -0.4176952             -11.3661
        46        2.0000           -0.4158308             -11.3153
        47        2.0000           -0.4071800             -11.0799 (HOMO)
        48                         -0.2650701              -7.2129 (LUMO)
        49                         -0.1587657              -4.3202
        50                         -0.0028017              -0.0762
        51                          0.0475248               1.2932
        52                          0.0895224               2.4360
       ...                                ...                  ...
        90                          0.7020026              19.1025
      -------------------------------------------------------------
                  HL-Gap            0.1421098 Eh            3.8670 eV
             Fermi-level           -0.3361250 Eh           -9.1464 eV

 SCC (total)                   0 d,  0 h,  0 min,  0.012 sec
 SCC setup                      ...        0 min,  0.000 sec (  1.640%)
 Dispersion                     ...        0 min,  0.000 sec (  1.682%)
 classical contributions        ...        0 min,  0.000 sec (  0.329%)
 integral evaluation            ...        0 min,  0.001 sec (  8.302%)
 iterations                     ...        0 min,  0.005 sec ( 44.055%)
 molecular gradient             ...        0 min,  0.005 sec ( 39.489%)
 printout                       ...        0 min,  0.001 sec (  4.273%)

         :::::::::::::::::::::::::::::::::::::::::::::::::::::
         ::                     SUMMARY                     ::
         :::::::::::::::::::::::::::::::::::::::::::::::::::::
         :: total energy             -51.379191391724 Eh    ::
         :: gradient norm              0.000259064458 Eh/a0 ::
         :: HOMO-LUMO gap              3.867004587164 eV    ::
         ::.................................................::
         :: SCC energy               -52.082155047003 Eh    ::
         :: -> isotropic ES            0.050615750099 Eh    ::
         :: -> anisotropic ES          0.009063884018 Eh    ::
         :: -> anisotropic XC          0.022780031187 Eh    ::
         :: -> dispersion             -0.029355735389 Eh    ::
         :: repulsion energy           0.702963655279 Eh    ::
         :: add. restraining           0.000000000000 Eh    ::
         :: total charge              -0.000000000000 e     ::
         :::::::::::::::::::::::::::::::::::::::::::::::::::::

           -------------------------------------------------
          |                Property Printout                |
           -------------------------------------------------

    * Orbital Energies and Occupations

         #    Occupation            Energy/Eh            Energy/eV
      -------------------------------------------------------------
         1        2.0000           -0.7371162             -20.0580
       ...           ...                  ...                  ...
        35        2.0000           -0.4535262             -12.3411
        36        2.0000           -0.4506974             -12.2641
        37        2.0000           -0.4498372             -12.2407
        38        2.0000           -0.4450704             -12.1110
        39        2.0000           -0.4399746             -11.9723
        40        2.0000           -0.4362434             -11.8708
        41        2.0000           -0.4312432             -11.7347
        42        2.0000           -0.4265244             -11.6063
        43        2.0000           -0.4222661             -11.4904
        44        2.0000           -0.4200229             -11.4294
        45        2.0000           -0.4176952             -11.3661
        46        2.0000           -0.4158308             -11.3153
        47        2.0000           -0.4071800             -11.0799 (HOMO)
        48                         -0.2650701              -7.2129 (LUMO)
        49                         -0.1587657              -4.3202
        50                         -0.0028017              -0.0762
        51                          0.0475248               1.2932
        52                          0.0895224               2.4360
        53                          0.0933169               2.5393
        54                          0.0991054               2.6968
        55                          0.1010871               2.7507
        56                          0.1047833               2.8513
        57                          0.1080610               2.9405
        58                          0.1191051               3.2410
       ...                                ...                  ...
        90                          0.7020026              19.1025
      -------------------------------------------------------------
                  HL-Gap            0.1421098 Eh            3.8670 eV
             Fermi-level           -0.3361250 Eh           -9.1464 eV

     #   Z          covCN         q      C6AA      α(0)
     1   6 C        3.756    -0.106    22.584     6.776
     2   6 C        3.849    -0.010    20.721     6.475
     3   6 C        3.757    -0.107    22.590     6.777
     4   6 C        3.806    -0.064    21.715     6.634
     5   6 C        3.802    -0.059    21.627     6.621
     6   6 C        3.803    -0.059    21.640     6.623
     7   6 C        3.804    -0.059    21.642     6.623
     8   6 C        3.803    -0.062    21.685     6.630
     9   6 C        3.803    -0.066    21.770     6.643
    10   6 C        3.704     0.082    19.355     6.290
    11   8 O        1.705    -0.264    18.383     5.789
    12   6 C        2.732     0.349    21.067     7.514
    13   8 O        0.856    -0.420    22.081     6.300
    14   6 C        2.938    -0.009    28.247     8.717
    15   6 C        3.757    -0.111    22.681     6.790
    16   6 C        2.849    -0.078    29.951     8.970
    17   1 H        0.925     0.033     2.539     2.492
    18   1 H        0.925     0.035     2.518     2.482
    19   1 H        0.925     0.033     2.542     2.493
    20   1 H        0.924     0.026     2.644     2.543
    21   1 H        0.925     0.035     2.518     2.481
    22   1 H        0.925     0.034     2.529     2.487
    23   1 H        0.925     0.032     2.562     2.503
    24   1 H        0.924     0.032     2.561     2.503
    25   1 H        0.924     0.030     2.581     2.513
    26   1 H        0.924     0.033     2.550     2.497
    27   1 H        0.924     0.029     2.604     2.524
    28   1 H        0.924     0.031     2.579     2.511
    29   1 H        0.924     0.031     2.568     2.506
    30   1 H        0.924     0.033     2.545     2.495
    31   1 H        0.924     0.033     2.544     2.494
    32   1 H        0.924     0.036     2.508     2.477
    33   1 H        0.924     0.035     2.512     2.479
    34   1 H        0.924     0.050     2.324     2.384
    35   1 H        0.924     0.049     2.333     2.389
    36   1 H        0.924     0.048     2.350     2.397
    37   1 H        0.924     0.049     2.338     2.391
    38   1 H        0.925     0.060     2.201     2.320
    39   1 H        0.925     0.051     2.307     2.375
    40   1 H        0.925     0.060     2.195     2.317
    41   1 H        0.926     0.056     2.245     2.343
    42   1 H        0.926     0.071     2.077     2.254

 Mol. C6AA /au·bohr⁶  :      13450.255329
 Mol. C8AA /au·bohr⁸  :     290116.246232
 Mol. α(0) /au        :        173.817330


Wiberg/Mayer (AO) data.
largest (>0.10) Wiberg bond orders for each atom

 ---------------------------------------------------------------------------
     #   Z sym  total        # sym  WBO       # sym  WBO       # sym  WBO
 ---------------------------------------------------------------------------
     1   6 C    3.997 --     2 C    1.010    18 H    0.987    19 H    0.986
                            17 H    0.985
     2   6 C    3.996 --     1 C    1.010     3 C    1.008     4 C    0.996
                            20 H    0.969
     3   6 C    3.996 --     2 C    1.008    21 H    0.987    23 H    0.987
                            22 H    0.987
     4   6 C    3.996 --     5 C    1.007     2 C    0.996    24 H    0.977
                            25 H    0.976
     5   6 C    3.997 --     4 C    1.007     6 C    1.006    27 H    0.977
                            26 H    0.975
     6   6 C    3.997 --     7 C    1.007     5 C    1.006    28 H    0.978
                            29 H    0.977
     7   6 C    3.996 --     6 C    1.007     8 C    1.007    31 H    0.977
                            30 H    0.977
     8   6 C    3.995 --     7 C    1.007     9 C    1.006    33 H    0.977
                            32 H    0.977
     9   6 C    3.992 --     8 C    1.006    10 C    1.005    35 H    0.976
                            34 H    0.975
    10   6 C    3.929 --     9 C    1.005    36 H    0.968    37 H    0.967
                            11 O    0.942
    11   8 O    2.307 --    12 C    1.126    10 C    0.942    13 O    0.172
    12   6 C    3.917 --    13 O    1.722    11 O    1.126    14 C    0.992
    13   8 O    2.028 --    12 C    1.722    11 O    0.172
    14   6 C    3.986 --    16 C    1.878    15 C    1.030    12 C    0.992
    15   6 C    3.995 --    14 C    1.030    39 H    0.984    40 H    0.969
                            38 H    0.968
    16   6 C    3.987 --    14 C    1.878    41 H    0.975    42 H    0.971
    17   1 H    0.999 --     1 C    0.985
    18   1 H    0.999 --     1 C    0.987
    19   1 H    0.999 --     1 C    0.986
    20   1 H    0.999 --     2 C    0.969
    21   1 H    0.999 --     3 C    0.987
    22   1 H    0.998 --     3 C    0.987
    23   1 H    0.999 --     3 C    0.987
    24   1 H    0.999 --     4 C    0.977
    25   1 H    0.999 --     4 C    0.976
    26   1 H    0.999 --     5 C    0.975
    27   1 H    0.999 --     5 C    0.977
    28   1 H    0.999 --     6 C    0.978
    29   1 H    0.999 --     6 C    0.977
    30   1 H    0.999 --     7 C    0.977
    31   1 H    0.999 --     7 C    0.977
    32   1 H    0.999 --     8 C    0.977
    33   1 H    0.999 --     8 C    0.977
    34   1 H    0.998 --     9 C    0.975
    35   1 H    0.998 --     9 C    0.976
    36   1 H    0.998 --    10 C    0.968
    37   1 H    0.998 --    10 C    0.967
    38   1 H    0.996 --    15 C    0.968
    39   1 H    0.997 --    15 C    0.984
    40   1 H    0.996 --    15 C    0.969
    41   1 H    0.996 --    16 C    0.975
    42   1 H    0.995 --    16 C    0.971
 ---------------------------------------------------------------------------

Topologies differ in total number of bonds
Writing topology from bond orders to xtbtopo.mol

molecular dipole:
                 x           y           z       tot (Debye)
 q only:       -0.538       0.890       0.251
   full:       -0.519       0.916       0.266       2.760
molecular quadrupole (traceless):
                xx          xy          yy          xz          yz          zz
 q only:        0.371      16.868      -1.460       5.014      -0.632       1.089
  q+dip:       -3.093      17.783      -1.781       5.172      -1.496       4.874
   full:       -2.310      17.993      -2.214       5.376      -1.801       4.524

           -------------------------------------------------
          |                Geometry Summary                 |
           -------------------------------------------------

      molecular mass/u    :      226.3555719
   center of mass at/Å    :        0.9194977      -0.1413970      -0.0136464
  moments of inertia/u·Å² :        0.2301163E+03   0.5376369E+04   0.5541798E+04
rotational constants/cm⁻¹ :        0.7325700E-01   0.3135505E-02   0.3041907E-02

 * 39 selected distances

     #   Z          #   Z                                           value/Å
     1   6 C        2   6 C                                       1.5269738
     2   6 C        3   6 C                                       1.5278976
     2   6 C        4   6 C                                       1.5328112 (max)
     4   6 C        5   6 C                                       1.5268137
     5   6 C        6   6 C                                       1.5273096
     6   6 C        7   6 C                                       1.5265281
     7   6 C        8   6 C                                       1.5268637
     8   6 C        9   6 C                                       1.5258854
     9   6 C       10   6 C                                       1.5211823
    10   6 C       11   8 O                                       1.4251422
    11   8 O       12   6 C                                       1.3381667
    12   6 C       13   8 O                                       1.2074516
    14   6 C       16   6 C                                       1.3289027
     1   6 C       17   1 H                                       1.0866323
     1   6 C       18   1 H                                       1.0881686
     1   6 C       19   1 H                                       1.0879143
     2   6 C       20   1 H                                       1.0962137
     3   6 C       21   1 H                                       1.0881000
     3   6 C       22   1 H                                       1.0876795
     3   6 C       23   1 H                                       1.0877190
     4   6 C       24   1 H                                       1.0926517
     4   6 C       25   1 H                                       1.0930708
     5   6 C       26   1 H                                       1.0911241
     5   6 C       27   1 H                                       1.0927523
     6   6 C       28   1 H                                       1.0923552
     6   6 C       29   1 H                                       1.0924709
     7   6 C       30   1 H                                       1.0925358
     7   6 C       31   1 H                                       1.0923815
     8   6 C       32   1 H                                       1.0922128
     8   6 C       33   1 H                                       1.0920553
     9   6 C       34   1 H                                       1.0917044
     9   6 C       35   1 H                                       1.0915274
    10   6 C       36   1 H                                       1.0961794
    10   6 C       37   1 H                                       1.0963198
    15   6 C       38   1 H                                       1.0885799
    15   6 C       39   1 H                                       1.0866645
    15   6 C       40   1 H                                       1.0883658
    16   6 C       41   1 H                                       1.0765785 (min)
    16   6 C       42   1 H                                       1.0766897

 * 3 distinct bonds (by element types)

   Z      Z             #   av. dist./Å        max./Å        min./Å
   1 H    6 C          26     1.0899480     1.0963198     1.0765785
   6 C    6 C          10     1.5071168     1.5328112     1.3289027
   6 C    8 O           3     1.3235868     1.4251422     1.2074516


optimized geometry written to: xtbopt.xyz


           -------------------------------------------------
          | TOTAL ENERGY              -51.379191391724 Eh   |
          | GRADIENT NORM               0.000259064458 Eh/α |
          | HOMO-LUMO GAP               3.867004587164 eV   |
           -------------------------------------------------
########################################################################
[WARNING] Runtime exception occurred
-2- restart_readRestart: Dimension missmatch in restart file.
-1- restart_readRestart: Number of electron missmatch in restart file.
########################################################################

------------------------------------------------------------------------
 * finished run on 2025/12/01 at 14:17:30.358     
------------------------------------------------------------------------
 total:
 * wall-time:     0 d,  0 h,  0 min,  0.558 sec
 *  cpu-time:     0 d,  0 h,  0 min, 12.342 sec
 * ratio c/w:    22.119 speedup
 SCF:
 * wall-time:     0 d,  0 h,  0 min,  0.040 sec
 *  cpu-time:     0 d,  0 h,  0 min,  0.918 sec
 * ratio c/w:    22.726 speedup
 ANC optimizer:
 * wall-time:     0 d,  0 h,  0 min,  0.488 sec
 *  cpu-time:     0 d,  0 h,  0 min, 11.045 sec
 * ratio c/w:    22.652 speedup

normal termination of xtb
