      -----------------------------------------------------------      
     |                   =====================                   |     
     |                           x T B                           |     
     |                   =====================                   |     
     |                         S. Grimme                         |     
     |          Mulliken Center for Theoretical Chemistry        |     
     |                    University of Bonn                     |     
      -----------------------------------------------------------      

   * xtb version 6.7.1 (edcfbbe) compiled by 'albert@albert-system' on 2024-07-22

   xtb is free software: you can redistribute it and/or modify it under
   the terms of the GNU Lesser General Public License as published by
   the Free Software Foundation, either version 3 of the License, or
   (at your option) any later version.
   
   xtb is distributed in the hope that it will be useful,
   but WITHOUT ANY WARRANTY; without even the implied warranty of
   MERCHANTABILITY or FITNESS FOR A PARTICULAR PURPOSE.  See the
   GNU Lesser General Public License for more details.
   
   Cite this work as:
   * C. Bannwarth, E. Caldeweyher, S. Ehlert, A. Hansen, P. Pracht,
     J. Seibert, S. Spicher, S. Grimme, WIREs Comput. Mol. Sci., 2020, 11,
     e01493. DOI: 10.1002/wcms.1493
   
   for GFN2-xTB:
   * C. Bannwarth, S. Ehlert and S. Grimme., J. Chem. Theory Comput., 2019,
     15, 1652-1671. DOI: 10.1021/acs.jctc.8b01176
   for GFN1-xTB:
   * S. Grimme, C. Bannwarth, P. Shushkov, J. Chem. Theory Comput., 2017,
     13, 1989-2009. DOI: 10.1021/acs.jctc.7b00118
   for GFN0-xTB:
   * P. Pracht, E. Caldeweyher, S. Ehlert, S. Grimme, ChemRxiv, 2019, preprint.
     DOI: 10.26434/chemrxiv.8326202.v1
   for GFN-FF:
   * S. Spicher and S. Grimme, Angew. Chem. Int. Ed., 2020, 59, 15665-15673.
     DOI: 10.1002/anie.202004239
   
   for ALPB and GBSA implicit solvation:
   * S. Ehlert, M. Stahn, S. Spicher, S. Grimme, J. Chem. Theory Comput.,
     2021, 17, 4250-4261. DOI: 10.1021/acs.jctc.1c00471
   
   for ddCOSMO and CPCM-X implicit solvation:
   * M. Stahn, S. Ehlert, S. Grimme, J. Phys. Chem. A,
     2023, XX, XXXX-XXXX. DOI: 10.1021/acs.jpca.3c04382
   
   for DFT-D4:
   * E. Caldeweyher, C. Bannwarth and S. Grimme, J. Chem. Phys., 2017,
     147, 034112. DOI: 10.1063/1.4993215
   * E. Caldeweyher, S. Ehlert, A. Hansen, H. Neugebauer, S. Spicher,
     C. Bannwarth and S. Grimme, J. Chem. Phys., 2019, 150, 154122.
     DOI: 10.1063/1.5090222
   * E. Caldeweyher, J.-M. Mewes, S. Ehlert and S. Grimme, Phys. Chem. Chem. Phys.
     2020, 22, 8499-8512. DOI: 10.1039/D0CP00502A
   
   for sTDA-xTB:
   * S. Grimme and C. Bannwarth, J. Chem. Phys., 2016, 145, 054103.
     DOI: 10.1063/1.4959605
   
   in the mass-spec context:
   * V. Asgeirsson, C. Bauer and S. Grimme, Chem. Sci., 2017, 8, 4879.
     DOI: 10.1039/c7sc00601b
   * J. Koopman and S. Grimme, ACS Omega 2019, 4, 12, 15120-15133.
     DOI: 10.1021/acsomega.9b02011
   
   for metadynamics refer to:
   * S. Grimme, J. Chem. Theory Comput., 2019, 155, 2847-2862
     DOI: 10.1021/acs.jctc.9b00143
   
   for SPH calculations refer to:
   * S. Spicher and S. Grimme, J. Chem. Theory Comput., 2021, 17, 1701-1714
     DOI: 10.1021/acs.jctc.0c01306
   
   for ONIOM refer to:
   * C. Plett, A. Katbashev, S. Ehlert, S. Grimme, M. Bursch,
     Phys. Chem. Chem. Phys., 2023, 25, 17860-17868. DOI: 10.1039/D3CP02178E
   
   for DIPRO refer to:
   * J. Kohn, N. Gildemeister, S. Grimme, D. Fazzi, A. Hansen,
     J. Chem. Phys., 2023, just accepted.
   
   for PTB refer to:
   * S. Grimme, M. Mueller, A. Hansen, J. Chem. Phys., 2023, 158, 124111.
     DOI: 10.1063/5.0137838
   
   with help from (in alphabetical order)
   P. Atkinson, C. Bannwarth, F. Bohle, G. Brandenburg, E. Caldeweyher
   M. Checinski, S. Dohm, S. Ehlert, S. Ehrlich, I. Gerasimov, C. Hölzer
   A. Katbashev, J. Kohn, J. Koopman, C. Lavigne, S. Lehtola, F. März, M. Müller,
   F. Musil, H. Neugebauer, J. Pisarek, C. Plett, P. Pracht, F. Pultar,
   J. Seibert, P. Shushkov, S. Spicher, M. Stahn, M. Steiner, T. Strunk,
   J. Stückrath, T. Rose, and J. Unsleber
   
 * started run on 2025/12/01 at 14:17:32.254     
   ID    Z sym.   atoms
    1    6 C      1-10, 12, 14-16
    2    8 O      11, 13
    3    1 H      17-42

           -------------------------------------------------
          |                Calculation Setup                |
           -------------------------------------------------

          program call               : xtb pipeline_data/3_conformer_xyz/acrylates/rdkit/COCLLEMEIJQBAG-UHFFFAOYSA-N_conf57.xyz --opt --gfn 2-xTB --iterations 250
          coordinate file            : pipeline_data/3_conformer_xyz/acrylates/rdkit/COCLLEMEIJQBAG-UHFFFAOYSA-N_conf57.xyz
          omp threads                :                    24

########################################################################
[WARNING] Please study the warnings concerning your input carefully
-1- readin_getIntValue: could not parse '2-xTB'
########################################################################

           -------------------------------------------------
          |                 G F N 2 - x T B                 |
           -------------------------------------------------

        Reference                      10.1021/acs.jctc.8b01176
      * Hamiltonian:
        H0-scaling (s, p, d)           1.850000    2.230000    2.230000
        zeta-weighting                 0.500000
      * Dispersion:
        s8                             2.700000
        a1                             0.520000
        a2                             5.000000
        s9                             5.000000
      * Repulsion:
        kExp                           1.500000    1.000000
        rExp                           1.000000
      * Coulomb:
        alpha                          2.000000
        third order                    shell-resolved
        anisotropic                    true
        a3                             3.000000
        a5                             4.000000
        cn-shift                       1.200000
        cn-exp                         4.000000
        max-rad                        5.000000

q/qsh data taken from xtbrestart
CAMM data taken from xtbrestart

          ...................................................
          :                      SETUP                      :
          :.................................................:
          :  # basis functions                  90          :
          :  # atomic orbitals                  90          :
          :  # shells                           58          :
          :  # electrons                        94          :
          :  max. iterations                   250          :
          :  Hamiltonian                  GFN2-xTB          :
          :  restarted?                       true          :
          :  GBSA solvation                  false          :
          :  PC potential                    false          :
          :  electronic temp.          300.0000000     K    :
          :  accuracy                    1.0000000          :
          :  -> integral cutoff          0.2500000E+02      :
          :  -> integral neglect         0.1000000E-07      :
          :  -> SCF convergence          0.1000000E-05 Eh   :
          :  -> wf. convergence          0.1000000E-03 e    :
          :  Broyden damping             0.4000000          :
          :  net charge                          0          :
          :  unpaired electrons                  0          :
          ...................................................

 iter      E             dE          RMSdq      gap      omega  full diag
   1    -51.9908506 -0.519909E+02  0.397E+00    3.57       0.0  T
   2    -51.9989941 -0.814353E-02  0.232E+00    3.28       1.0  T
   3    -51.9700002  0.289939E-01  0.105E+00    3.63       1.0  T
   4    -52.0049227 -0.349226E-01  0.157E-01    3.40       1.0  T
   5    -52.0051036 -0.180882E-03  0.885E-02    3.38       1.0  T
   6    -52.0051217 -0.180585E-04  0.266E-02    3.40       1.0  T
   7    -52.0051359 -0.141943E-04  0.108E-02    3.39       1.4  T
   8    -52.0051365 -0.656388E-06  0.520E-03    3.39       3.0  T
   9    -52.0051367 -0.146251E-06  0.152E-03    3.39      10.2  T
  10    -52.0051367 -0.103370E-07  0.571E-04    3.39      27.0  T
  11    -52.0051367 -0.206554E-08  0.170E-04    3.39      90.8  T

   *** convergence criteria satisfied after 11 iterations ***

         #    Occupation            Energy/Eh            Energy/eV
      -------------------------------------------------------------
         1        2.0000           -0.7288207             -19.8322
       ...           ...                  ...                  ...
        41        2.0000           -0.4258613             -11.5883
        42        2.0000           -0.4219837             -11.4828
        43        2.0000           -0.4184715             -11.3872
        44        2.0000           -0.4181089             -11.3773
        45        2.0000           -0.4101585             -11.1610
        46        2.0000           -0.4091823             -11.1344
        47        2.0000           -0.4044089             -11.0045 (HOMO)
        48                         -0.2798731              -7.6157 (LUMO)
        49                         -0.1671923              -4.5495
        50                         -0.0152011              -0.4136
        51                          0.0666968               1.8149
        52                          0.0708836               1.9288
       ...                                ...                  ...
        90                          0.6385473              17.3758
      -------------------------------------------------------------
                  HL-Gap            0.1245357 Eh            3.3888 eV
             Fermi-level           -0.3421410 Eh           -9.3101 eV

 SCC (total)                   0 d,  0 h,  0 min,  0.035 sec
 SCC setup                      ...        0 min,  0.000 sec (  0.862%)
 Dispersion                     ...        0 min,  0.000 sec (  1.305%)
 classical contributions        ...        0 min,  0.000 sec (  0.217%)
 integral evaluation            ...        0 min,  0.002 sec (  5.868%)
 iterations                     ...        0 min,  0.028 sec ( 77.845%)
 molecular gradient             ...        0 min,  0.004 sec ( 12.367%)
 printout                       ...        0 min,  0.001 sec (  1.441%)

         :::::::::::::::::::::::::::::::::::::::::::::::::::::
         ::                     SUMMARY                     ::
         :::::::::::::::::::::::::::::::::::::::::::::::::::::
         :: total energy             -51.344833816951 Eh    ::
         :: gradient norm              0.145981471198 Eh/a0 ::
         :: HOMO-LUMO gap              3.388789532311 eV    ::
         ::.................................................::
         :: SCC energy               -52.005013993004 Eh    ::
         :: -> isotropic ES            0.052703560002 Eh    ::
         :: -> anisotropic ES          0.009086006540 Eh    ::
         :: -> anisotropic XC          0.025468862796 Eh    ::
         :: -> dispersion             -0.031563205050 Eh    ::
         :: repulsion energy           0.660180176053 Eh    ::
         :: add. restraining           0.000000000000 Eh    ::
         :: total charge               0.000000000000 e     ::
         :::::::::::::::::::::::::::::::::::::::::::::::::::::

      ----------------------------------------------------------- 
     |                   =====================                   |
     |                        A N C O P T                        |
     |                   =====================                   |
     |               Approximate Normal Coordinate               |
     |                Rational Function Optimizer                |
      ----------------------------------------------------------- 
      ----------------------------------------------------------- 
     |                   =====================                   |
     |                        A N C O P T                        |
     |                   =====================                   |
     |               Approximate Normal Coordinate               |
     |                Rational Function Optimizer                |
      ----------------------------------------------------------- 

          ...................................................
          :                      SETUP                      :
          :.................................................:
          :   optimization level            normal          :
          :   max. optcycles                   200          :
          :   ANC micro-cycles                  20          :
          :   degrees of freedom               120          :
          :.................................................:
          :   RF solver                   davidson          :
          :   write xtbopt.log                true          :
          :   linear?                        false          :
          :   energy convergence         0.5000000E-05 Eh   :
          :   grad. convergence          0.1000000E-02 Eh/α :
          :   maxmium RF displ.          1.0000000          :
          :   Hlow (freq-cutoff)         0.1000000E-01      :
          :   Hmax (freq-cutoff)         5.0000000          :
          :   S6 in model hess.         20.0000000          :
          ...................................................

generating ANC from exact Hessian ...
Using Lindh-Hessian (1995)
 Shifting diagonal of input Hessian by   9.880294957366132E-003
 Lowest  eigenvalues of input Hessian
    0.000000    0.000000    0.000000    0.000000    0.000000    0.000000
    0.010000    0.010185    0.010295    0.010532    0.010739    0.011996
    0.012667    0.013060    0.014451    0.015434    0.016371    0.017440
 Highest eigenvalues
    1.313918    1.354008    1.486341    1.765557    1.986784    2.123434
 

........................................................................
.............................. CYCLE    1 ..............................
........................................................................

 iter      E             dE          RMSdq      gap      omega  full diag
   1    -52.0051367 -0.520051E+02  0.362E-05    3.39       0.0  T
   2    -52.0051367 -0.542144E-11  0.209E-05    3.39     739.0  T
   3    -52.0051367  0.369482E-12  0.164E-05    3.39     939.2  T
     SCC iter.                  ...        0 min,  0.006 sec
     gradient                   ...        0 min,  0.004 sec
 * total energy  :   -51.3448338 Eh     change       -0.1296456E-09 Eh
   gradient norm :     0.1459820 Eh/α   predicted     0.0000000E+00 (-100.00%)
   displ. norm   :     0.4331337 α      lambda       -0.3363891E-01
   maximum displ.:     0.1566323 α      in ANC's #19, #23, #11, ...

........................................................................
.............................. CYCLE    2 ..............................
........................................................................

 iter      E             dE          RMSdq      gap      omega  full diag
   1    -52.0616814 -0.520617E+02  0.285E-01    3.54       0.0  T
   2    -52.0619611 -0.279785E-03  0.171E-01    3.58       1.0  T
   3    -52.0618536  0.107553E-03  0.769E-02    3.58       1.0  T
   4    -52.0619750 -0.121411E-03  0.303E-02    3.59       1.0  T
   5    -52.0620055 -0.305026E-04  0.730E-03    3.58       2.1  T
   6    -52.0620061 -0.633874E-06  0.399E-03    3.59       3.9  T
   7    -52.0620062 -0.706729E-07  0.109E-03    3.58      14.2  T
   8    -52.0620062 -0.471247E-08  0.489E-04    3.58      31.6  T
   9    -52.0620062 -0.102822E-08  0.135E-04    3.58     114.3  T
     SCC iter.                  ...        0 min,  0.017 sec
     gradient                   ...        0 min,  0.004 sec
 * total energy  :   -51.3680235 Eh     change       -0.2318967E-01 Eh
   gradient norm :     0.0574370 Eh/α   predicted    -0.2000647E-01 ( -13.73%)
   displ. norm   :     0.4311499 α      lambda       -0.1020369E-01
   maximum displ.:     0.2030837 α      in ANC's #19, #23, #11, ...

........................................................................
.............................. CYCLE    3 ..............................
........................................................................

 iter      E             dE          RMSdq      gap      omega  full diag
   1    -52.0835058 -0.520835E+02  0.164E-01    3.70       0.0  T
   2    -52.0836074 -0.101607E-03  0.996E-02    3.73       1.0  T
   3    -52.0835581  0.493330E-04  0.524E-02    3.72       1.0  T
   4    -52.0836162 -0.581734E-04  0.185E-02    3.73       1.0  T
   5    -52.0836272 -0.109790E-04  0.378E-03    3.73       4.1  T
   6    -52.0836274 -0.156786E-06  0.199E-03    3.73       7.8  T
   7    -52.0836274 -0.175605E-07  0.595E-04    3.73      25.9  T
   8    -52.0836274 -0.132652E-08  0.265E-04    3.73      58.3  T
     SCC iter.                  ...        0 min,  0.015 sec
     gradient                   ...        0 min,  0.004 sec
 * total energy  :   -51.3745245 Eh     change       -0.6501005E-02 Eh
   gradient norm :     0.0143213 Eh/α   predicted    -0.6050226E-02 (  -6.93%)
   displ. norm   :     0.3771533 α      lambda       -0.2765327E-02
   maximum displ.:     0.1688572 α      in ANC's #11, #19, #23, ...

........................................................................
.............................. CYCLE    4 ..............................
........................................................................

 iter      E             dE          RMSdq      gap      omega  full diag
   1    -52.0814109 -0.520814E+02  0.964E-02    3.76       0.0  T
   2    -52.0814223 -0.113387E-04  0.575E-02    3.76       1.0  T
   3    -52.0814067  0.155660E-04  0.236E-02    3.76       1.0  T
   4    -52.0814235 -0.167990E-04  0.666E-03    3.76       2.3  T
   5    -52.0814249 -0.141420E-05  0.138E-03    3.76      11.2  T
   6    -52.0814249 -0.577006E-08  0.660E-04    3.76      23.4  T
   7    -52.0814249 -0.190783E-08  0.208E-04    3.76      74.3  T
     SCC iter.                  ...        0 min,  0.013 sec
     gradient                   ...        0 min,  0.004 sec
 * total energy  :   -51.3764967 Eh     change       -0.1972241E-02 Eh
   gradient norm :     0.0090021 Eh/α   predicted    -0.1579499E-02 ( -19.91%)
   displ. norm   :     0.3609232 α      lambda       -0.1384206E-02
   maximum displ.:     0.1706691 α      in ANC's #11, #10, #23, ...

........................................................................
.............................. CYCLE    5 ..............................
........................................................................

 iter      E             dE          RMSdq      gap      omega  full diag
   1    -52.0778340 -0.520778E+02  0.892E-02    3.78       0.0  T
   2    -52.0778408 -0.672159E-05  0.530E-02    3.78       1.0  T
   3    -52.0778321  0.869221E-05  0.171E-02    3.78       1.0  T
   4    -52.0778415 -0.938262E-05  0.542E-03    3.78       2.8  T
   5    -52.0778423 -0.880205E-06  0.137E-03    3.78      11.2  T
   6    -52.0778423 -0.279690E-08  0.467E-04    3.78      33.1  T
   7    -52.0778423 -0.126925E-08  0.158E-04    3.78      97.4  T
     SCC iter.                  ...        0 min,  0.013 sec
     gradient                   ...        0 min,  0.004 sec
 * total energy  :   -51.3774352 Eh     change       -0.9385167E-03 Eh
   gradient norm :     0.0074932 Eh/α   predicted    -0.7822653E-03 ( -16.65%)
   displ. norm   :     0.2651206 α      lambda       -0.5819267E-03
   maximum displ.:     0.1116803 α      in ANC's #11, #4, #18, ...

........................................................................
.............................. CYCLE    6 ..............................
........................................................................

 iter      E             dE          RMSdq      gap      omega  full diag
   1    -52.0771422 -0.520771E+02  0.684E-02    3.79       0.0  T
   2    -52.0771432 -0.104218E-05  0.405E-02    3.80       1.0  T
   3    -52.0771396  0.365668E-05  0.110E-02    3.79       1.4  T
   4    -52.0771439 -0.436832E-05  0.203E-03    3.79       7.6  T
   5    -52.0771440 -0.351015E-07  0.104E-03    3.79      14.8  T
   6    -52.0771440 -0.288221E-08  0.279E-04    3.79      55.3  T
   7    -52.0771440 -0.825210E-09  0.118E-04    3.79     131.1  T
     SCC iter.                  ...        0 min,  0.013 sec
     gradient                   ...        0 min,  0.004 sec
 * total energy  :   -51.3778528 Eh     change       -0.4175278E-03 Eh
   gradient norm :     0.0065780 Eh/α   predicted    -0.3114300E-03 ( -25.41%)
   displ. norm   :     0.2762470 α      lambda       -0.4576428E-03
   maximum displ.:     0.1271576 α      in ANC's #4, #15, #18, ...

........................................................................
.............................. CYCLE    7 ..............................
........................................................................

 iter      E             dE          RMSdq      gap      omega  full diag
   1    -52.0769514 -0.520770E+02  0.777E-02    3.80       0.0  T
   2    -52.0769539 -0.241872E-05  0.459E-02    3.80       1.0  T
   3    -52.0769533  0.575887E-06  0.666E-03    3.80       2.3  T
   4    -52.0769544 -0.110770E-05  0.305E-03    3.80       5.1  T
   5    -52.0769546 -0.181048E-06  0.146E-03    3.80      10.6  T
   6    -52.0769546 -0.987995E-08  0.566E-04    3.80      27.3  T
   7    -52.0769546 -0.461376E-08  0.136E-04    3.80     113.2  T
     SCC iter.                  ...        0 min,  0.014 sec
     gradient                   ...        0 min,  0.004 sec
 * total energy  :   -51.3781729 Eh     change       -0.3201262E-03 Eh
   gradient norm :     0.0088276 Eh/α   predicted    -0.2462874E-03 ( -23.07%)
   displ. norm   :     0.2699769 α      lambda       -0.4083380E-03
   maximum displ.:     0.1389376 α      in ANC's #4, #15, #14, ...

........................................................................
.............................. CYCLE    8 ..............................
........................................................................

 iter      E             dE          RMSdq      gap      omega  full diag
   1    -52.0790174 -0.520790E+02  0.711E-02    3.82       0.0  T
   2    -52.0790225 -0.509269E-05  0.421E-02    3.83       1.0  T
   3    -52.0790207  0.184045E-05  0.100E-02    3.82       1.5  T
   4    -52.0790226 -0.192025E-05  0.462E-03    3.82       3.3  T
   5    -52.0790233 -0.690758E-06  0.137E-03    3.82      11.2  T
   6    -52.0790233 -0.561732E-08  0.589E-04    3.82      26.2  T
   7    -52.0790233 -0.370560E-08  0.124E-04    3.82     124.9  T
     SCC iter.                  ...        0 min,  0.013 sec
     gradient                   ...        0 min,  0.004 sec
 * total energy  :   -51.3784233 Eh     change       -0.2503959E-03 Eh
   gradient norm :     0.0059960 Eh/α   predicted    -0.2190641E-03 ( -12.51%)
   displ. norm   :     0.2305463 α      lambda       -0.2827325E-03
   maximum displ.:     0.1313199 α      in ANC's #4, #17, #15, ...

........................................................................
.............................. CYCLE    9 ..............................
........................................................................

 iter      E             dE          RMSdq      gap      omega  full diag
   1    -52.0795523 -0.520796E+02  0.670E-02    3.83       0.0  T
   2    -52.0795550 -0.277818E-05  0.394E-02    3.82       1.0  T
   3    -52.0795552 -0.154311E-06  0.439E-03    3.82       3.5  T
   4    -52.0795554 -0.239232E-06  0.235E-03    3.82       6.6  T
   5    -52.0795555 -0.905795E-07  0.128E-03    3.82      12.0  T
   6    -52.0795555 -0.840473E-08  0.531E-04    3.82      29.1  T
   7    -52.0795555 -0.560589E-08  0.111E-04    3.82     139.2  T
     SCC iter.                  ...        0 min,  0.012 sec
     gradient                   ...        0 min,  0.004 sec
 * total energy  :   -51.3786039 Eh     change       -0.1805928E-03 Eh
   gradient norm :     0.0084517 Eh/α   predicted    -0.1488819E-03 ( -17.56%)
   displ. norm   :     0.1723753 α      lambda       -0.2142924E-03
   maximum displ.:     0.0998732 α      in ANC's #4, #17, #15, ...

........................................................................
.............................. CYCLE   10 ..............................
........................................................................

 iter      E             dE          RMSdq      gap      omega  full diag
   1    -52.0821498 -0.520821E+02  0.379E-02    3.85       0.0  T
   2    -52.0821523 -0.247434E-05  0.229E-02    3.85       1.0  T
   3    -52.0821511  0.114935E-05  0.736E-03    3.85       2.1  T
   4    -52.0821525 -0.140784E-05  0.262E-03    3.85       5.9  T
   5    -52.0821527 -0.199128E-06  0.893E-04    3.85      17.3  T
   6    -52.0821528 -0.716889E-08  0.463E-04    3.85      33.4  T
     SCC iter.                  ...        0 min,  0.010 sec
     gradient                   ...        0 min,  0.004 sec
 * total energy  :   -51.3787368 Eh     change       -0.1329251E-03 Eh
   gradient norm :     0.0032758 Eh/α   predicted    -0.1103374E-03 ( -16.99%)
   displ. norm   :     0.2455965 α      lambda       -0.1577758E-03
   maximum displ.:     0.1525969 α      in ANC's #4, #15, #14, ...

........................................................................
.............................. CYCLE   11 ..............................
........................................................................

 iter      E             dE          RMSdq      gap      omega  full diag
   1    -52.0799824 -0.520800E+02  0.651E-02    3.86       0.0  T
   2    -52.0799839 -0.148304E-05  0.383E-02    3.86       1.0  T
   3    -52.0799832  0.662370E-06  0.645E-03    3.85       2.4  T
   4    -52.0799843 -0.105489E-05  0.240E-03    3.86       6.4  T
   5    -52.0799844 -0.111710E-06  0.124E-03    3.86      12.5  T
   6    -52.0799844 -0.923207E-08  0.459E-04    3.86      33.6  T
   7    -52.0799844 -0.242317E-08  0.101E-04    3.86     153.5  T
     SCC iter.                  ...        0 min,  0.011 sec
     gradient                   ...        0 min,  0.005 sec
 * total energy  :   -51.3788190 Eh     change       -0.8214418E-04 Eh
   gradient norm :     0.0046648 Eh/α   predicted    -0.8365071E-04 (   1.83%)
   displ. norm   :     0.1090996 α      lambda       -0.9892265E-04
   maximum displ.:     0.0672150 α      in ANC's #4, #7, #18, ...

........................................................................
.............................. CYCLE   12 ..............................
........................................................................

 iter      E             dE          RMSdq      gap      omega  full diag
   1    -52.0812758 -0.520813E+02  0.221E-02    3.86       0.0  T
   2    -52.0812766 -0.725871E-06  0.130E-02    3.86       1.2  T
   3    -52.0812765  0.962731E-07  0.293E-03    3.86       5.3  T
   4    -52.0812766 -0.158170E-06  0.908E-04    3.86      17.0  T
   5    -52.0812766 -0.171493E-07  0.469E-04    3.86      32.9  T
     SCC iter.                  ...        0 min,  0.008 sec
     gradient                   ...        0 min,  0.004 sec
 * total energy  :   -51.3788879 Eh     change       -0.6888982E-04 Eh
   gradient norm :     0.0026270 Eh/α   predicted    -0.5006529E-04 ( -27.33%)
   displ. norm   :     0.2037574 α      lambda       -0.1089570E-03
   maximum displ.:     0.1283561 α      in ANC's #4, #15, #7, ...

........................................................................
.............................. CYCLE   13 ..............................
........................................................................

 iter      E             dE          RMSdq      gap      omega  full diag
   1    -52.0808579 -0.520809E+02  0.389E-02    3.87       0.0  T
   2    -52.0808585 -0.591804E-06  0.231E-02    3.87       1.0  T
   3    -52.0808583  0.182232E-06  0.314E-03    3.87       4.9  T
   4    -52.0808586 -0.309404E-06  0.895E-04    3.87      17.2  T
   5    -52.0808586 -0.353035E-08  0.596E-04    3.87      25.9  T
     SCC iter.                  ...        0 min,  0.008 sec
     gradient                   ...        0 min,  0.008 sec
 * total energy  :   -51.3789551 Eh     change       -0.6727537E-04 Eh
   gradient norm :     0.0046545 Eh/α   predicted    -0.5674290E-04 ( -15.66%)
   displ. norm   :     0.1916123 α      lambda       -0.8754811E-04
   maximum displ.:     0.1253019 α      in ANC's #4, #7, #15, ...

........................................................................
.............................. CYCLE   14 ..............................
........................................................................

 iter      E             dE          RMSdq      gap      omega  full diag
   1    -52.0814220 -0.520814E+02  0.382E-02    3.87       0.0  T
   2    -52.0814227 -0.645416E-06  0.224E-02    3.87       1.0  T
   3    -52.0814225  0.148133E-06  0.300E-03    3.86       5.1  T
   4    -52.0814227 -0.176024E-06  0.165E-03    3.87       9.4  T
   5    -52.0814228 -0.800153E-07  0.508E-04    3.86      30.4  T
   6    -52.0814228 -0.820755E-09  0.154E-04    3.87     100.4  T
     SCC iter.                  ...        0 min,  0.019 sec
     gradient                   ...        0 min,  0.004 sec
 * total energy  :   -51.3790135 Eh     change       -0.5834138E-04 Eh
   gradient norm :     0.0032487 Eh/α   predicted    -0.4538628E-04 ( -22.21%)
   displ. norm   :     0.1582810 α      lambda       -0.6517764E-04
   maximum displ.:     0.1001735 α      in ANC's #4, #2, #5, ...

........................................................................
.............................. CYCLE   15 ..............................
........................................................................

 iter      E             dE          RMSdq      gap      omega  full diag
   1    -52.0815572 -0.520816E+02  0.278E-02    3.86       0.0  T
   2    -52.0815575 -0.261531E-06  0.165E-02    3.86       1.0  T
   3    -52.0815574  0.695411E-07  0.198E-03    3.86       7.8  T
   4    -52.0815576 -0.116478E-06  0.657E-04    3.86      23.5  T
   5    -52.0815576 -0.535588E-08  0.417E-04    3.86      37.0  T
     SCC iter.                  ...        0 min,  0.008 sec
     gradient                   ...        0 min,  0.005 sec
 * total energy  :   -51.3790645 Eh     change       -0.5107976E-04 Eh
   gradient norm :     0.0023795 Eh/α   predicted    -0.3340812E-04 ( -34.60%)
   displ. norm   :     0.1993176 α      lambda       -0.7105501E-04
   maximum displ.:     0.1232698 α      in ANC's #4, #5, #2, ...

........................................................................
.............................. CYCLE   16 ..............................
........................................................................

 iter      E             dE          RMSdq      gap      omega  full diag
   1    -52.0816684 -0.520817E+02  0.359E-02    3.86       0.0  T
   2    -52.0816686 -0.161592E-06  0.212E-02    3.86       1.0  T
   3    -52.0816686 -0.380399E-07  0.864E-04    3.86      17.9  T
   4    -52.0816686 -0.440102E-08  0.460E-04    3.86      33.5  T
     SCC iter.                  ...        0 min,  0.006 sec
     gradient                   ...        0 min,  0.004 sec
 * total energy  :   -51.3791135 Eh     change       -0.4891011E-04 Eh
   gradient norm :     0.0019073 Eh/α   predicted    -0.3694122E-04 ( -24.47%)
   displ. norm   :     0.2311393 α      lambda       -0.3730350E-04
   maximum displ.:     0.1539773 α      in ANC's #4, #2, #5, ...

........................................................................
.............................. CYCLE   17 ..............................
........................................................................

 iter      E             dE          RMSdq      gap      omega  full diag
   1    -52.0808540 -0.520809E+02  0.425E-02    3.86       0.0  T
   2    -52.0808546 -0.621315E-06  0.252E-02    3.86       1.0  T
   3    -52.0808529  0.169088E-05  0.705E-03    3.86       2.2  T
   4    -52.0808548 -0.188335E-05  0.171E-03    3.86       9.0  T
   5    -52.0808549 -0.798621E-07  0.521E-04    3.86      29.6  T
   6    -52.0808549 -0.735994E-09  0.212E-04    3.86      72.8  T
     SCC iter.                  ...        0 min,  0.009 sec
     gradient                   ...        0 min,  0.004 sec
 * total energy  :   -51.3791452 Eh     change       -0.3170949E-04 Eh
   gradient norm :     0.0026427 Eh/α   predicted    -0.1909916E-04 ( -39.77%)
   displ. norm   :     0.1143064 α      lambda       -0.3759937E-04
   maximum displ.:     0.0637994 α      in ANC's #4, #5, #2, ...

........................................................................
.............................. CYCLE   18 ..............................
........................................................................

 iter      E             dE          RMSdq      gap      omega  full diag
   1    -52.0820118 -0.520820E+02  0.283E-02    3.86       0.0  T
   2    -52.0820122 -0.337543E-06  0.166E-02    3.86       1.0  T
   3    -52.0820120  0.113269E-06  0.225E-03    3.86       6.9  T
   4    -52.0820122 -0.153561E-06  0.731E-04    3.86      21.1  T
   5    -52.0820122 -0.128338E-07  0.341E-04    3.86      45.3  T
     SCC iter.                  ...        0 min,  0.008 sec
     gradient                   ...        0 min,  0.004 sec
 * total energy  :   -51.3791688 Eh     change       -0.2366158E-04 Eh
   gradient norm :     0.0023314 Eh/α   predicted    -0.1904711E-04 ( -19.50%)
   displ. norm   :     0.2268321 α      lambda       -0.6503038E-04
   maximum displ.:     0.1566987 α      in ANC's #4, #2, #5, ...

........................................................................
.............................. CYCLE   19 ..............................
........................................................................

 iter      E             dE          RMSdq      gap      omega  full diag
   1    -52.0816317 -0.520816E+02  0.547E-02    3.87       0.0  T
   2    -52.0816322 -0.537735E-06  0.322E-02    3.86       1.0  T
   3    -52.0816322  0.396381E-07  0.231E-03    3.87       6.7  T
   4    -52.0816323 -0.142514E-06  0.692E-04    3.87      22.3  T
   5    -52.0816323 -0.166435E-08  0.437E-04    3.87      35.3  T
     SCC iter.                  ...        0 min,  0.008 sec
     gradient                   ...        0 min,  0.005 sec
 * total energy  :   -51.3792128 Eh     change       -0.4392299E-04 Eh
   gradient norm :     0.0034394 Eh/α   predicted    -0.3418958E-04 ( -22.16%)
   displ. norm   :     0.2920489 α      lambda       -0.8219486E-04
   maximum displ.:     0.2088502 α      in ANC's #4, #2, #3, ...

........................................................................
.............................. CYCLE   20 ..............................
........................................................................

 iter      E             dE          RMSdq      gap      omega  full diag
   1    -52.0812394 -0.520812E+02  0.737E-02    3.86       0.0  T
   2    -52.0812399 -0.494328E-06  0.435E-02    3.86       1.0  T
   3    -52.0812365  0.340200E-05  0.980E-03    3.86       1.6  T
   4    -52.0812403 -0.381420E-05  0.127E-03    3.86      12.1  T
   5    -52.0812403 -0.213218E-07  0.644E-04    3.86      23.9  T
   6    -52.0812403 -0.153397E-08  0.177E-04    3.86      87.3  T
     SCC iter.                  ...        0 min,  0.010 sec
     gradient                   ...        0 min,  0.004 sec
 * total energy  :   -51.3792659 Eh     change       -0.5314507E-04 Eh
   gradient norm :     0.0030643 Eh/α   predicted    -0.4460502E-04 ( -16.07%)
   displ. norm   :     0.1381242 α      lambda       -0.3367557E-04
   maximum displ.:     0.1033166 α      in ANC's #4, #2, #3, ...
 * RMSD in coord.:     0.5077050 α      energy gain  -0.3443208E-01 Eh

generating ANC from exact Hessian ...
Using Lindh-Hessian (1995)
 Shifting diagonal of input Hessian by   9.862815495275380E-003
 Lowest  eigenvalues of input Hessian
    0.000000    0.000000    0.000000    0.000000    0.000000    0.000000
    0.010000    0.010243    0.010333    0.010561    0.010829    0.011879
    0.012468    0.012991    0.014401    0.015504    0.015911    0.017489
 Highest eigenvalues
    1.293940    1.318349    1.458412    1.768202    1.978942    2.377162
 

........................................................................
.............................. CYCLE   21 ..............................
........................................................................

 iter      E             dE          RMSdq      gap      omega  full diag
   1    -52.0814171 -0.520814E+02  0.388E-02    3.86       0.0  T
   2    -52.0814173 -0.156838E-06  0.229E-02    3.86       1.0  T
   3    -52.0814165  0.817240E-06  0.484E-03    3.86       3.2  T
   4    -52.0814174 -0.918160E-06  0.677E-04    3.86      22.8  T
   5    -52.0814174 -0.679766E-08  0.317E-04    3.86      48.7  T
     SCC iter.                  ...        0 min,  0.014 sec
     gradient                   ...        0 min,  0.004 sec
 * total energy  :   -51.3792912 Eh     change       -0.2525716E-04 Eh
   gradient norm :     0.0020165 Eh/α   predicted     0.0000000E+00 (-100.00%)
   displ. norm   :     0.0239659 α      lambda       -0.1405982E-04
   maximum displ.:     0.0138862 α      in ANC's #5, #4, #7, ...

........................................................................
.............................. CYCLE   22 ..............................
........................................................................

 iter      E             dE          RMSdq      gap      omega  full diag
   1    -52.0818429 -0.520818E+02  0.929E-03    3.86       0.0  T
   2    -52.0818429 -0.407429E-07  0.546E-03    3.86       2.8  T
   3    -52.0818429  0.535002E-08  0.614E-04    3.86      25.1  T
   4    -52.0818429 -0.895022E-08  0.232E-04    3.86      66.6  T
     SCC iter.                  ...        0 min,  0.007 sec
     gradient                   ...        0 min,  0.005 sec
 * total energy  :   -51.3793026 Eh     change       -0.1146359E-04 Eh
   gradient norm :     0.0008325 Eh/α   predicted    -0.7159308E-05 ( -37.55%)
   displ. norm   :     0.0986198 α      lambda       -0.1982206E-04
   maximum displ.:     0.0574004 α      in ANC's #5, #4, #7, ...

........................................................................
.............................. CYCLE   23 ..............................
........................................................................

 iter      E             dE          RMSdq      gap      omega  full diag
   1    -52.0823780 -0.520824E+02  0.321E-02    3.86       0.0  T
   2    -52.0823783 -0.205474E-06  0.188E-02    3.86       1.0  T
   3    -52.0823782  0.603537E-07  0.185E-03    3.86       8.3  T
   4    -52.0823783 -0.862636E-07  0.737E-04    3.86      20.9  T
   5    -52.0823783 -0.148537E-07  0.298E-04    3.86      51.8  T
     SCC iter.                  ...        0 min,  0.008 sec
     gradient                   ...        0 min,  0.005 sec
 * total energy  :   -51.3793202 Eh     change       -0.1758301E-04 Eh
   gradient norm :     0.0019526 Eh/α   predicted    -0.1085561E-04 ( -38.26%)
   displ. norm   :     0.0616360 α      lambda       -0.9895854E-05
   maximum displ.:     0.0350978 α      in ANC's #5, #4, #7, ...

........................................................................
.............................. CYCLE   24 ..............................
........................................................................

 iter      E             dE          RMSdq      gap      omega  full diag
   1    -52.0821678 -0.520822E+02  0.155E-02    3.86       0.0  T
   2    -52.0821679 -0.233112E-07  0.915E-03    3.86       1.7  T
   3    -52.0821678  0.104621E-06  0.178E-03    3.86       8.7  T
   4    -52.0821679 -0.117758E-06  0.243E-04    3.86      63.4  T
   5    -52.0821679 -0.967113E-09  0.103E-04    3.86     150.4  T
     SCC iter.                  ...        0 min,  0.010 sec
     gradient                   ...        0 min,  0.004 sec
 * total energy  :   -51.3793335 Eh     change       -0.1331862E-04 Eh
   gradient norm :     0.0016309 Eh/α   predicted    -0.4956497E-05 ( -62.79%)
   displ. norm   :     0.2077357 α      lambda       -0.3180951E-04
   maximum displ.:     0.1122692 α      in ANC's #5, #4, #7, ...

........................................................................
.............................. CYCLE   25 ..............................
........................................................................

 iter      E             dE          RMSdq      gap      omega  full diag
   1    -52.0813794 -0.520814E+02  0.550E-02    3.86       0.0  T
   2    -52.0813797 -0.241259E-06  0.324E-02    3.86       1.0  T
   3    -52.0813788  0.809888E-06  0.495E-03    3.86       3.1  T
   4    -52.0813798 -0.940025E-06  0.857E-04    3.86      18.0  T
   5    -52.0813798 -0.959009E-08  0.367E-04    3.86      42.0  T
     SCC iter.                  ...        0 min,  0.008 sec
     gradient                   ...        0 min,  0.005 sec
 * total energy  :   -51.3793635 Eh     change       -0.2998924E-04 Eh
   gradient norm :     0.0012773 Eh/α   predicted    -0.1624640E-04 ( -45.83%)
   displ. norm   :     0.1840314 α      lambda       -0.2010499E-04
   maximum displ.:     0.0980641 α      in ANC's #5, #4, #7, ...

........................................................................
.............................. CYCLE   26 ..............................
........................................................................

 iter      E             dE          RMSdq      gap      omega  full diag
   1    -52.0811308 -0.520811E+02  0.493E-02    3.85       0.0  T
   2    -52.0811309 -0.128953E-06  0.290E-02    3.85       1.0  T
   3    -52.0811302  0.729136E-06  0.466E-03    3.85       3.3  T
   4    -52.0811311 -0.838187E-06  0.605E-04    3.85      25.5  T
   5    -52.0811311 -0.141019E-08  0.263E-04    3.85      58.6  T
     SCC iter.                  ...        0 min,  0.008 sec
     gradient                   ...        0 min,  0.004 sec
 * total energy  :   -51.3793769 Eh     change       -0.1340463E-04 Eh
   gradient norm :     0.0018908 Eh/α   predicted    -0.1020734E-04 ( -23.85%)
   displ. norm   :     0.0805737 α      lambda       -0.1095936E-04
   maximum displ.:     0.0441475 α      in ANC's #4, #5, #7, ...

........................................................................
.............................. CYCLE   27 ..............................
........................................................................

 iter      E             dE          RMSdq      gap      omega  full diag
   1    -52.0815393 -0.520815E+02  0.252E-02    3.85       0.0  T
   2    -52.0815393 -0.484796E-07  0.148E-02    3.85       1.0  T
   3    -52.0815393 -0.970481E-08  0.573E-04    3.85      26.9  T
   4    -52.0815393 -0.496147E-08  0.278E-04    3.85      55.4  T
     SCC iter.                  ...        0 min,  0.012 sec
     gradient                   ...        0 min,  0.006 sec
 * total energy  :   -51.3793893 Eh     change       -0.1241115E-04 Eh
   gradient norm :     0.0011562 Eh/α   predicted    -0.5497353E-05 ( -55.71%)
   displ. norm   :     0.1503167 α      lambda       -0.1746850E-04
   maximum displ.:     0.0840242 α      in ANC's #4, #5, #3, ...

........................................................................
.............................. CYCLE   28 ..............................
........................................................................

 iter      E             dE          RMSdq      gap      omega  full diag
   1    -52.0821653 -0.520822E+02  0.514E-02    3.86       0.0  T
   2    -52.0821655 -0.178274E-06  0.302E-02    3.86       1.0  T
   3    -52.0821655 -0.500194E-07  0.890E-04    3.86      17.3  T
   4    -52.0821655 -0.794564E-08  0.455E-04    3.86      33.9  T
     SCC iter.                  ...        0 min,  0.012 sec
     gradient                   ...        0 min,  0.008 sec
 * total energy  :   -51.3794075 Eh     change       -0.1820865E-04 Eh
   gradient norm :     0.0009101 Eh/α   predicted    -0.8831721E-05 ( -51.50%)
   displ. norm   :     0.2003719 α      lambda       -0.1658008E-04
   maximum displ.:     0.1121149 α      in ANC's #4, #5, #3, ...

........................................................................
.............................. CYCLE   29 ..............................
........................................................................

 iter      E             dE          RMSdq      gap      omega  full diag
   1    -52.0820894 -0.520821E+02  0.631E-02    3.86       0.0  T
   2    -52.0820896 -0.223552E-06  0.371E-02    3.85       1.0  T
   3    -52.0820886  0.100300E-05  0.544E-03    3.86       2.8  T
   4    -52.0820898 -0.116619E-05  0.788E-04    3.85      19.6  T
   5    -52.0820898 -0.375312E-08  0.306E-04    3.85      50.4  T
   6    -52.0820898 -0.437389E-09  0.954E-05    3.85     161.8  T
     SCC iter.                  ...        0 min,  0.020 sec
     gradient                   ...        0 min,  0.007 sec
 * total energy  :   -51.3794274 Eh     change       -0.1984579E-04 Eh
   gradient norm :     0.0010235 Eh/α   predicted    -0.8443007E-05 ( -57.46%)
   displ. norm   :     0.2331029 α      lambda       -0.1809174E-04
   maximum displ.:     0.1305404 α      in ANC's #4, #3, #5, ...

........................................................................
.............................. CYCLE   30 ..............................
........................................................................

 iter      E             dE          RMSdq      gap      omega  full diag
   1    -52.0817867 -0.520818E+02  0.740E-02    3.86       0.0  T
   2    -52.0817870 -0.279202E-06  0.435E-02    3.85       1.0  T
   3    -52.0817863  0.648983E-06  0.465E-03    3.86       3.3  T
   4    -52.0817871 -0.819258E-06  0.925E-04    3.85      16.7  T
   5    -52.0817872 -0.499449E-08  0.302E-04    3.85      51.1  T
     SCC iter.                  ...        0 min,  0.016 sec
     gradient                   ...        0 min,  0.004 sec
 * total energy  :   -51.3794473 Eh     change       -0.1994200E-04 Eh
   gradient norm :     0.0009554 Eh/α   predicted    -0.9264744E-05 ( -53.54%)
   displ. norm   :     0.1600728 α      lambda       -0.9779848E-05
   maximum displ.:     0.0903476 α      in ANC's #4, #3, #2, ...

........................................................................
.............................. CYCLE   31 ..............................
........................................................................

 iter      E             dE          RMSdq      gap      omega  full diag
   1    -52.0817389 -0.520817E+02  0.507E-02    3.86       0.0  T
   2    -52.0817390 -0.136632E-06  0.297E-02    3.86       1.0  T
   3    -52.0817390 -0.517728E-07  0.904E-04    3.86      17.1  T
   4    -52.0817390 -0.170497E-08  0.578E-04    3.86      26.7  T
     SCC iter.                  ...        0 min,  0.007 sec
     gradient                   ...        0 min,  0.004 sec
 * total energy  :   -51.3794576 Eh     change       -0.1029905E-04 Eh
   gradient norm :     0.0007336 Eh/α   predicted    -0.4946166E-05 ( -51.97%)
   displ. norm   :     0.1073916 α      lambda       -0.5673113E-05
   maximum displ.:     0.0619353 α      in ANC's #4, #3, #2, ...

........................................................................
.............................. CYCLE   32 ..............................
........................................................................

 iter      E             dE          RMSdq      gap      omega  full diag
   1    -52.0817385 -0.520817E+02  0.341E-02    3.86       0.0  T
   2    -52.0817386 -0.728386E-07  0.200E-02    3.86       1.0  T
   3    -52.0817386 -0.267751E-07  0.605E-04    3.86      25.5  T
   4    -52.0817386 -0.170849E-08  0.323E-04    3.86      47.8  T
     SCC iter.                  ...        0 min,  0.006 sec
     gradient                   ...        0 min,  0.004 sec
 * total energy  :   -51.3794642 Eh     change       -0.6614795E-05 Eh
   gradient norm :     0.0005778 Eh/α   predicted    -0.2852329E-05 ( -56.88%)
   displ. norm   :     0.1199370 α      lambda       -0.7088912E-05
   maximum displ.:     0.0685392 α      in ANC's #4, #3, #2, ...

........................................................................
.............................. CYCLE   33 ..............................
........................................................................

 iter      E             dE          RMSdq      gap      omega  full diag
   1    -52.0819576 -0.520820E+02  0.363E-02    3.86       0.0  T
   2    -52.0819577 -0.876223E-07  0.213E-02    3.86       1.0  T
   3    -52.0819575  0.170270E-06  0.241E-03    3.86       6.4  T
   4    -52.0819578 -0.219100E-06  0.546E-04    3.86      28.2  T
   5    -52.0819578 -0.232067E-08  0.229E-04    3.86      67.5  T
     SCC iter.                  ...        0 min,  0.008 sec
     gradient                   ...        0 min,  0.004 sec
 * total energy  :   -51.3794725 Eh     change       -0.8216682E-05 Eh
   gradient norm :     0.0005772 Eh/α   predicted    -0.3571718E-05 ( -56.53%)
   displ. norm   :     0.2010362 α      lambda       -0.9617616E-05
   maximum displ.:     0.1157921 α      in ANC's #4, #3, #2, ...

........................................................................
.............................. CYCLE   34 ..............................
........................................................................

 iter      E             dE          RMSdq      gap      omega  full diag
   1    -52.0813178 -0.520813E+02  0.617E-02    3.86       0.0  T
   2    -52.0813181 -0.228679E-06  0.362E-02    3.86       1.0  T
   3    -52.0813179  0.187879E-06  0.295E-03    3.86       5.2  T
   4    -52.0813182 -0.298589E-06  0.886E-04    3.86      17.4  T
   5    -52.0813182 -0.750571E-08  0.356E-04    3.86      43.4  T
     SCC iter.                  ...        0 min,  0.008 sec
     gradient                   ...        0 min,  0.005 sec
 * total energy  :   -51.3794815 Eh     change       -0.9070784E-05 Eh
   gradient norm :     0.0014061 Eh/α   predicted    -0.4897218E-05 ( -46.01%)
   displ. norm   :     0.2053492 α      lambda       -0.1268186E-04
   maximum displ.:     0.1226275 α      in ANC's #3, #4, #2, ...

........................................................................
.............................. CYCLE   35 ..............................
........................................................................

 iter      E             dE          RMSdq      gap      omega  full diag
   1    -52.0818108 -0.520818E+02  0.563E-02    3.87       0.0  T
   2    -52.0818110 -0.228764E-06  0.331E-02    3.87       1.0  T
   3    -52.0818108  0.234275E-06  0.325E-03    3.86       4.7  T
   4    -52.0818111 -0.352791E-06  0.963E-04    3.87      16.0  T
   5    -52.0818112 -0.798099E-08  0.443E-04    3.87      34.9  T
     SCC iter.                  ...        0 min,  0.008 sec
     gradient                   ...        0 min,  0.005 sec
 * total energy  :   -51.3794927 Eh     change       -0.1118448E-04 Eh
   gradient norm :     0.0010209 Eh/α   predicted    -0.6460533E-05 ( -42.24%)
   displ. norm   :     0.1590700 α      lambda       -0.8270158E-05
   maximum displ.:     0.0945296 α      in ANC's #3, #4, #2, ...

........................................................................
.............................. CYCLE   36 ..............................
........................................................................

 iter      E             dE          RMSdq      gap      omega  full diag
   1    -52.0816196 -0.520816E+02  0.471E-02    3.86       0.0  T
   2    -52.0816197 -0.147638E-06  0.276E-02    3.86       1.0  T
   3    -52.0816195  0.244179E-06  0.298E-03    3.86       5.2  T
   4    -52.0816198 -0.325488E-06  0.714E-04    3.86      21.6  T
   5    -52.0816198 -0.360031E-08  0.294E-04    3.86      52.4  T
     SCC iter.                  ...        0 min,  0.008 sec
     gradient                   ...        0 min,  0.005 sec
 * total energy  :   -51.3795012 Eh     change       -0.8537726E-05 Eh
   gradient norm :     0.0008196 Eh/α   predicted    -0.4186240E-05 ( -50.97%)
   displ. norm   :     0.0954233 α      lambda       -0.8582757E-05
   maximum displ.:     0.0534685 α      in ANC's #3, #2, #7, ...

........................................................................
.............................. CYCLE   37 ..............................
........................................................................

 iter      E             dE          RMSdq      gap      omega  full diag
   1    -52.0824305 -0.520824E+02  0.221E-02    3.87       0.0  T
   2    -52.0824306 -0.844022E-07  0.130E-02    3.87       1.2  T
   3    -52.0824305  0.549165E-07  0.152E-03    3.87      10.2  T
   4    -52.0824306 -0.726591E-07  0.608E-04    3.87      25.4  T
   5    -52.0824306 -0.882935E-08  0.252E-04    3.87      61.2  T
     SCC iter.                  ...        0 min,  0.008 sec
     gradient                   ...        0 min,  0.004 sec
 * total energy  :   -51.3795073 Eh     change       -0.6053268E-05 Eh
   gradient norm :     0.0007531 Eh/α   predicted    -0.4312411E-05 ( -28.76%)
   displ. norm   :     0.1659054 α      lambda       -0.4350293E-05
   maximum displ.:     0.0996322 α      in ANC's #3, #4, #2, ...

........................................................................
.............................. CYCLE   38 ..............................
........................................................................

 iter      E             dE          RMSdq      gap      omega  full diag
   1    -52.0814286 -0.520814E+02  0.488E-02    3.86       0.0  T
   2    -52.0814289 -0.250403E-06  0.287E-02    3.86       1.0  T
   3    -52.0814266  0.231841E-05  0.800E-03    3.86       1.9  T
   4    -52.0814291 -0.258077E-05  0.868E-04    3.86      17.8  T
   5    -52.0814291 -0.770013E-08  0.426E-04    3.86      36.3  T
   6    -52.0814291 -0.584869E-09  0.152E-04    3.86     101.3  T
     SCC iter.                  ...        0 min,  0.010 sec
     gradient                   ...        0 min,  0.010 sec
 * total energy  :   -51.3795076 Eh     change       -0.2980670E-06 Eh
   gradient norm :     0.0013334 Eh/α   predicted    -0.2203282E-05 ( 639.19%)
   displ. norm   :     0.0859423 α      lambda       -0.4060678E-05
   maximum displ.:     0.0496359 α      in ANC's #3, #4, #2, ...

........................................................................
.............................. CYCLE   39 ..............................
........................................................................

 iter      E             dE          RMSdq      gap      omega  full diag
   1    -52.0819790 -0.520820E+02  0.238E-02    3.86       0.0  T
   2    -52.0819791 -0.714416E-07  0.140E-02    3.86       1.1  T
   3    -52.0819784  0.654752E-06  0.423E-03    3.86       3.6  T
   4    -52.0819791 -0.725897E-06  0.456E-04    3.86      33.8  T
   5    -52.0819791 -0.269196E-08  0.211E-04    3.86      73.3  T
     SCC iter.                  ...        0 min,  0.009 sec
     gradient                   ...        0 min,  0.005 sec
 * total energy  :   -51.3795107 Eh     change       -0.3064243E-05 Eh
   gradient norm :     0.0004338 Eh/α   predicted    -0.2038469E-05 ( -33.48%)
   displ. norm   :     0.0136112 α      lambda       -0.9331455E-06
   maximum displ.:     0.0061220 α      in ANC's #3, #15, #2, ...

   *** GEOMETRY OPTIMIZATION CONVERGED AFTER 39 ITERATIONS ***

------------------------------------------------------------------------
 total energy gain   :        -0.0346768 Eh      -21.7600 kcal/mol
 total RMSD          :         0.7380067 a0        0.3905 Å
 total power (kW/mol):        -2.3344625 (step) -125.0144 (real)
------------------------------------------------------------------------

 ANCopt (total)                0 d,  0 h,  0 min,  0.728 sec
 optimizer setup                ...        0 min,  0.000 sec (  0.016%)
 model hessian                  ...        0 min,  0.052 sec (  7.091%)
 ANC generation                 ...        0 min,  0.003 sec (  0.426%)
 coordinate transformation      ...        0 min,  0.001 sec (  0.096%)
 single point calculation       ...        0 min,  0.654 sec ( 89.816%)
 optimization log               ...        0 min,  0.007 sec (  0.909%)
 hessian update                 ...        0 min,  0.007 sec (  0.893%)
 rational function              ...        0 min,  0.004 sec (  0.516%)

================
 final structure:
================
42
 xtb: 6.7.1 (edcfbbe)
C           -5.11497651486706        0.43646215839556       -0.45097740174428
C           -4.31563854629443       -0.85360247853212       -0.28562005081807
C           -5.24826535261679       -2.05913204014141       -0.39753037587644
C           -3.57995675326122       -0.90199362824342        1.05860823921355
C           -2.54015099444454        0.19748210783000        1.28105187345384
C           -1.38194841459611        0.15002711414841        0.28693312638864
C           -0.28637786229559        1.15161321378493        0.64505509424167
C            0.87075879093840        1.11270760911793       -0.34941108877122
C            1.97604343972551        2.09742075769045        0.02394858935862
C            3.15393304350376        2.03057971203598       -0.94556895527340
O            3.76466779801065        0.74345571698291       -0.94680472122380
C            4.63666294793953        0.48586320227008        0.03682663701547
O            4.94276764676951        1.28695864488804        0.88694512863826
C            5.18456659026816       -0.89548774829822       -0.05623004267522
C            4.70196859154950       -1.75640857650077       -1.17864231410735
C            6.06570158175131       -1.28481037721768        0.85964585338860
H           -5.80727076300717        0.56163161772820        0.37920556639639
H           -4.46048439651583        1.30298766971027       -0.48907761437173
H           -5.68960415269539        0.40803761286487       -1.37438605759925
H           -3.58076397726192       -0.91721062393643       -1.09445642199920
H           -6.00268996685348       -2.02871978577492        0.38608432585429
H           -5.75474386032153       -2.06406037998003       -1.36016261675625
H           -4.69066124178064       -2.98808951614764       -0.29990005623605
H           -3.08107234602303       -1.87100130369003        1.14400118269512
H           -4.32172976785904       -0.84418361431169        1.85963066368780
H           -2.13705872284487        0.08099364640995        2.29062436457145
H           -3.01733194439753        1.17763655474893        1.23622410805814
H           -0.95892775157550       -0.85741990127551        0.27513836713774
H           -1.74663393840268        0.36935619001147       -0.71804026408544
H            0.09164900660517        0.93181874669872        1.64621044184902
H           -0.70988200668207        2.15866858166886        0.66714231607952
H            0.49924680361766        1.34937455117426       -1.34957230700709
H            1.28650691102342        0.10319391529117       -0.38159762639324
H            2.34143504966255        1.88068006430928        1.02958397373867
H            1.58670981115888        3.11699824582187        0.01864123764761
H            2.82310664540672        2.18947228221838       -1.97441491300201
H            3.90498949733421        2.77968614484722       -0.67255076671263
H            5.17577677586384       -2.73362936962212       -1.14007589121237
H            3.62198886008884       -1.87935274374708       -1.12091453927627
H            4.92580240447331       -1.28639157774469       -2.13437741991911
H            6.37077979109165       -0.61224462915028        1.64337891716055
H            6.50110728781489       -2.26936876633710        0.85244943848759
 
 Bond Distances (Angstroems)
 ---------------------------
C1-C2=1.5266         C1-H17=1.0882        C1-H18=1.0866        C1-H19=1.0880        C2-C1=1.5266         C2-C3=1.5283         
C2-C4=1.5331         C2-H20=1.0947        C3-C2=1.5283         C3-H21=1.0882        C3-H22=1.0878        C3-H23=1.0878        
C4-C2=1.5331         C4-C5=1.5296         C4-H24=1.0932        C4-H25=1.0933        C5-C4=1.5296         C5-C6=1.5271         
C5-H26=1.0933        C5-H27=1.0911        C6-C5=1.5271         C6-C7=1.5270         C6-H28=1.0927        C6-H29=1.0914        
C7-C6=1.5270         C7-C8=1.5263         C7-H30=1.0925        C7-H31=1.0927        C8-C7=1.5263         C8-C9=1.5267         
C8-H32=1.0929        C8-H33=1.0922        C9-C8=1.5267         C9-C10=1.5270        C9-H34=1.0917        C9-H35=1.0914        
C10-C9=1.5270        C10-O11=1.4247       C10-H36=1.0923       C10-H37=1.0953       O11-C10=1.4247       O11-C12=1.3395       
C12-O11=1.3395       C12-O13=1.2075       C12-C14=1.4890       O13-C12=1.2075       C14-C12=1.4890       C14-C15=1.4946       
C14-C16=1.3292       C15-C14=1.4946       C15-H38=1.0867       C15-H39=1.0885       C15-H40=1.0883       C16-C14=1.3292       
C16-H41=1.0769       C16-H42=1.0766       H17-C1=1.0882        H18-C1=1.0866        H19-C1=1.0880        H20-C2=1.0947        
H21-C3=1.0882        H22-C3=1.0878        H23-C3=1.0878        H24-C4=1.0932        H25-C4=1.0933        H26-C5=1.0933        
H27-C5=1.0911        H28-C6=1.0927        H29-C6=1.0914        H30-C7=1.0925        H31-C7=1.0927        H32-C8=1.0929        
H33-C8=1.0922        H34-C9=1.0917        H35-C9=1.0914        H36-C10=1.0923       H37-C10=1.0953       H38-C15=1.0867       
H39-C15=1.0885       H40-C15=1.0883       H41-C16=1.0769       H42-C16=1.0766       
 C  H  Rav=1.0898 sigma=0.0045  Rmin=1.0766  Rmax=1.0953    26
 C  C  Rav=1.5054 sigma=0.0548  Rmin=1.3292  Rmax=1.5331    12
 O  C  Rav=1.3239 sigma=0.0893  Rmin=1.2075  Rmax=1.4247     3
 
 selected bond angles (degree)
 --------------------
H17-C1-C2=110.35               H18-C1-C2=111.24               H18-C1-H17=108.56              H19-C1-C2=110.27               
H19-C1-H17=108.33              H19-C1-H18=108.01              C3-C2-C1=109.82                C4-C2-C1=111.89                
C4-C2-C3=109.40                H20-C2-C1=108.70               H20-C2-C3=108.04               H20-C2-C4=108.90               
H21-C3-C2=110.38               H22-C3-C2=110.64               H22-C3-H21=108.34              H23-C3-C2=110.75               
H23-C3-H21=108.34              H23-C3-H22=108.31              C5-C4-C2=115.53                H24-C4-C2=108.39               
H24-C4-C5=108.39               H25-C4-C2=108.37               H25-C4-C5=108.46               H25-C4-H24=107.41              
C6-C5-C4=113.49                H26-C5-C4=107.96               H26-C5-C6=108.55               H27-C5-C4=110.03               
H27-C5-C6=109.44               H27-C5-H26=107.15              C7-C6-C5=111.78                H28-C6-C5=109.23               
H28-C6-C7=109.24               H29-C6-C5=109.86               H29-C6-C7=108.90               H29-C6-H28=107.74              
C8-C7-C6=111.99                H30-C7-C6=109.34               H30-C7-C8=109.25               H31-C7-C6=109.34               
H31-C7-C8=109.30               H31-C7-H30=107.52              C9-C8-C7=111.91                H32-C8-C7=109.45               
H32-C8-C9=109.28               H33-C8-C7=109.35               H33-C8-C9=109.13               H33-C8-H32=107.61              
C10-C9-C8=112.02               H34-C9-C8=109.85               H34-C9-C10=108.54              H35-C9-C8=110.07               
H35-C9-C10=108.24              H35-C9-H34=108.02              O11-C10-C9=111.76              H36-C10-C9=110.98              
H36-C10-O11=105.10             H37-C10-C9=109.92              H37-C10-O11=108.91             H37-C10-H36=110.06             
 
 selected dihedral angles (degree)
 ---------------------------------
C3-C2-C1-H17= 65.94           C3-C2-C1-H18=186.49           C3-C2-C1-H19=306.31           C4-C2-C1-H17=304.25           
C4-C2-C1-H18= 64.80           C4-C2-C1-H19=184.61           H20-C2-C1-H17=183.95          H20-C2-C1-H18=304.50          
H20-C2-C1-H19= 64.32          H21-C3-C2-C1=298.94           H21-C3-C2-C4= 62.12           H21-C3-C2-H20=180.53          
H22-C3-C2-C1= 58.85           H22-C3-C2-C4=182.02           H22-C3-C2-H20=300.44          H23-C3-C2-C1=178.97           
H23-C3-C2-C4=302.14           H23-C3-C2-H20= 60.55          C5-C4-C2-C1=298.26            C5-C4-C2-C3=176.33            
C5-C4-C2-H20= 58.45           H24-C4-C2-C1=176.44           H24-C4-C2-C3= 54.50           H24-C4-C2-H20=296.62          
H25-C4-C2-C1= 60.16           H25-C4-C2-C3=298.23           H25-C4-C2-H20=180.35          C6-C5-C4-C2=297.15            
C6-C5-C4-H24= 58.97           C6-C5-C4-H25=175.30           H26-C5-C4-C2=176.78           H26-C5-C4-H24=298.60          
H26-C5-C4-H25= 54.93          H27-C5-C4-C2= 60.16           H27-C5-C4-H24=181.98          H27-C5-C4-H25=298.31          
C7-C6-C5-C4=186.93            C7-C6-C5-H26=306.96           C7-C6-C5-H27= 63.60           H28-C6-C5-C4=307.94           
H28-C6-C5-H26= 67.97          H28-C6-C5-H27=184.61          H29-C6-C5-C4= 65.91           H29-C6-C5-H26=185.95          
H29-C6-C5-H27=302.59          C8-C7-C6-C5=180.27            C8-C7-C6-H28= 59.27           C8-C7-C6-H29=301.84           
H30-C7-C6-C5= 59.04           H30-C7-C6-H28=298.03          H30-C7-C6-H29=180.61          H31-C7-C6-C5=301.56           
H31-C7-C6-H28=180.56          H31-C7-C6-H29= 63.14          C9-C8-C7-C6=181.00            C9-C8-C7-H30=302.28           
C9-C8-C7-H31= 59.68           H32-C8-C7-C6= 59.69           H32-C8-C7-H30=180.98          H32-C8-C7-H31=298.37          
H33-C8-C7-C6=302.04           H33-C8-C7-H30= 63.33          H33-C8-C7-H31=180.72          C10-C9-C8-C7=178.27           
C10-C9-C8-H32=299.67          C10-C9-C8-H33= 57.10          H34-C9-C8-C7= 57.56           H34-C9-C8-H32=178.96          
H34-C9-C8-H33=296.40          H35-C9-C8-C7=298.75           H35-C9-C8-H32= 60.15          H35-C9-C8-H33=177.58          
O11-C10-C9-C8=298.56          O11-C10-C9-H34= 60.02         O11-C10-C9-H35=177.03         H36-C10-C9-C8= 55.52          
H36-C10-C9-H34=176.99         H36-C10-C9-H35=293.99         H37-C10-C9-C8=177.50          H37-C10-C9-H34=298.97         
H37-C10-C9-H35= 55.97         
           -------------------------------------------------
          |                Final Singlepoint                |
           -------------------------------------------------

          ...................................................
          :                      SETUP                      :
          :.................................................:
          :  # basis functions                  90          :
          :  # atomic orbitals                  90          :
          :  # shells                           58          :
          :  # electrons                        94          :
          :  max. iterations                   250          :
          :  Hamiltonian                  GFN2-xTB          :
          :  restarted?                      false          :
          :  GBSA solvation                  false          :
          :  PC potential                    false          :
          :  electronic temp.          300.0000000     K    :
          :  accuracy                    1.0000000          :
          :  -> integral cutoff          0.2500000E+02      :
          :  -> integral neglect         0.1000000E-07      :
          :  -> SCF convergence          0.1000000E-05 Eh   :
          :  -> wf. convergence          0.1000000E-03 e    :
          :  Broyden damping             0.4000000          :
          :  net charge                          0          :
          :  unpaired electrons                  0          :
          ...................................................

 iter      E             dE          RMSdq      gap      omega  full diag
   1    -52.0819791 -0.520820E+02  0.842E-05    3.86       0.0  T
   2    -52.0819791 -0.410338E-10  0.514E-05    3.86     300.3  T
   3    -52.0819791 -0.368772E-11  0.300E-05    3.86     514.6  T

   *** convergence criteria satisfied after 3 iterations ***

         #    Occupation            Energy/Eh            Energy/eV
      -------------------------------------------------------------
         1        2.0000           -0.7369548             -20.0536
       ...           ...                  ...                  ...
        41        2.0000           -0.4297885             -11.6951
        42        2.0000           -0.4249368             -11.5631
        43        2.0000           -0.4202547             -11.4357
        44        2.0000           -0.4176622             -11.3652
        45        2.0000           -0.4160674             -11.3218
        46        2.0000           -0.4122962             -11.2192
        47        2.0000           -0.4077423             -11.0952 (HOMO)
        48                         -0.2657193              -7.2306 (LUMO)
        49                         -0.1594019              -4.3375
        50                          0.0126259               0.3436
        51                          0.0432002               1.1755
        52                          0.0754597               2.0534
       ...                                ...                  ...
        90                          0.7015412              19.0899
      -------------------------------------------------------------
                  HL-Gap            0.1420231 Eh            3.8646 eV
             Fermi-level           -0.3367308 Eh           -9.1629 eV

 SCC (total)                   0 d,  0 h,  0 min,  0.012 sec
 SCC setup                      ...        0 min,  0.000 sec (  2.182%)
 Dispersion                     ...        0 min,  0.000 sec (  1.873%)
 classical contributions        ...        0 min,  0.000 sec (  0.632%)
 integral evaluation            ...        0 min,  0.001 sec (  7.904%)
 iterations                     ...        0 min,  0.006 sec ( 45.179%)
 molecular gradient             ...        0 min,  0.005 sec ( 38.704%)
 printout                       ...        0 min,  0.000 sec (  3.340%)

         :::::::::::::::::::::::::::::::::::::::::::::::::::::
         ::                     SUMMARY                     ::
         :::::::::::::::::::::::::::::::::::::::::::::::::::::
         :: total energy             -51.379510659616 Eh    ::
         :: gradient norm              0.000433914679 Eh/a0 ::
         :: HOMO-LUMO gap              3.864644921134 eV    ::
         ::.................................................::
         :: SCC energy               -52.081904497388 Eh    ::
         :: -> isotropic ES            0.050335442475 Eh    ::
         :: -> anisotropic ES          0.009349658075 Eh    ::
         :: -> anisotropic XC          0.022683829088 Eh    ::
         :: -> dispersion             -0.030767968088 Eh    ::
         :: repulsion energy           0.702393837771 Eh    ::
         :: add. restraining           0.000000000000 Eh    ::
         :: total charge              -0.000000000000 e     ::
         :::::::::::::::::::::::::::::::::::::::::::::::::::::

           -------------------------------------------------
          |                Property Printout                |
           -------------------------------------------------

    * Orbital Energies and Occupations

         #    Occupation            Energy/Eh            Energy/eV
      -------------------------------------------------------------
         1        2.0000           -0.7369548             -20.0536
       ...           ...                  ...                  ...
        35        2.0000           -0.4548631             -12.3775
        36        2.0000           -0.4500474             -12.2464
        37        2.0000           -0.4478017             -12.1853
        38        2.0000           -0.4409045             -11.9976
        39        2.0000           -0.4380942             -11.9212
        40        2.0000           -0.4362151             -11.8700
        41        2.0000           -0.4297885             -11.6951
        42        2.0000           -0.4249368             -11.5631
        43        2.0000           -0.4202547             -11.4357
        44        2.0000           -0.4176622             -11.3652
        45        2.0000           -0.4160674             -11.3218
        46        2.0000           -0.4122962             -11.2192
        47        2.0000           -0.4077423             -11.0952 (HOMO)
        48                         -0.2657193              -7.2306 (LUMO)
        49                         -0.1594019              -4.3375
        50                          0.0126259               0.3436
        51                          0.0432002               1.1755
        52                          0.0754597               2.0534
        53                          0.0964045               2.6233
        54                          0.0993350               2.7030
        55                          0.1007287               2.7410
        56                          0.1085612               2.9541
        57                          0.1102460               2.9999
        58                          0.1209870               3.2922
       ...                                ...                  ...
        90                          0.7015412              19.0899
      -------------------------------------------------------------
                  HL-Gap            0.1420231 Eh            3.8646 eV
             Fermi-level           -0.3367308 Eh           -9.1629 eV

     #   Z          covCN         q      C6AA      α(0)
     1   6 C        3.756    -0.105    22.565     6.773
     2   6 C        3.849    -0.010    20.727     6.476
     3   6 C        3.757    -0.106    22.586     6.776
     4   6 C        3.805    -0.063    21.703     6.632
     5   6 C        3.801    -0.058    21.624     6.621
     6   6 C        3.802    -0.058    21.621     6.620
     7   6 C        3.803    -0.059    21.640     6.623
     8   6 C        3.803    -0.057    21.603     6.617
     9   6 C        3.801    -0.065    21.738     6.638
    10   6 C        3.703     0.076    19.450     6.306
    11   8 O        1.704    -0.263    18.359     5.785
    12   6 C        2.731     0.351    21.035     7.509
    13   8 O        0.856    -0.420    22.075     6.299
    14   6 C        2.938    -0.010    28.262     8.719
    15   6 C        3.757    -0.110    22.664     6.787
    16   6 C        2.849    -0.078    29.946     8.969
    17   1 H        0.925     0.034     2.533     2.489
    18   1 H        0.925     0.034     2.526     2.485
    19   1 H        0.925     0.032     2.558     2.501
    20   1 H        0.924     0.028     2.616     2.529
    21   1 H        0.925     0.034     2.529     2.487
    22   1 H        0.925     0.033     2.540     2.492
    23   1 H        0.925     0.031     2.575     2.509
    24   1 H        0.924     0.029     2.595     2.519
    25   1 H        0.924     0.031     2.569     2.507
    26   1 H        0.924     0.029     2.604     2.523
    27   1 H        0.924     0.032     2.552     2.498
    28   1 H        0.924     0.030     2.592     2.518
    29   1 H        0.924     0.032     2.565     2.504
    30   1 H        0.924     0.031     2.569     2.507
    31   1 H        0.924     0.030     2.590     2.517
    32   1 H        0.924     0.032     2.555     2.499
    33   1 H        0.924     0.037     2.487     2.466
    34   1 H        0.924     0.054     2.270     2.356
    35   1 H        0.924     0.040     2.444     2.445
    36   1 H        0.924     0.052     2.298     2.370
    37   1 H        0.924     0.054     2.270     2.356
    38   1 H        0.925     0.051     2.312     2.378
    39   1 H        0.925     0.059     2.211     2.325
    40   1 H        0.925     0.060     2.200     2.319
    41   1 H        0.926     0.071     2.079     2.255
    42   1 H        0.926     0.056     2.251     2.346

 Mol. C6AA /au·bohr⁶  :      13454.841804
 Mol. C8AA /au·bohr⁸  :     290163.092153
 Mol. α(0) /au        :        173.851347


Wiberg/Mayer (AO) data.
largest (>0.10) Wiberg bond orders for each atom

 ---------------------------------------------------------------------------
     #   Z sym  total        # sym  WBO       # sym  WBO       # sym  WBO
 ---------------------------------------------------------------------------
     1   6 C    3.997 --     2 C    1.010    17 H    0.987    19 H    0.986
                            18 H    0.984
     2   6 C    3.996 --     1 C    1.010     3 C    1.008     4 C    0.997
                            20 H    0.967
     3   6 C    3.997 --     2 C    1.008    21 H    0.987    23 H    0.987
                            22 H    0.987
     4   6 C    3.996 --     5 C    1.006     2 C    0.997    24 H    0.976
                            25 H    0.976
     5   6 C    3.997 --     6 C    1.008     4 C    1.006    26 H    0.977
                            27 H    0.975
     6   6 C    3.997 --     5 C    1.008     7 C    1.007    28 H    0.977
                            29 H    0.976
     7   6 C    3.997 --     8 C    1.007     6 C    1.007    31 H    0.978
                            30 H    0.977
     8   6 C    3.996 --     9 C    1.008     7 C    1.007    32 H    0.977
                            33 H    0.977
     9   6 C    3.992 --     8 C    1.008    10 C    0.997    35 H    0.974
                            34 H    0.974
    10   6 C    3.929 --     9 C    0.997    36 H    0.971    37 H    0.968
                            11 O    0.944
    11   8 O    2.311 --    12 C    1.126    10 C    0.944    13 O    0.171
    12   6 C    3.918 --    13 O    1.721    11 O    1.126    14 C    0.993
    13   8 O    2.030 --    12 C    1.721    11 O    0.171
    14   6 C    3.987 --    16 C    1.878    15 C    1.030    12 C    0.993
    15   6 C    3.995 --    14 C    1.030    38 H    0.984    40 H    0.968
                            39 H    0.968
    16   6 C    3.985 --    14 C    1.878    42 H    0.975    41 H    0.971
    17   1 H    0.999 --     1 C    0.987
    18   1 H    0.999 --     1 C    0.984
    19   1 H    0.999 --     1 C    0.986
    20   1 H    0.999 --     2 C    0.967
    21   1 H    0.999 --     3 C    0.987
    22   1 H    0.999 --     3 C    0.987
    23   1 H    0.999 --     3 C    0.987
    24   1 H    0.999 --     4 C    0.976
    25   1 H    0.999 --     4 C    0.976
    26   1 H    0.999 --     5 C    0.977
    27   1 H    0.999 --     5 C    0.975
    28   1 H    0.999 --     6 C    0.977
    29   1 H    0.999 --     6 C    0.976
    30   1 H    0.999 --     7 C    0.977
    31   1 H    0.999 --     7 C    0.978
    32   1 H    0.999 --     8 C    0.977
    33   1 H    0.999 --     8 C    0.977
    34   1 H    0.997 --     9 C    0.974
    35   1 H    0.998 --     9 C    0.974
    36   1 H    0.997 --    10 C    0.971
    37   1 H    0.997 --    10 C    0.968
    38   1 H    0.997 --    15 C    0.984
    39   1 H    0.997 --    15 C    0.968
    40   1 H    0.996 --    15 C    0.968
    41   1 H    0.995 --    16 C    0.971
    42   1 H    0.996 --    16 C    0.975
 ---------------------------------------------------------------------------

Topologies differ in total number of bonds
Writing topology from bond orders to xtbtopo.mol

molecular dipole:
                 x           y           z       tot (Debye)
 q only:       -0.509      -0.478      -0.563
   full:       -0.499      -0.480      -0.655       2.422
molecular quadrupole (traceless):
                xx          xy          yy          xz          yz          zz
 q only:       -5.772     -11.367       4.911      -7.142      -2.852       0.861
  q+dip:       -7.163     -12.786       5.203      -7.903      -4.132       1.959
   full:       -6.240     -11.781       4.949      -9.075      -4.270       1.291

           -------------------------------------------------
          |                Geometry Summary                 |
           -------------------------------------------------

      molecular mass/u    :      226.3555719
   center of mass at/Å    :        0.7770706       0.1301341       0.0207567
  moments of inertia/u·Å² :        0.5150354E+03   0.3653417E+04   0.3876021E+04
rotational constants/cm⁻¹ :        0.3273102E-01   0.4614210E-02   0.4349210E-02

 * 39 selected distances

     #   Z          #   Z                                           value/Å
     1   6 C        2   6 C                                       1.5266144
     2   6 C        3   6 C                                       1.5282731
     2   6 C        4   6 C                                       1.5331404 (max)
     4   6 C        5   6 C                                       1.5295504
     5   6 C        6   6 C                                       1.5270749
     6   6 C        7   6 C                                       1.5269909
     7   6 C        8   6 C                                       1.5262511
     8   6 C        9   6 C                                       1.5266670
     9   6 C       10   6 C                                       1.5270417
    10   6 C       11   8 O                                       1.4246708
    11   8 O       12   6 C                                       1.3395001
    12   6 C       13   8 O                                       1.2075412
    14   6 C       16   6 C                                       1.3292103
     1   6 C       17   1 H                                       1.0881832
     1   6 C       18   1 H                                       1.0865902
     1   6 C       19   1 H                                       1.0879746
     2   6 C       20   1 H                                       1.0946703
     3   6 C       21   1 H                                       1.0881790
     3   6 C       22   1 H                                       1.0877526
     3   6 C       23   1 H                                       1.0878494
     4   6 C       24   1 H                                       1.0932309
     4   6 C       25   1 H                                       1.0932549
     5   6 C       26   1 H                                       1.0932931
     5   6 C       27   1 H                                       1.0910610
     6   6 C       28   1 H                                       1.0927192
     6   6 C       29   1 H                                       1.0913627
     7   6 C       30   1 H                                       1.0924862
     7   6 C       31   1 H                                       1.0927051
     8   6 C       32   1 H                                       1.0928655
     8   6 C       33   1 H                                       1.0922457
     9   6 C       34   1 H                                       1.0916915
     9   6 C       35   1 H                                       1.0913970
    10   6 C       36   1 H                                       1.0923448
    10   6 C       37   1 H                                       1.0953472
    15   6 C       38   1 H                                       1.0867117
    15   6 C       39   1 H                                       1.0884871
    15   6 C       40   1 H                                       1.0883232
    16   6 C       41   1 H                                       1.0768728
    16   6 C       42   1 H                                       1.0765618 (min)

 * 3 distinct bonds (by element types)

   Z      Z             #   av. dist./Å        max./Å        min./Å
   1 H    6 C          26     1.0897754     1.0953472     1.0765618
   6 C    6 C          10     1.5080814     1.5331404     1.3292103
   6 C    8 O           3     1.3239040     1.4246708     1.2075412


optimized geometry written to: xtbopt.xyz


           -------------------------------------------------
          | TOTAL ENERGY              -51.379510659616 Eh   |
          | GRADIENT NORM               0.000433914679 Eh/α |
          | HOMO-LUMO GAP               3.864644921134 eV   |
           -------------------------------------------------

------------------------------------------------------------------------
 * finished run on 2025/12/01 at 14:17:33.041     
------------------------------------------------------------------------
 total:
 * wall-time:     0 d,  0 h,  0 min,  0.786 sec
 *  cpu-time:     0 d,  0 h,  0 min, 17.789 sec
 * ratio c/w:    22.621 speedup
 SCF:
 * wall-time:     0 d,  0 h,  0 min,  0.036 sec
 *  cpu-time:     0 d,  0 h,  0 min,  0.805 sec
 * ratio c/w:    22.543 speedup
 ANC optimizer:
 * wall-time:     0 d,  0 h,  0 min,  0.742 sec
 *  cpu-time:     0 d,  0 h,  0 min, 16.831 sec
 * ratio c/w:    22.688 speedup

normal termination of xtb
