      -----------------------------------------------------------      
     |                   =====================                   |     
     |                           x T B                           |     
     |                   =====================                   |     
     |                         S. Grimme                         |     
     |          Mulliken Center for Theoretical Chemistry        |     
     |                    University of Bonn                     |     
      -----------------------------------------------------------      

   * xtb version 6.7.1 (edcfbbe) compiled by 'albert@albert-system' on 2024-07-22

   xtb is free software: you can redistribute it and/or modify it under
   the terms of the GNU Lesser General Public License as published by
   the Free Software Foundation, either version 3 of the License, or
   (at your option) any later version.
   
   xtb is distributed in the hope that it will be useful,
   but WITHOUT ANY WARRANTY; without even the implied warranty of
   MERCHANTABILITY or FITNESS FOR A PARTICULAR PURPOSE.  See the
   GNU Lesser General Public License for more details.
   
   Cite this work as:
   * C. Bannwarth, E. Caldeweyher, S. Ehlert, A. Hansen, P. Pracht,
     J. Seibert, S. Spicher, S. Grimme, WIREs Comput. Mol. Sci., 2020, 11,
     e01493. DOI: 10.1002/wcms.1493
   
   for GFN2-xTB:
   * C. Bannwarth, S. Ehlert and S. Grimme., J. Chem. Theory Comput., 2019,
     15, 1652-1671. DOI: 10.1021/acs.jctc.8b01176
   for GFN1-xTB:
   * S. Grimme, C. Bannwarth, P. Shushkov, J. Chem. Theory Comput., 2017,
     13, 1989-2009. DOI: 10.1021/acs.jctc.7b00118
   for GFN0-xTB:
   * P. Pracht, E. Caldeweyher, S. Ehlert, S. Grimme, ChemRxiv, 2019, preprint.
     DOI: 10.26434/chemrxiv.8326202.v1
   for GFN-FF:
   * S. Spicher and S. Grimme, Angew. Chem. Int. Ed., 2020, 59, 15665-15673.
     DOI: 10.1002/anie.202004239
   
   for ALPB and GBSA implicit solvation:
   * S. Ehlert, M. Stahn, S. Spicher, S. Grimme, J. Chem. Theory Comput.,
     2021, 17, 4250-4261. DOI: 10.1021/acs.jctc.1c00471
   
   for ddCOSMO and CPCM-X implicit solvation:
   * M. Stahn, S. Ehlert, S. Grimme, J. Phys. Chem. A,
     2023, XX, XXXX-XXXX. DOI: 10.1021/acs.jpca.3c04382
   
   for DFT-D4:
   * E. Caldeweyher, C. Bannwarth and S. Grimme, J. Chem. Phys., 2017,
     147, 034112. DOI: 10.1063/1.4993215
   * E. Caldeweyher, S. Ehlert, A. Hansen, H. Neugebauer, S. Spicher,
     C. Bannwarth and S. Grimme, J. Chem. Phys., 2019, 150, 154122.
     DOI: 10.1063/1.5090222
   * E. Caldeweyher, J.-M. Mewes, S. Ehlert and S. Grimme, Phys. Chem. Chem. Phys.
     2020, 22, 8499-8512. DOI: 10.1039/D0CP00502A
   
   for sTDA-xTB:
   * S. Grimme and C. Bannwarth, J. Chem. Phys., 2016, 145, 054103.
     DOI: 10.1063/1.4959605
   
   in the mass-spec context:
   * V. Asgeirsson, C. Bauer and S. Grimme, Chem. Sci., 2017, 8, 4879.
     DOI: 10.1039/c7sc00601b
   * J. Koopman and S. Grimme, ACS Omega 2019, 4, 12, 15120-15133.
     DOI: 10.1021/acsomega.9b02011
   
   for metadynamics refer to:
   * S. Grimme, J. Chem. Theory Comput., 2019, 155, 2847-2862
     DOI: 10.1021/acs.jctc.9b00143
   
   for SPH calculations refer to:
   * S. Spicher and S. Grimme, J. Chem. Theory Comput., 2021, 17, 1701-1714
     DOI: 10.1021/acs.jctc.0c01306
   
   for ONIOM refer to:
   * C. Plett, A. Katbashev, S. Ehlert, S. Grimme, M. Bursch,
     Phys. Chem. Chem. Phys., 2023, 25, 17860-17868. DOI: 10.1039/D3CP02178E
   
   for DIPRO refer to:
   * J. Kohn, N. Gildemeister, S. Grimme, D. Fazzi, A. Hansen,
     J. Chem. Phys., 2023, just accepted.
   
   for PTB refer to:
   * S. Grimme, M. Mueller, A. Hansen, J. Chem. Phys., 2023, 158, 124111.
     DOI: 10.1063/5.0137838
   
   with help from (in alphabetical order)
   P. Atkinson, C. Bannwarth, F. Bohle, G. Brandenburg, E. Caldeweyher
   M. Checinski, S. Dohm, S. Ehlert, S. Ehrlich, I. Gerasimov, C. Hölzer
   A. Katbashev, J. Kohn, J. Koopman, C. Lavigne, S. Lehtola, F. März, M. Müller,
   F. Musil, H. Neugebauer, J. Pisarek, C. Plett, P. Pracht, F. Pultar,
   J. Seibert, P. Shushkov, S. Spicher, M. Stahn, M. Steiner, T. Strunk,
   J. Stückrath, T. Rose, and J. Unsleber
   
 * started run on 2025/12/01 at 14:17:34.918     
   ID    Z sym.   atoms
    1    6 C      1, 3-5, 7, 9, 10
    2    7 N      2
    3    8 O      6, 8
    4    1 H      11-23

           -------------------------------------------------
          |                Calculation Setup                |
           -------------------------------------------------

          program call               : xtb pipeline_data/3_conformer_xyz/acrylates/rdkit/DPBJAVGHACCNRL-UHFFFAOYSA-N_conf97.xyz --opt --gfn 2-xTB --iterations 250
          coordinate file            : pipeline_data/3_conformer_xyz/acrylates/rdkit/DPBJAVGHACCNRL-UHFFFAOYSA-N_conf97.xyz
          omp threads                :                    24

########################################################################
[WARNING] Please study the warnings concerning your input carefully
-1- readin_getIntValue: could not parse '2-xTB'
########################################################################

           -------------------------------------------------
          |                 G F N 2 - x T B                 |
           -------------------------------------------------

        Reference                      10.1021/acs.jctc.8b01176
      * Hamiltonian:
        H0-scaling (s, p, d)           1.850000    2.230000    2.230000
        zeta-weighting                 0.500000
      * Dispersion:
        s8                             2.700000
        a1                             0.520000
        a2                             5.000000
        s9                             5.000000
      * Repulsion:
        kExp                           1.500000    1.000000
        rExp                           1.000000
      * Coulomb:
        alpha                          2.000000
        third order                    shell-resolved
        anisotropic                    true
        a3                             3.000000
        a5                             4.000000
        cn-shift                       1.200000
        cn-exp                         4.000000
        max-rad                        5.000000

q/qsh data taken from xtbrestart
CAMM data taken from xtbrestart

          ...................................................
          :                      SETUP                      :
          :.................................................:
          :  # basis functions                  53          :
          :  # atomic orbitals                  53          :
          :  # shells                           33          :
          :  # electrons                        58          :
          :  max. iterations                   250          :
          :  Hamiltonian                  GFN2-xTB          :
          :  restarted?                       true          :
          :  GBSA solvation                  false          :
          :  PC potential                    false          :
          :  electronic temp.          300.0000000     K    :
          :  accuracy                    1.0000000          :
          :  -> integral cutoff          0.2500000E+02      :
          :  -> integral neglect         0.1000000E-07      :
          :  -> SCF convergence          0.1000000E-05 Eh   :
          :  -> wf. convergence          0.1000000E-03 e    :
          :  Broyden damping             0.4000000          :
          :  net charge                          0          :
          :  unpaired electrons                  0          :
          ...................................................

 iter      E             dE          RMSdq      gap      omega  full diag
   1    -32.9773983 -0.329774E+02  0.346E+00    2.63       0.0  T
   2    -32.9842658 -0.686754E-02  0.204E+00    2.33       1.0  T
   3    -32.9856079 -0.134206E-02  0.326E-01    2.08       1.0  T
   4    -32.9859030 -0.295153E-03  0.207E-01    2.08       1.0  T
   5    -32.9862288 -0.325808E-03  0.110E-01    2.04       1.0  T
   6    -32.9862927 -0.638158E-04  0.217E-02    2.03       1.0  T
   7    -32.9862944 -0.169677E-05  0.988E-03    2.03       2.1  T
   8    -32.9862946 -0.247668E-06  0.363E-03    2.03       5.8  T
   9    -32.9862947 -0.922694E-07  0.181E-03    2.03      11.5  T
  10    -32.9862947 -0.655795E-08  0.433E-04    2.03      48.2  T
  11    -32.9862947 -0.700531E-09  0.175E-04    2.03     119.3  T

   *** convergence criteria satisfied after 11 iterations ***

         #    Occupation            Energy/Eh            Energy/eV
      -------------------------------------------------------------
         1        2.0000           -0.7316652             -19.9096
       ...           ...                  ...                  ...
        23        2.0000           -0.4597125             -12.5094
        24        2.0000           -0.4574679             -12.4483
        25        2.0000           -0.4522786             -12.3071
        26        2.0000           -0.4406701             -11.9912
        27        2.0000           -0.4264955             -11.6055
        28        2.0000           -0.4145665             -11.2809
        29        2.0000           -0.3594729              -9.7818 (HOMO)
        30                         -0.2848774              -7.7519 (LUMO)
        31                         -0.1726773              -4.6988
        32                         -0.0416732              -1.1340
        33                          0.0537776               1.4634
        34                          0.0692674               1.8849
       ...                                ...                  ...
        53                          0.6210597              16.8999
      -------------------------------------------------------------
                  HL-Gap            0.0745955 Eh            2.0298 eV
             Fermi-level           -0.3221752 Eh           -8.7668 eV

 SCC (total)                   0 d,  0 h,  0 min,  0.026 sec
 SCC setup                      ...        0 min,  0.000 sec (  0.993%)
 Dispersion                     ...        0 min,  0.000 sec (  0.778%)
 classical contributions        ...        0 min,  0.000 sec (  0.213%)
 integral evaluation            ...        0 min,  0.001 sec (  2.719%)
 iterations                     ...        0 min,  0.022 sec ( 84.107%)
 molecular gradient             ...        0 min,  0.002 sec (  9.527%)
 printout                       ...        0 min,  0.000 sec (  1.558%)

         :::::::::::::::::::::::::::::::::::::::::::::::::::::
         ::                     SUMMARY                     ::
         :::::::::::::::::::::::::::::::::::::::::::::::::::::
         :: total energy             -32.621310047273 Eh    ::
         :: gradient norm              0.124957100532 Eh/a0 ::
         :: HOMO-LUMO gap              2.029847309590 eV    ::
         ::.................................................::
         :: SCC energy               -32.986389205001 Eh    ::
         :: -> isotropic ES            0.052628201582 Eh    ::
         :: -> anisotropic ES          0.002686758529 Eh    ::
         :: -> anisotropic XC          0.016288325870 Eh    ::
         :: -> dispersion             -0.014783726777 Eh    ::
         :: repulsion energy           0.365079157728 Eh    ::
         :: add. restraining           0.000000000000 Eh    ::
         :: total charge              -0.000000000000 e     ::
         :::::::::::::::::::::::::::::::::::::::::::::::::::::

      ----------------------------------------------------------- 
     |                   =====================                   |
     |                        A N C O P T                        |
     |                   =====================                   |
     |               Approximate Normal Coordinate               |
     |                Rational Function Optimizer                |
      ----------------------------------------------------------- 
      ----------------------------------------------------------- 
     |                   =====================                   |
     |                        A N C O P T                        |
     |                   =====================                   |
     |               Approximate Normal Coordinate               |
     |                Rational Function Optimizer                |
      ----------------------------------------------------------- 

          ...................................................
          :                      SETUP                      :
          :.................................................:
          :   optimization level            normal          :
          :   max. optcycles                   200          :
          :   ANC micro-cycles                  20          :
          :   degrees of freedom                63          :
          :.................................................:
          :   RF solver                   davidson          :
          :   write xtbopt.log                true          :
          :   linear?                        false          :
          :   energy convergence         0.5000000E-05 Eh   :
          :   grad. convergence          0.1000000E-02 Eh/α :
          :   maxmium RF displ.          1.0000000          :
          :   Hlow (freq-cutoff)         0.1000000E-01      :
          :   Hmax (freq-cutoff)         5.0000000          :
          :   S6 in model hess.         20.0000000          :
          ...................................................

generating ANC from exact Hessian ...
Using Lindh-Hessian (1995)
 Shifting diagonal of input Hessian by   9.162466620087462E-003
 Lowest  eigenvalues of input Hessian
    0.000000    0.000000    0.000000    0.000000    0.000000    0.000000
    0.010000    0.010581    0.010824    0.013468    0.014743    0.017855
    0.017947    0.019606    0.021532    0.021654    0.028818    0.033162
 Highest eigenvalues
    1.439082    1.478406    1.548741    1.759856    1.990973    2.158209
 

........................................................................
.............................. CYCLE    1 ..............................
........................................................................

 iter      E             dE          RMSdq      gap      omega  full diag
   1    -32.9862947 -0.329863E+02  0.680E-05    2.03       0.0  T
   2    -32.9862947 -0.749623E-11  0.431E-05    2.03     483.5  T
   3    -32.9862947  0.831335E-12  0.208E-05    2.03    1003.7  T
     SCC iter.                  ...        0 min,  0.005 sec
     gradient                   ...        0 min,  0.002 sec
 * total energy  :   -32.6213100 Eh     change       -0.6243539E-10 Eh
   gradient norm :     0.1249572 Eh/α   predicted     0.0000000E+00 (-100.00%)
   displ. norm   :     0.3552255 α      lambda       -0.2112038E-01
   maximum displ.:     0.2078503 α      in ANC's #15, #8, #27, ...

........................................................................
.............................. CYCLE    2 ..............................
........................................................................

 iter      E             dE          RMSdq      gap      omega  full diag
   1    -33.0156553 -0.330157E+02  0.282E-01    2.19       0.0  T
   2    -33.0158211 -0.165807E-03  0.174E-01    2.15       1.0  T
   3    -33.0157187  0.102367E-03  0.993E-02    2.13       1.0  T
   4    -33.0158485 -0.129746E-03  0.295E-02    2.13       1.0  T
   5    -33.0158609 -0.124660E-04  0.700E-03    2.13       3.0  T
   6    -33.0158613 -0.357158E-06  0.330E-03    2.13       6.3  T
   7    -33.0158613 -0.362719E-07  0.880E-04    2.13      23.7  T
   8    -33.0158613 -0.115264E-08  0.349E-04    2.13      59.7  T
     SCC iter.                  ...        0 min,  0.013 sec
     gradient                   ...        0 min,  0.002 sec
 * total energy  :   -32.6359293 Eh     change       -0.1461926E-01 Eh
   gradient norm :     0.0510098 Eh/α   predicted    -0.1190460E-01 ( -18.57%)
   displ. norm   :     0.3619666 α      lambda       -0.7358852E-02
   maximum displ.:     0.2342170 α      in ANC's #8, #15, #12, ...

........................................................................
.............................. CYCLE    3 ..............................
........................................................................

 iter      E             dE          RMSdq      gap      omega  full diag
   1    -33.0311234 -0.330311E+02  0.172E-01    2.23       0.0  T
   2    -33.0312090 -0.856312E-04  0.109E-01    2.21       1.0  T
   3    -33.0311775  0.314812E-04  0.693E-02    2.20       1.0  T
   4    -33.0312285 -0.509933E-04  0.208E-02    2.20       1.0  T
   5    -33.0312337 -0.522652E-05  0.446E-03    2.20       4.7  T
   6    -33.0312338 -0.122336E-06  0.205E-03    2.20      10.2  T
   7    -33.0312339 -0.174885E-07  0.578E-04    2.20      36.1  T
   8    -33.0312339 -0.503341E-09  0.242E-04    2.20      86.3  T
     SCC iter.                  ...        0 min,  0.016 sec
     gradient                   ...        0 min,  0.002 sec
 * total energy  :   -32.6403422 Eh     change       -0.4412913E-02 Eh
   gradient norm :     0.0166704 Eh/α   predicted    -0.4161506E-02 (  -5.70%)
   displ. norm   :     0.2677813 α      lambda       -0.1596247E-02
   maximum displ.:     0.2237319 α      in ANC's #8, #15, #5, ...

........................................................................
.............................. CYCLE    4 ..............................
........................................................................

 iter      E             dE          RMSdq      gap      omega  full diag
   1    -33.0321483 -0.330321E+02  0.937E-02    2.21       0.0  T
   2    -33.0321556 -0.736756E-05  0.581E-02    2.22       1.0  T
   3    -33.0321414  0.142022E-04  0.319E-02    2.21       1.0  T
   4    -33.0321582 -0.167723E-04  0.637E-03    2.22       3.3  T
   5    -33.0321588 -0.580811E-06  0.165E-03    2.22      12.7  T
   6    -33.0321588 -0.513464E-08  0.657E-04    2.22      31.7  T
   7    -33.0321588 -0.964810E-09  0.211E-04    2.22      98.7  T
     SCC iter.                  ...        0 min,  0.012 sec
     gradient                   ...        0 min,  0.002 sec
 * total energy  :   -32.6413793 Eh     change       -0.1037107E-02 Eh
   gradient norm :     0.0124347 Eh/α   predicted    -0.8554031E-03 ( -17.52%)
   displ. norm   :     0.2960918 α      lambda       -0.1042527E-02
   maximum displ.:     0.2580322 α      in ANC's #8, #5, #15, ...

........................................................................
.............................. CYCLE    5 ..............................
........................................................................

 iter      E             dE          RMSdq      gap      omega  full diag
   1    -33.0320960 -0.330321E+02  0.962E-02    2.22       0.0  T
   2    -33.0321009 -0.497836E-05  0.582E-02    2.23       1.0  T
   3    -33.0320916  0.933199E-05  0.243E-02    2.23       1.0  T
   4    -33.0321020 -0.104142E-04  0.606E-03    2.23       3.4  T
   5    -33.0321026 -0.536313E-06  0.159E-03    2.23      13.1  T
   6    -33.0321026 -0.373594E-08  0.609E-04    2.23      34.3  T
   7    -33.0321026 -0.100120E-08  0.176E-04    2.23     118.5  T
     SCC iter.                  ...        0 min,  0.012 sec
     gradient                   ...        0 min,  0.002 sec
 * total energy  :   -32.6419299 Eh     change       -0.5505874E-03 Eh
   gradient norm :     0.0079534 Eh/α   predicted    -0.5669751E-03 (   2.98%)
   displ. norm   :     0.1715307 α      lambda       -0.4222635E-03
   maximum displ.:     0.1209177 α      in ANC's #8, #1, #5, ...

........................................................................
.............................. CYCLE    6 ..............................
........................................................................

 iter      E             dE          RMSdq      gap      omega  full diag
   1    -33.0336645 -0.330337E+02  0.662E-02    2.23       0.0  T
   2    -33.0336656 -0.105579E-05  0.394E-02    2.23       1.0  T
   3    -33.0336655  0.329161E-07  0.398E-03    2.24       5.2  T
   4    -33.0336657 -0.141387E-06  0.229E-03    2.24       9.1  T
   5    -33.0336658 -0.690718E-07  0.925E-04    2.24      22.5  T
   6    -33.0336658 -0.272502E-08  0.322E-04    2.24      64.8  T
     SCC iter.                  ...        0 min,  0.010 sec
     gradient                   ...        0 min,  0.002 sec
 * total energy  :   -32.6422033 Eh     change       -0.2733823E-03 Eh
   gradient norm :     0.0061100 Eh/α   predicted    -0.2173447E-03 ( -20.50%)
   displ. norm   :     0.1796892 α      lambda       -0.2654184E-03
   maximum displ.:     0.0959586 α      in ANC's #8, #1, #4, ...

........................................................................
.............................. CYCLE    7 ..............................
........................................................................

 iter      E             dE          RMSdq      gap      omega  full diag
   1    -33.0351284 -0.330351E+02  0.642E-02    2.23       0.0  T
   2    -33.0351295 -0.103580E-05  0.379E-02    2.23       1.0  T
   3    -33.0351292  0.264141E-06  0.529E-03    2.24       3.9  T
   4    -33.0351295 -0.300831E-06  0.270E-03    2.24       7.7  T
   5    -33.0351296 -0.128542E-06  0.828E-04    2.24      25.2  T
   6    -33.0351296 -0.172071E-08  0.243E-04    2.24      85.9  T
     SCC iter.                  ...        0 min,  0.010 sec
     gradient                   ...        0 min,  0.002 sec
 * total energy  :   -32.6423920 Eh     change       -0.1886981E-03 Eh
   gradient norm :     0.0061529 Eh/α   predicted    -0.1369963E-03 ( -27.40%)
   displ. norm   :     0.2190899 α      lambda       -0.2146182E-03
   maximum displ.:     0.1069391 α      in ANC's #1, #8, #6, ...

........................................................................
.............................. CYCLE    8 ..............................
........................................................................

 iter      E             dE          RMSdq      gap      omega  full diag
   1    -33.0354289 -0.330354E+02  0.731E-02    2.24       0.0  T
   2    -33.0354305 -0.167816E-05  0.431E-02    2.23       1.0  T
   3    -33.0354304  0.122652E-06  0.505E-03    2.23       4.1  T
   4    -33.0354307 -0.229598E-06  0.245E-03    2.23       8.5  T
   5    -33.0354307 -0.938893E-07  0.992E-04    2.24      21.0  T
   6    -33.0354308 -0.511349E-08  0.436E-04    2.23      47.8  T
     SCC iter.                  ...        0 min,  0.010 sec
     gradient                   ...        0 min,  0.002 sec
 * total energy  :   -32.6425394 Eh     change       -0.1474114E-03 Eh
   gradient norm :     0.0042862 Eh/α   predicted    -0.1124625E-03 ( -23.71%)
   displ. norm   :     0.1680440 α      lambda       -0.1154528E-03
   maximum displ.:     0.0902519 α      in ANC's #1, #4, #6, ...

........................................................................
.............................. CYCLE    9 ..............................
........................................................................

 iter      E             dE          RMSdq      gap      omega  full diag
   1    -33.0354760 -0.330355E+02  0.664E-02    2.23       0.0  T
   2    -33.0354767 -0.681278E-06  0.391E-02    2.23       1.0  T
   3    -33.0354767 -0.889011E-08  0.311E-03    2.23       6.7  T
   4    -33.0354768 -0.111294E-06  0.134E-03    2.23      15.6  T
   5    -33.0354768 -0.112434E-07  0.810E-04    2.23      25.7  T
   6    -33.0354768 -0.461555E-08  0.392E-04    2.23      53.1  T
     SCC iter.                  ...        0 min,  0.010 sec
     gradient                   ...        0 min,  0.002 sec
 * total energy  :   -32.6426185 Eh     change       -0.7912846E-04 Eh
   gradient norm :     0.0023688 Eh/α   predicted    -0.5935862E-04 ( -24.98%)
   displ. norm   :     0.1174842 α      lambda       -0.5352114E-04
   maximum displ.:     0.0681799 α      in ANC's #1, #3, #6, ...

........................................................................
.............................. CYCLE   10 ..............................
........................................................................

 iter      E             dE          RMSdq      gap      omega  full diag
   1    -33.0354735 -0.330355E+02  0.533E-02    2.23       0.0  T
   2    -33.0354738 -0.213898E-06  0.315E-02    2.23       1.0  T
   3    -33.0354738 -0.977212E-08  0.212E-03    2.23       9.8  T
   4    -33.0354738 -0.436442E-07  0.123E-03    2.23      16.9  T
   5    -33.0354738 -0.187520E-07  0.544E-04    2.23      38.3  T
   6    -33.0354738 -0.787736E-09  0.165E-04    2.23     126.2  T
     SCC iter.                  ...        0 min,  0.010 sec
     gradient                   ...        0 min,  0.002 sec
 * total energy  :   -32.6426553 Eh     change       -0.3675784E-04 Eh
   gradient norm :     0.0015108 Eh/α   predicted    -0.2713112E-04 ( -26.19%)
   displ. norm   :     0.1195462 α      lambda       -0.2498039E-04
   maximum displ.:     0.0707336 α      in ANC's #1, #3, #2, ...

........................................................................
.............................. CYCLE   11 ..............................
........................................................................

 iter      E             dE          RMSdq      gap      omega  full diag
   1    -33.0356307 -0.330356E+02  0.638E-02    2.23       0.0  T
   2    -33.0356313 -0.555498E-06  0.376E-02    2.23       1.0  T
   3    -33.0356312  0.407904E-07  0.317E-03    2.23       6.6  T
   4    -33.0356314 -0.136021E-06  0.146E-03    2.23      14.2  T
   5    -33.0356314 -0.245783E-07  0.798E-04    2.23      26.1  T
   6    -33.0356314 -0.306566E-08  0.358E-04    2.23      58.2  T
     SCC iter.                  ...        0 min,  0.010 sec
     gradient                   ...        0 min,  0.002 sec
 * total energy  :   -32.6426765 Eh     change       -0.2124251E-04 Eh
   gradient norm :     0.0018593 Eh/α   predicted    -0.1257248E-04 ( -40.81%)
   displ. norm   :     0.0514053 α      lambda       -0.1125651E-04
   maximum displ.:     0.0312048 α      in ANC's #2, #1, #3, ...

........................................................................
.............................. CYCLE   12 ..............................
........................................................................

 iter      E             dE          RMSdq      gap      omega  full diag
   1    -33.0355846 -0.330356E+02  0.304E-02    2.23       0.0  T
   2    -33.0355848 -0.146431E-06  0.179E-02    2.23       1.2  T
   3    -33.0355847  0.270294E-07  0.194E-03    2.23      10.7  T
   4    -33.0355848 -0.583502E-07  0.681E-04    2.23      30.6  T
   5    -33.0355848 -0.354577E-08  0.408E-04    2.23      51.1  T
     SCC iter.                  ...        0 min,  0.010 sec
     gradient                   ...        0 min,  0.002 sec
 * total energy  :   -32.6426901 Eh     change       -0.1358047E-04 Eh
   gradient norm :     0.0013125 Eh/α   predicted    -0.5637540E-05 ( -58.49%)
   displ. norm   :     0.1296181 α      lambda       -0.2565151E-04
   maximum displ.:     0.0823291 α      in ANC's #2, #1, #6, ...

........................................................................
.............................. CYCLE   13 ..............................
........................................................................

 iter      E             dE          RMSdq      gap      omega  full diag
   1    -33.0361952 -0.330362E+02  0.721E-02    2.23       0.0  T
   2    -33.0361958 -0.510351E-06  0.425E-02    2.23       1.0  T
   3    -33.0361958 -0.902945E-07  0.278E-03    2.23       7.5  T
   4    -33.0361959 -0.764985E-07  0.136E-03    2.23      15.3  T
   5    -33.0361959 -0.207641E-08  0.847E-04    2.23      24.6  T
   6    -33.0361959 -0.400794E-08  0.319E-04    2.23      65.3  T
     SCC iter.                  ...        0 min,  0.010 sec
     gradient                   ...        0 min,  0.002 sec
 * total energy  :   -32.6427144 Eh     change       -0.2428341E-04 Eh
   gradient norm :     0.0025283 Eh/α   predicted    -0.1292323E-04 ( -46.78%)
   displ. norm   :     0.1036681 α      lambda       -0.2344897E-04
   maximum displ.:     0.0700643 α      in ANC's #2, #1, #3, ...

........................................................................
.............................. CYCLE   14 ..............................
........................................................................

 iter      E             dE          RMSdq      gap      omega  full diag
   1    -33.0353286 -0.330353E+02  0.639E-02    2.23       0.0  T
   2    -33.0353288 -0.233990E-06  0.377E-02    2.23       1.0  T
   3    -33.0353289 -0.982857E-07  0.174E-03    2.23      12.0  T
   4    -33.0353289 -0.153006E-07  0.101E-03    2.23      20.7  T
   5    -33.0353289 -0.722700E-09  0.465E-04    2.23      44.9  T
   6    -33.0353289 -0.830866E-09  0.219E-04    2.23      95.4  T
     SCC iter.                  ...        0 min,  0.013 sec
     gradient                   ...        0 min,  0.006 sec
 * total energy  :   -32.6427326 Eh     change       -0.1819744E-04 Eh
   gradient norm :     0.0031190 Eh/α   predicted    -0.1185380E-04 ( -34.86%)
   displ. norm   :     0.1774507 α      lambda       -0.3554569E-04
   maximum displ.:     0.1201353 α      in ANC's #2, #1, #3, ...

........................................................................
.............................. CYCLE   15 ..............................
........................................................................

 iter      E             dE          RMSdq      gap      omega  full diag
   1    -33.0347134 -0.330347E+02  0.106E-01    2.24       0.0  T
   2    -33.0347141 -0.723564E-06  0.623E-02    2.24       1.0  T
   3    -33.0347144 -0.256888E-06  0.308E-03    2.24       6.8  T
   4    -33.0347144 -0.452015E-07  0.193E-03    2.24      10.8  T
   5    -33.0347144 -0.964647E-08  0.119E-03    2.24      17.5  T
   6    -33.0347144 -0.981020E-08  0.314E-04    2.24      66.5  T
   7    -33.0347144 -0.113553E-08  0.973E-05    2.24     214.4  T
     SCC iter.                  ...        0 min,  0.017 sec
     gradient                   ...        0 min,  0.005 sec
 * total energy  :   -32.6427581 Eh     change       -0.2554301E-04 Eh
   gradient norm :     0.0029030 Eh/α   predicted    -0.1833738E-04 ( -28.21%)
   displ. norm   :     0.1712955 α      lambda       -0.2995712E-04
   maximum displ.:     0.1166923 α      in ANC's #2, #1, #6, ...

........................................................................
.............................. CYCLE   16 ..............................
........................................................................

 iter      E             dE          RMSdq      gap      omega  full diag
   1    -33.0344290 -0.330344E+02  0.991E-02    2.24       0.0  T
   2    -33.0344296 -0.557109E-06  0.585E-02    2.24       1.0  T
   3    -33.0344298 -0.188205E-06  0.351E-03    2.24       5.9  T
   4    -33.0344299 -0.100357E-06  0.200E-03    2.24      10.4  T
   5    -33.0344299 -0.137271E-07  0.110E-03    2.24      19.0  T
   6    -33.0344299 -0.901274E-08  0.251E-04    2.24      83.1  T
   7    -33.0344299 -0.479403E-09  0.909E-05    2.24     229.5  T
     SCC iter.                  ...        0 min,  0.020 sec
     gradient                   ...        0 min,  0.006 sec
 * total energy  :   -32.6427797 Eh     change       -0.2158127E-04 Eh
   gradient norm :     0.0030140 Eh/α   predicted    -0.1541973E-04 ( -28.55%)
   displ. norm   :     0.1378367 α      lambda       -0.3367931E-04
   maximum displ.:     0.0939357 α      in ANC's #2, #1, #6, ...

........................................................................
.............................. CYCLE   17 ..............................
........................................................................

 iter      E             dE          RMSdq      gap      omega  full diag
   1    -33.0354361 -0.330354E+02  0.760E-02    2.25       0.0  T
   2    -33.0354370 -0.878390E-06  0.448E-02    2.25       1.0  T
   3    -33.0354369  0.914852E-07  0.436E-03    2.25       4.8  T
   4    -33.0354371 -0.210501E-06  0.251E-03    2.25       8.3  T
   5    -33.0354372 -0.891401E-07  0.946E-04    2.25      22.0  T
   6    -33.0354372 -0.131577E-08  0.316E-04    2.25      66.0  T
     SCC iter.                  ...        0 min,  0.013 sec
     gradient                   ...        0 min,  0.002 sec
 * total energy  :   -32.6428003 Eh     change       -0.2053441E-04 Eh
   gradient norm :     0.0020337 Eh/α   predicted    -0.1716026E-04 ( -16.43%)
   displ. norm   :     0.1934759 α      lambda       -0.2282962E-04
   maximum displ.:     0.1389531 α      in ANC's #2, #1, #14, ...

........................................................................
.............................. CYCLE   18 ..............................
........................................................................

 iter      E             dE          RMSdq      gap      omega  full diag
   1    -33.0345248 -0.330345E+02  0.113E-01    2.24       0.0  T
   2    -33.0345263 -0.141788E-05  0.671E-02    2.24       1.0  T
   3    -33.0345265 -0.286305E-06  0.395E-03    2.24       5.3  T
   4    -33.0345267 -0.142619E-06  0.194E-03    2.24      10.7  T
   5    -33.0345267 -0.843827E-08  0.108E-03    2.24      19.3  T
   6    -33.0345267 -0.242677E-08  0.180E-04    2.24     115.8  T
   7    -33.0345267  0.115321E-10  0.111E-04    2.24     187.2  T
     SCC iter.                  ...        0 min,  0.012 sec
     gradient                   ...        0 min,  0.002 sec
 * total energy  :   -32.6428066 Eh     change       -0.6390759E-05 Eh
   gradient norm :     0.0037798 Eh/α   predicted    -0.1184422E-04 (  85.33%)
   displ. norm   :     0.0447095 α      lambda       -0.2005331E-04
   maximum displ.:     0.0262250 α      in ANC's #1, #3, #2, ...

........................................................................
.............................. CYCLE   19 ..............................
........................................................................

 iter      E             dE          RMSdq      gap      omega  full diag
   1    -33.0359384 -0.330359E+02  0.244E-02    2.24       0.0  T
   2    -33.0359386 -0.264390E-06  0.146E-02    2.24       1.4  T
   3    -33.0359385  0.112615E-06  0.312E-03    2.24       6.7  T
   4    -33.0359387 -0.157047E-06  0.851E-04    2.24      24.5  T
   5    -33.0359387 -0.781567E-08  0.475E-04    2.24      43.9  T
     SCC iter.                  ...        0 min,  0.008 sec
     gradient                   ...        0 min,  0.002 sec
 * total energy  :   -32.6428181 Eh     change       -0.1141697E-04 Eh
   gradient norm :     0.0012337 Eh/α   predicted    -0.1004844E-04 ( -11.99%)
   displ. norm   :     0.0993445 α      lambda       -0.9243467E-05
   maximum displ.:     0.0803174 α      in ANC's #2, #1, #5, ...

........................................................................
.............................. CYCLE   20 ..............................
........................................................................

 iter      E             dE          RMSdq      gap      omega  full diag
   1    -33.0359681 -0.330360E+02  0.600E-02    2.24       0.0  T
   2    -33.0359684 -0.249213E-06  0.354E-02    2.24       1.0  T
   3    -33.0359684 -0.438142E-07  0.210E-03    2.24       9.9  T
   4    -33.0359684 -0.484897E-07  0.903E-04    2.24      23.1  T
   5    -33.0359684 -0.361005E-09  0.562E-04    2.24      37.1  T
     SCC iter.                  ...        0 min,  0.008 sec
     gradient                   ...        0 min,  0.002 sec
 * total energy  :   -32.6428265 Eh     change       -0.8413124E-05 Eh
   gradient norm :     0.0015907 Eh/α   predicted    -0.4643253E-05 ( -44.81%)
   displ. norm   :     0.1586642 α      lambda       -0.1105300E-04
   maximum displ.:     0.1297678 α      in ANC's #2, #1, #5, ...
 * RMSD in coord.:     0.4861313 α      energy gain  -0.2151643E-01 Eh

generating ANC from exact Hessian ...
Using Lindh-Hessian (1995)
 Shifting diagonal of input Hessian by   9.109863522902373E-003
 Lowest  eigenvalues of input Hessian
    0.000000    0.000000    0.000000    0.000000    0.000000    0.000000
    0.010000    0.010600    0.010897    0.013775    0.014990    0.017968
    0.019103    0.019258    0.022156    0.023000    0.030070    0.032216
 Highest eigenvalues
    1.449715    1.490184    1.505276    1.755214    2.028663    2.389594
 

........................................................................
.............................. CYCLE   21 ..............................
........................................................................

 iter      E             dE          RMSdq      gap      omega  full diag
   1    -33.0357275 -0.330357E+02  0.896E-02    2.23       0.0  T
   2    -33.0357284 -0.920036E-06  0.529E-02    2.23       1.0  T
   3    -33.0357286 -0.205675E-06  0.281E-03    2.23       7.4  T
   4    -33.0357286 -0.315980E-07  0.171E-03    2.23      12.2  T
   5    -33.0357287 -0.135004E-07  0.116E-03    2.23      18.0  T
   6    -33.0357287 -0.914798E-08  0.256E-04    2.23      81.4  T
   7    -33.0357287 -0.361361E-09  0.106E-04    2.23     196.9  T
     SCC iter.                  ...        0 min,  0.012 sec
     gradient                   ...        0 min,  0.003 sec
 * total energy  :   -32.6428338 Eh     change       -0.7333689E-05 Eh
   gradient norm :     0.0017594 Eh/α   predicted     0.0000000E+00 (-100.00%)
   displ. norm   :     0.0195763 α      lambda       -0.5397696E-05
   maximum displ.:     0.0101287 α      in ANC's #2, #3, #6, ...

........................................................................
.............................. CYCLE   22 ..............................
........................................................................

 iter      E             dE          RMSdq      gap      omega  full diag
   1    -33.0358278 -0.330358E+02  0.132E-02    2.24       0.0  T
   2    -33.0358279 -0.972096E-07  0.772E-03    2.24       2.7  T
   3    -33.0358278  0.887290E-07  0.283E-03    2.24       7.4  T
   4    -33.0358279 -0.965217E-07  0.667E-04    2.24      31.3  T
   5    -33.0358279 -0.868136E-08  0.195E-04    2.24     107.2  T
     SCC iter.                  ...        0 min,  0.009 sec
     gradient                   ...        0 min,  0.003 sec
 * total energy  :   -32.6428398 Eh     change       -0.5992475E-05 Eh
   gradient norm :     0.0005264 Eh/α   predicted    -0.3459128E-05 ( -42.28%)
   displ. norm   :     0.0267574 α      lambda       -0.3465882E-05
   maximum displ.:     0.0158174 α      in ANC's #2, #3, #1, ...

........................................................................
.............................. CYCLE   23 ..............................
........................................................................

 iter      E             dE          RMSdq      gap      omega  full diag
   1    -33.0358014 -0.330358E+02  0.150E-02    2.24       0.0  T
   2    -33.0358014 -0.159933E-07  0.884E-03    2.24       2.4  T
   3    -33.0358013  0.387997E-07  0.160E-03    2.24      13.1  T
   4    -33.0358014 -0.461373E-07  0.299E-04    2.24      69.6  T
   5    -33.0358014 -0.794827E-09  0.145E-04    2.24     144.1  T
     SCC iter.                  ...        0 min,  0.009 sec
     gradient                   ...        0 min,  0.003 sec
 * total energy  :   -32.6428424 Eh     change       -0.2612101E-05 Eh
   gradient norm :     0.0008472 Eh/α   predicted    -0.1737768E-05 ( -33.47%)
   displ. norm   :     0.0366653 α      lambda       -0.3732103E-05
   maximum displ.:     0.0210904 α      in ANC's #2, #3, #1, ...

   *** GEOMETRY OPTIMIZATION CONVERGED AFTER 23 ITERATIONS ***

------------------------------------------------------------------------
 total energy gain   :        -0.0215324 Eh      -13.5118 kcal/mol
 total RMSD          :         0.4866144 a0        0.2575 Å
 total power (kW/mol):        -2.4579664 (step) -145.0511 (real)
------------------------------------------------------------------------

 ANCopt (total)                0 d,  0 h,  0 min,  0.390 sec
 optimizer setup                ...        0 min,  0.000 sec (  0.030%)
 model hessian                  ...        0 min,  0.023 sec (  5.969%)
 ANC generation                 ...        0 min,  0.002 sec (  0.507%)
 coordinate transformation      ...        0 min,  0.000 sec (  0.050%)
 single point calculation       ...        0 min,  0.353 sec ( 90.610%)
 optimization log               ...        0 min,  0.002 sec (  0.610%)
 hessian update                 ...        0 min,  0.006 sec (  1.517%)
 rational function              ...        0 min,  0.002 sec (  0.452%)

================
 final structure:
================
23
 xtb: 6.7.1 (edcfbbe)
C           -2.60257838947369       -1.34965374299861       -0.27309319067413
N           -2.25109065766236       -0.08279501839820        0.33600547911970
C           -3.32623405573301        0.87735222303268        0.18930064905477
C           -1.00090507604558        0.44502418299487       -0.17799450561152
C            0.19365096937984       -0.37478730906250        0.30293946579956
O            1.36334245906356        0.42625658371959        0.15799862315288
C            2.53793572908841       -0.19240766984019        0.34338518933423
O            2.64296682989983       -1.36195937810536        0.61731998588634
C            3.66108241657588        0.75337477038492        0.16458203301996
C            4.91751489056704        0.36602624789885        0.32692753983869
H           -3.53458076120517       -1.70327268274487        0.16419319793906
H           -2.73421374368206       -1.27177310560431       -1.36385774265868
H           -1.82713477598232       -2.08298273140952       -0.06523264631840
H           -4.22991490830766        0.46491597765451        0.63481631355414
H           -3.06636575320842        1.79222759624095        0.71917505225310
H           -3.53666215335964        1.12657762093910       -0.86254820141907
H           -0.87395454899103        1.45813803575657        0.21159022731823
H           -0.99178623704296        0.50170735282422       -1.28136298621888
H            0.06127365071805       -0.63697862742010        1.35828440207325
H            0.32923244302220       -1.29841075255881       -0.26845109863943
H            3.38126234134360        1.76143103261310       -0.09972335417206
H            5.13792916570539       -0.65589989356815        0.59140513845989
H            5.74923316533021        1.03788628765211        0.20085242890834
 
 Bond Distances (Angstroems)
 ---------------------------
C1-N2=1.4490         C1-H11=1.0885        C1-H12=1.1014        C1-H13=1.0873        N2-C1=1.4490         N2-C3=1.4489         
N2-C4=1.4511         C3-N2=1.4489         C3-H14=1.0887        C3-H15=1.0887        C3-H16=1.1013        C4-N2=1.4511         
C4-C5=1.5265         C4-H17=1.0928        C4-H18=1.1049        C5-C4=1.5265         C5-O6=1.4251         C5-H19=1.0955        
C5-H20=1.0945        O6-C5=1.4251         O6-C7=1.3404         C7-O6=1.3404         C7-O8=1.2058         C7-C9=1.4792         
O8-C7=1.2058         C9-C7=1.4792         C9-C10=1.3248        C9-H21=1.0790        C10-C9=1.3248        C10-H22=1.0784       
C10-H23=1.0766       H11-C1=1.0885        H12-C1=1.1014        H13-C1=1.0873        H14-C3=1.0887        H15-C3=1.0887        
H16-C3=1.1013        H17-C4=1.0928        H18-C4=1.1049        H19-C5=1.0955        H20-C5=1.0945        H21-C9=1.0790        
H22-C10=1.0784       H23-C10=1.0766       
 C  H  Rav=1.0906 sigma=0.0087  Rmin=1.0766  Rmax=1.1049    13
 C  C  Rav=1.4435 sigma=0.0862  Rmin=1.3248  Rmax=1.5265     3
 N  C  Rav=1.4497 sigma=0.0010  Rmin=1.4489  Rmax=1.4511     3
 O  C  Rav=1.3238 sigma=0.0903  Rmin=1.2058  Rmax=1.4251     3
 
 selected bond angles (degree)
 --------------------
H11-C1-N2=108.84               H12-C1-N2=112.55               H12-C1-H11=108.57              H13-C1-N2=109.65               
H13-C1-H11=108.34              H13-C1-H12=108.80              C3-N2-C1=110.91                C4-N2-C1=112.22                
C4-N2-C3=111.25                H14-C3-N2=108.87               H15-C3-N2=109.30               H15-C3-H14=108.50              
H16-C3-N2=112.86               H16-C3-H14=108.54              H16-C3-H15=108.68              C5-C4-N2=111.55                
H17-C4-N2=108.12               H17-C4-C5=107.14               H18-C4-N2=112.30               H18-C4-C5=109.62               
H18-C4-H17=107.91              O6-C5-C4=107.96                H19-C5-C4=109.72               H19-C5-O6=109.37               
H20-C5-C4=112.68               H20-C5-O6=108.64               H20-C5-H19=108.42              C7-O6-C5=116.47                
O8-C7-O6=123.74                C9-C7-O6=110.70                C9-C7-O8=125.56                C10-C9-C7=121.22               
H21-C9-C7=115.47               H21-C9-C10=123.31              H22-C10-C9=120.07              H23-C10-C9=122.40              
H23-C10-H22=117.53             
 
 selected dihedral angles (degree)
 ---------------------------------
C3-N2-C1-H11=304.01           C3-N2-C1-H12= 64.41           C3-N2-C1-H13=185.66           C4-N2-C1-H11=178.91           
C4-N2-C1-H12=299.31           C4-N2-C1-H13= 60.56           H14-C3-N2-C1= 57.42           H14-C3-N2-C4=183.07           
H15-C3-N2-C1=175.78           H15-C3-N2-C4=301.43           H16-C3-N2-C1=296.84           H16-C3-N2-C4= 62.48           
C5-C4-N2-C1=289.41            C5-C4-N2-C3=164.49            H17-C4-N2-C1=171.86           H17-C4-N2-C3= 46.95           
H18-C4-N2-C1= 52.92           H18-C4-N2-C3=288.00           O6-C5-C4-N2=199.44            O6-C5-C4-H17=317.58           
O6-C5-C4-H18= 74.42           H19-C5-C4-N2=318.56           H19-C5-C4-H17= 76.70          H19-C5-C4-H18=193.54          
H20-C5-C4-N2= 79.46           H20-C5-C4-H17=197.60          H20-C5-C4-H18=314.44          C7-O6-C5-C4=189.57            
C7-O6-C5-H19= 70.23           C7-O6-C5-H20=312.06           O8-C7-O6-C5=  0.10            C9-C7-O6-C5=180.06            
C10-C9-C7-O6=178.64           C10-C9-C7-O8=358.60           H21-C9-C7-O6=358.81           H21-C9-C7-O8=178.77           
H22-C10-C9-C7=  0.19          H22-C10-C9-H21=180.01         H23-C10-C9-C7=179.95          H23-C10-C9-H21=359.77         
           -------------------------------------------------
          |                Final Singlepoint                |
           -------------------------------------------------

          ...................................................
          :                      SETUP                      :
          :.................................................:
          :  # basis functions                  53          :
          :  # atomic orbitals                  53          :
          :  # shells                           33          :
          :  # electrons                        58          :
          :  max. iterations                   250          :
          :  Hamiltonian                  GFN2-xTB          :
          :  restarted?                      false          :
          :  GBSA solvation                  false          :
          :  PC potential                    false          :
          :  electronic temp.          300.0000000     K    :
          :  accuracy                    1.0000000          :
          :  -> integral cutoff          0.2500000E+02      :
          :  -> integral neglect         0.1000000E-07      :
          :  -> SCF convergence          0.1000000E-05 Eh   :
          :  -> wf. convergence          0.1000000E-03 e    :
          :  Broyden damping             0.4000000          :
          :  net charge                          0          :
          :  unpaired electrons                  0          :
          ...................................................

 iter      E             dE          RMSdq      gap      omega  full diag
   1    -33.0358014 -0.330358E+02  0.429E-05    2.24       0.0  T
   2    -33.0358014 -0.979128E-11  0.249E-05    2.24     838.4  T
   3    -33.0358014 -0.170530E-11  0.154E-05    2.24    1351.7  T

   *** convergence criteria satisfied after 3 iterations ***

         #    Occupation            Energy/Eh            Energy/eV
      -------------------------------------------------------------
         1        2.0000           -0.7413919             -20.1743
       ...           ...                  ...                  ...
        23        2.0000           -0.4614170             -12.5558
        24        2.0000           -0.4591071             -12.4929
        25        2.0000           -0.4527635             -12.3203
        26        2.0000           -0.4402618             -11.9801
        27        2.0000           -0.4356126             -11.8536
        28        2.0000           -0.4142996             -11.2737
        29        2.0000           -0.3576815              -9.7330 (HOMO)
        30                         -0.2754681              -7.4959 (LUMO)
        31                         -0.1653208              -4.4986
        32                         -0.0133519              -0.3633
        33                          0.0565861               1.5398
        34                          0.0790091               2.1499
       ...                                ...                  ...
        53                          0.7078229              19.2608
      -------------------------------------------------------------
                  HL-Gap            0.0822134 Eh            2.2371 eV
             Fermi-level           -0.3165748 Eh           -8.6144 eV

 SCC (total)                   0 d,  0 h,  0 min,  0.010 sec
 SCC setup                      ...        0 min,  0.001 sec ( 10.236%)
 Dispersion                     ...        0 min,  0.000 sec (  2.948%)
 classical contributions        ...        0 min,  0.000 sec (  1.156%)
 integral evaluation            ...        0 min,  0.001 sec (  5.458%)
 iterations                     ...        0 min,  0.005 sec ( 51.947%)
 molecular gradient             ...        0 min,  0.003 sec ( 25.370%)
 printout                       ...        0 min,  0.000 sec (  2.659%)

         :::::::::::::::::::::::::::::::::::::::::::::::::::::
         ::                     SUMMARY                     ::
         :::::::::::::::::::::::::::::::::::::::::::::::::::::
         :: total energy             -32.642842416065 Eh    ::
         :: gradient norm              0.000847181541 Eh/a0 ::
         :: HOMO-LUMO gap              2.237139727509 eV    ::
         ::.................................................::
         :: SCC energy               -33.035893439850 Eh    ::
         :: -> isotropic ES            0.049879130202 Eh    ::
         :: -> anisotropic ES          0.003430770023 Eh    ::
         :: -> anisotropic XC          0.015813506038 Eh    ::
         :: -> dispersion             -0.014911431129 Eh    ::
         :: repulsion energy           0.393051023785 Eh    ::
         :: add. restraining           0.000000000000 Eh    ::
         :: total charge               0.000000000000 e     ::
         :::::::::::::::::::::::::::::::::::::::::::::::::::::

           -------------------------------------------------
          |                Property Printout                |
           -------------------------------------------------

    * Orbital Energies and Occupations

         #    Occupation            Energy/Eh            Energy/eV
      -------------------------------------------------------------
         1        2.0000           -0.7413919             -20.1743
       ...           ...                  ...                  ...
        17        2.0000           -0.5102743             -13.8853
        18        2.0000           -0.5032081             -13.6930
        19        2.0000           -0.4887583             -13.2998
        20        2.0000           -0.4796314             -13.0514
        21        2.0000           -0.4773025             -12.9881
        22        2.0000           -0.4625320             -12.5861
        23        2.0000           -0.4614170             -12.5558
        24        2.0000           -0.4591071             -12.4929
        25        2.0000           -0.4527635             -12.3203
        26        2.0000           -0.4402618             -11.9801
        27        2.0000           -0.4356126             -11.8536
        28        2.0000           -0.4142996             -11.2737
        29        2.0000           -0.3576815              -9.7330 (HOMO)
        30                         -0.2754681              -7.4959 (LUMO)
        31                         -0.1653208              -4.4986
        32                         -0.0133519              -0.3633
        33                          0.0565861               1.5398
        34                          0.0790091               2.1499
        35                          0.1039566               2.8288
        36                          0.1054129               2.8684
        37                          0.1221887               3.3249
        38                          0.1308148               3.5597
        39                          0.1404925               3.8230
        40                          0.1494540               4.0669
       ...                                ...                  ...
        53                          0.7078229              19.2608
      -------------------------------------------------------------
                  HL-Gap            0.0822134 Eh            2.2371 eV
             Fermi-level           -0.3165748 Eh           -8.6144 eV

     #   Z          covCN         q      C6AA      α(0)
     1   6 C        3.715    -0.037    21.372     6.605
     2   7 N        2.725    -0.174    24.756     7.390
     3   6 C        3.718    -0.035    21.319     6.596
     4   6 C        3.763     0.004    20.556     6.463
     5   6 C        3.704     0.077    19.444     6.304
     6   8 O        1.706    -0.268    18.443     5.798
     7   6 C        2.727     0.356    20.963     7.496
     8   8 O        0.856    -0.412    21.920     6.277
     9   6 C        2.887    -0.058    29.448     8.897
    10   6 C        2.841    -0.059    29.470     8.897
    11   1 H        0.925     0.046     2.376     2.410
    12   1 H        0.923     0.016     2.789     2.612
    13   1 H        0.925     0.041     2.435     2.440
    14   1 H        0.925     0.046     2.376     2.411
    15   1 H        0.925     0.041     2.429     2.437
    16   1 H        0.923     0.016     2.798     2.616
    17   1 H        0.924     0.056     2.241     2.341
    18   1 H        0.922     0.022     2.702     2.571
    19   1 H        0.924     0.061     2.183     2.311
    20   1 H        0.924     0.054     2.265     2.353
    21   1 H        0.926     0.064     2.147     2.292
    22   1 H        0.926     0.079     1.986     2.204
    23   1 H        0.926     0.064     2.158     2.297

 Mol. C6AA /au·bohr⁶  :       4544.830477
 Mol. C8AA /au·bohr⁸  :      98176.828000
 Mol. α(0) /au        :        102.016944


Wiberg/Mayer (AO) data.
largest (>0.10) Wiberg bond orders for each atom

 ---------------------------------------------------------------------------
     #   Z sym  total        # sym  WBO       # sym  WBO       # sym  WBO
 ---------------------------------------------------------------------------
     1   6 C    3.986 --     2 N    1.015    11 H    0.982    13 H    0.982
                            12 H    0.973
     2   7 N    3.120 --     1 C    1.015     3 C    1.014     4 C    1.009
     3   6 C    3.985 --     2 N    1.014    15 H    0.982    14 H    0.982
                            16 H    0.974
     4   6 C    3.986 --     2 N    1.009     5 C    0.998    17 H    0.969
                            18 H    0.963
     5   6 C    3.927 --     4 C    0.998    20 H    0.967    19 H    0.965
                             6 O    0.944
     6   8 O    2.304 --     7 C    1.120     5 C    0.944     8 O    0.174
     7   6 C    3.919 --     8 O    1.727     6 O    1.120     9 C    1.010
     8   8 O    2.034 --     7 C    1.727     6 O    0.174
     9   6 C    3.988 --    10 C    1.932     7 C    1.010    21 H    0.965
    10   6 C    3.981 --     9 C    1.932    23 H    0.975    22 H    0.970
    11   1 H    0.998 --     1 C    0.982
    12   1 H    1.000 --     1 C    0.973
    13   1 H    0.998 --     1 C    0.982
    14   1 H    0.998 --     3 C    0.982
    15   1 H    0.998 --     3 C    0.982
    16   1 H    1.000 --     3 C    0.974
    17   1 H    0.997 --     4 C    0.969
    18   1 H    0.999 --     4 C    0.963
    19   1 H    0.996 --     5 C    0.965
    20   1 H    0.997 --     5 C    0.967
    21   1 H    0.996 --     9 C    0.965
    22   1 H    0.994 --    10 C    0.970
    23   1 H    0.995 --    10 C    0.975
 ---------------------------------------------------------------------------

Topologies differ in total number of bonds
Writing topology from bond orders to xtbtopo.mol

molecular dipole:
                 x           y           z       tot (Debye)
 q only:       -0.299       0.681      -0.194
   full:       -0.340       0.808      -0.520       2.590
molecular quadrupole (traceless):
                xx          xy          yy          xz          yz          zz
 q only:        8.181       7.017      -4.103      -1.255       1.498      -4.078
  q+dip:        7.174       7.705      -4.081       0.369       1.734      -3.094
   full:        7.226       7.881      -4.582       0.240       2.319      -2.644

           -------------------------------------------------
          |                Geometry Summary                 |
           -------------------------------------------------

      molecular mass/u    :      143.1838941
   center of mass at/Å    :        0.5517131      -0.0651478       0.1925607
  moments of inertia/u·Å² :        0.1123775E+03   0.1077627E+04   0.1163014E+04
rotational constants/cm⁻¹ :        0.1500089E+00   0.1564330E-01   0.1449478E-01

 * 21 selected distances

     #   Z          #   Z                                           value/Å
     1   6 C        2   7 N                                       1.4489569
     2   7 N        3   6 C                                       1.4489095
     2   7 N        4   6 C                                       1.4511215
     4   6 C        5   6 C                                       1.5265494 (max)
     5   6 C        6   8 O                                       1.4250817
     6   8 O        7   6 C                                       1.3404415
     7   6 C        8   8 O                                       1.2057874
     9   6 C       10   6 C                                       1.3247709
     1   6 C       11   1 H                                       1.0885285
     1   6 C       12   1 H                                       1.1014358
     1   6 C       13   1 H                                       1.0873318
     3   6 C       14   1 H                                       1.0886814
     3   6 C       15   1 H                                       1.0887128
     3   6 C       16   1 H                                       1.1012627
     4   6 C       17   1 H                                       1.0928370
     4   6 C       18   1 H                                       1.1048612
     5   6 C       19   1 H                                       1.0954548
     5   6 C       20   1 H                                       1.0945090
     9   6 C       21   1 H                                       1.0790432
    10   6 C       22   1 H                                       1.0783618
    10   6 C       23   1 H                                       1.0765901 (min)

 * 4 distinct bonds (by element types)

   Z      Z             #   av. dist./Å        max./Å        min./Å
   1 H    6 C          13     1.0905854     1.1048612     1.0765901
   6 C    6 C           2     1.4256601     1.5265494     1.3247709
   6 C    7 N           3     1.4496626     1.4511215     1.4489095
   6 C    8 O           3     1.3237702     1.4250817     1.2057874


optimized geometry written to: xtbopt.xyz


           -------------------------------------------------
          | TOTAL ENERGY              -32.642842416065 Eh   |
          | GRADIENT NORM               0.000847181541 Eh/α |
          | HOMO-LUMO GAP               2.237139727509 eV   |
           -------------------------------------------------

------------------------------------------------------------------------
 * finished run on 2025/12/01 at 14:17:35.356     
------------------------------------------------------------------------
 total:
 * wall-time:     0 d,  0 h,  0 min,  0.438 sec
 *  cpu-time:     0 d,  0 h,  0 min,  9.899 sec
 * ratio c/w:    22.616 speedup
 SCF:
 * wall-time:     0 d,  0 h,  0 min,  0.026 sec
 *  cpu-time:     0 d,  0 h,  0 min,  0.587 sec
 * ratio c/w:    22.584 speedup
 ANC optimizer:
 * wall-time:     0 d,  0 h,  0 min,  0.401 sec
 *  cpu-time:     0 d,  0 h,  0 min,  9.103 sec
 * ratio c/w:    22.709 speedup

normal termination of xtb
