      -----------------------------------------------------------      
     |                   =====================                   |     
     |                           x T B                           |     
     |                   =====================                   |     
     |                         S. Grimme                         |     
     |          Mulliken Center for Theoretical Chemistry        |     
     |                    University of Bonn                     |     
      -----------------------------------------------------------      

   * xtb version 6.7.1 (edcfbbe) compiled by 'albert@albert-system' on 2024-07-22

   xtb is free software: you can redistribute it and/or modify it under
   the terms of the GNU Lesser General Public License as published by
   the Free Software Foundation, either version 3 of the License, or
   (at your option) any later version.
   
   xtb is distributed in the hope that it will be useful,
   but WITHOUT ANY WARRANTY; without even the implied warranty of
   MERCHANTABILITY or FITNESS FOR A PARTICULAR PURPOSE.  See the
   GNU Lesser General Public License for more details.
   
   Cite this work as:
   * C. Bannwarth, E. Caldeweyher, S. Ehlert, A. Hansen, P. Pracht,
     J. Seibert, S. Spicher, S. Grimme, WIREs Comput. Mol. Sci., 2020, 11,
     e01493. DOI: 10.1002/wcms.1493
   
   for GFN2-xTB:
   * C. Bannwarth, S. Ehlert and S. Grimme., J. Chem. Theory Comput., 2019,
     15, 1652-1671. DOI: 10.1021/acs.jctc.8b01176
   for GFN1-xTB:
   * S. Grimme, C. Bannwarth, P. Shushkov, J. Chem. Theory Comput., 2017,
     13, 1989-2009. DOI: 10.1021/acs.jctc.7b00118
   for GFN0-xTB:
   * P. Pracht, E. Caldeweyher, S. Ehlert, S. Grimme, ChemRxiv, 2019, preprint.
     DOI: 10.26434/chemrxiv.8326202.v1
   for GFN-FF:
   * S. Spicher and S. Grimme, Angew. Chem. Int. Ed., 2020, 59, 15665-15673.
     DOI: 10.1002/anie.202004239
   
   for ALPB and GBSA implicit solvation:
   * S. Ehlert, M. Stahn, S. Spicher, S. Grimme, J. Chem. Theory Comput.,
     2021, 17, 4250-4261. DOI: 10.1021/acs.jctc.1c00471
   
   for ddCOSMO and CPCM-X implicit solvation:
   * M. Stahn, S. Ehlert, S. Grimme, J. Phys. Chem. A,
     2023, XX, XXXX-XXXX. DOI: 10.1021/acs.jpca.3c04382
   
   for DFT-D4:
   * E. Caldeweyher, C. Bannwarth and S. Grimme, J. Chem. Phys., 2017,
     147, 034112. DOI: 10.1063/1.4993215
   * E. Caldeweyher, S. Ehlert, A. Hansen, H. Neugebauer, S. Spicher,
     C. Bannwarth and S. Grimme, J. Chem. Phys., 2019, 150, 154122.
     DOI: 10.1063/1.5090222
   * E. Caldeweyher, J.-M. Mewes, S. Ehlert and S. Grimme, Phys. Chem. Chem. Phys.
     2020, 22, 8499-8512. DOI: 10.1039/D0CP00502A
   
   for sTDA-xTB:
   * S. Grimme and C. Bannwarth, J. Chem. Phys., 2016, 145, 054103.
     DOI: 10.1063/1.4959605
   
   in the mass-spec context:
   * V. Asgeirsson, C. Bauer and S. Grimme, Chem. Sci., 2017, 8, 4879.
     DOI: 10.1039/c7sc00601b
   * J. Koopman and S. Grimme, ACS Omega 2019, 4, 12, 15120-15133.
     DOI: 10.1021/acsomega.9b02011
   
   for metadynamics refer to:
   * S. Grimme, J. Chem. Theory Comput., 2019, 155, 2847-2862
     DOI: 10.1021/acs.jctc.9b00143
   
   for SPH calculations refer to:
   * S. Spicher and S. Grimme, J. Chem. Theory Comput., 2021, 17, 1701-1714
     DOI: 10.1021/acs.jctc.0c01306
   
   for ONIOM refer to:
   * C. Plett, A. Katbashev, S. Ehlert, S. Grimme, M. Bursch,
     Phys. Chem. Chem. Phys., 2023, 25, 17860-17868. DOI: 10.1039/D3CP02178E
   
   for DIPRO refer to:
   * J. Kohn, N. Gildemeister, S. Grimme, D. Fazzi, A. Hansen,
     J. Chem. Phys., 2023, just accepted.
   
   for PTB refer to:
   * S. Grimme, M. Mueller, A. Hansen, J. Chem. Phys., 2023, 158, 124111.
     DOI: 10.1063/5.0137838
   
   with help from (in alphabetical order)
   P. Atkinson, C. Bannwarth, F. Bohle, G. Brandenburg, E. Caldeweyher
   M. Checinski, S. Dohm, S. Ehlert, S. Ehrlich, I. Gerasimov, C. Hölzer
   A. Katbashev, J. Kohn, J. Koopman, C. Lavigne, S. Lehtola, F. März, M. Müller,
   F. Musil, H. Neugebauer, J. Pisarek, C. Plett, P. Pracht, F. Pultar,
   J. Seibert, P. Shushkov, S. Spicher, M. Stahn, M. Steiner, T. Strunk,
   J. Stückrath, T. Rose, and J. Unsleber
   
 * started run on 2025/12/01 at 14:17:35.364     
   ID    Z sym.   atoms
    1    6 C      1, 3-5, 7, 9, 10
    2    7 N      2
    3    8 O      6, 8
    4    1 H      11-23

           -------------------------------------------------
          |                Calculation Setup                |
           -------------------------------------------------

          program call               : xtb pipeline_data/3_conformer_xyz/acrylates/rdkit/DPBJAVGHACCNRL-UHFFFAOYSA-N_conf154.xyz --opt --gfn 2-xTB --iterations 250
          coordinate file            : pipeline_data/3_conformer_xyz/acrylates/rdkit/DPBJAVGHACCNRL-UHFFFAOYSA-N_conf154.xyz
          omp threads                :                    24

########################################################################
[WARNING] Please study the warnings concerning your input carefully
-1- readin_getIntValue: could not parse '2-xTB'
########################################################################

           -------------------------------------------------
          |                 G F N 2 - x T B                 |
           -------------------------------------------------

        Reference                      10.1021/acs.jctc.8b01176
      * Hamiltonian:
        H0-scaling (s, p, d)           1.850000    2.230000    2.230000
        zeta-weighting                 0.500000
      * Dispersion:
        s8                             2.700000
        a1                             0.520000
        a2                             5.000000
        s9                             5.000000
      * Repulsion:
        kExp                           1.500000    1.000000
        rExp                           1.000000
      * Coulomb:
        alpha                          2.000000
        third order                    shell-resolved
        anisotropic                    true
        a3                             3.000000
        a5                             4.000000
        cn-shift                       1.200000
        cn-exp                         4.000000
        max-rad                        5.000000

q/qsh data taken from xtbrestart
CAMM data taken from xtbrestart

          ...................................................
          :                      SETUP                      :
          :.................................................:
          :  # basis functions                  53          :
          :  # atomic orbitals                  53          :
          :  # shells                           33          :
          :  # electrons                        58          :
          :  max. iterations                   250          :
          :  Hamiltonian                  GFN2-xTB          :
          :  restarted?                       true          :
          :  GBSA solvation                  false          :
          :  PC potential                    false          :
          :  electronic temp.          300.0000000     K    :
          :  accuracy                    1.0000000          :
          :  -> integral cutoff          0.2500000E+02      :
          :  -> integral neglect         0.1000000E-07      :
          :  -> SCF convergence          0.1000000E-05 Eh   :
          :  -> wf. convergence          0.1000000E-03 e    :
          :  Broyden damping             0.4000000          :
          :  net charge                          0          :
          :  unpaired electrons                  0          :
          ...................................................

 iter      E             dE          RMSdq      gap      omega  full diag
   1    -32.9786679 -0.329787E+02  0.414E+00    2.06       0.0  T
   2    -32.9828726 -0.420477E-02  0.244E+00    1.86       1.0  T
   3    -32.9747276  0.814507E-02  0.735E-01    1.91       1.0  T
   4    -32.9841051 -0.937758E-02  0.155E-01    1.81       1.0  T
   5    -32.9843868 -0.281696E-03  0.682E-02    1.82       1.0  T
   6    -32.9843886 -0.179055E-05  0.224E-02    1.82       1.0  T
   7    -32.9843942 -0.556303E-05  0.674E-03    1.81       3.1  T
   8    -32.9843943 -0.159774E-06  0.307E-03    1.81       6.8  T
   9    -32.9843944 -0.243689E-07  0.869E-04    1.81      24.0  T
  10    -32.9843944 -0.135866E-08  0.205E-04    1.81     101.5  T

   *** convergence criteria satisfied after 10 iterations ***

         #    Occupation            Energy/Eh            Energy/eV
      -------------------------------------------------------------
         1        2.0000           -0.7314479             -19.9037
       ...           ...                  ...                  ...
        23        2.0000           -0.4584787             -12.4758
        24        2.0000           -0.4570000             -12.4356
        25        2.0000           -0.4510161             -12.2728
        26        2.0000           -0.4398232             -11.9682
        27        2.0000           -0.4310766             -11.7302
        28        2.0000           -0.4160935             -11.3225
        29        2.0000           -0.3576918              -9.7333 (HOMO)
        30                         -0.2910521              -7.9199 (LUMO)
        31                         -0.1761698              -4.7938
        32                         -0.0348012              -0.9470
        33                          0.0601819               1.6376
        34                          0.0651737               1.7735
       ...                                ...                  ...
        53                          0.5948133              16.1857
      -------------------------------------------------------------
                  HL-Gap            0.0666397 Eh            1.8134 eV
             Fermi-level           -0.3243719 Eh           -8.8266 eV

 SCC (total)                   0 d,  0 h,  0 min,  0.018 sec
 SCC setup                      ...        0 min,  0.000 sec (  1.527%)
 Dispersion                     ...        0 min,  0.000 sec (  1.087%)
 classical contributions        ...        0 min,  0.000 sec (  0.301%)
 integral evaluation            ...        0 min,  0.001 sec (  4.804%)
 iterations                     ...        0 min,  0.014 sec ( 77.663%)
 molecular gradient             ...        0 min,  0.002 sec ( 13.515%)
 printout                       ...        0 min,  0.000 sec (  0.932%)

         :::::::::::::::::::::::::::::::::::::::::::::::::::::
         ::                     SUMMARY                     ::
         :::::::::::::::::::::::::::::::::::::::::::::::::::::
         :: total energy             -32.621389921129 Eh    ::
         :: gradient norm              0.132547234969 Eh/a0 ::
         :: HOMO-LUMO gap              1.813357314633 eV    ::
         ::.................................................::
         :: SCC energy               -32.984488661668 Eh    ::
         :: -> isotropic ES            0.052378996477 Eh    ::
         :: -> anisotropic ES          0.003463815951 Eh    ::
         :: -> anisotropic XC          0.016968023145 Eh    ::
         :: -> dispersion             -0.014808769003 Eh    ::
         :: repulsion energy           0.363098740539 Eh    ::
         :: add. restraining           0.000000000000 Eh    ::
         :: total charge               0.000000000000 e     ::
         :::::::::::::::::::::::::::::::::::::::::::::::::::::

      ----------------------------------------------------------- 
     |                   =====================                   |
     |                        A N C O P T                        |
     |                   =====================                   |
     |               Approximate Normal Coordinate               |
     |                Rational Function Optimizer                |
      ----------------------------------------------------------- 
      ----------------------------------------------------------- 
     |                   =====================                   |
     |                        A N C O P T                        |
     |                   =====================                   |
     |               Approximate Normal Coordinate               |
     |                Rational Function Optimizer                |
      ----------------------------------------------------------- 

          ...................................................
          :                      SETUP                      :
          :.................................................:
          :   optimization level            normal          :
          :   max. optcycles                   200          :
          :   ANC micro-cycles                  20          :
          :   degrees of freedom                63          :
          :.................................................:
          :   RF solver                   davidson          :
          :   write xtbopt.log                true          :
          :   linear?                        false          :
          :   energy convergence         0.5000000E-05 Eh   :
          :   grad. convergence          0.1000000E-02 Eh/α :
          :   maxmium RF displ.          1.0000000          :
          :   Hlow (freq-cutoff)         0.1000000E-01      :
          :   Hmax (freq-cutoff)         5.0000000          :
          :   S6 in model hess.         20.0000000          :
          ...................................................

generating ANC from exact Hessian ...
Using Lindh-Hessian (1995)
 Shifting diagonal of input Hessian by   9.244633243374278E-003
 Lowest  eigenvalues of input Hessian
    0.000000    0.000000    0.000000    0.000000    0.000000    0.000000
    0.010000    0.010683    0.010877    0.013275    0.014797    0.017685
    0.018665    0.019555    0.021705    0.021936    0.028746    0.031682
 Highest eigenvalues
    1.435476    1.473657    1.554492    1.671030    1.986157    2.089565
 

........................................................................
.............................. CYCLE    1 ..............................
........................................................................

 iter      E             dE          RMSdq      gap      omega  full diag
   1    -32.9843944 -0.329844E+02  0.831E-05    1.81       0.0  T
   2    -32.9843944 -0.104095E-10  0.515E-05    1.81     404.8  T
   3    -32.9843944  0.902389E-12  0.237E-05    1.81     878.7  T
     SCC iter.                  ...        0 min,  0.002 sec
     gradient                   ...        0 min,  0.002 sec
 * total energy  :   -32.6213899 Eh     change       -0.1955129E-09 Eh
   gradient norm :     0.1325471 Eh/α   predicted     0.0000000E+00 (-100.00%)
   displ. norm   :     0.3070915 α      lambda       -0.2046862E-01
   maximum displ.:     0.1504714 α      in ANC's #15, #8, #32, ...

........................................................................
.............................. CYCLE    2 ..............................
........................................................................

 iter      E             dE          RMSdq      gap      omega  full diag
   1    -33.0158582 -0.330159E+02  0.280E-01    2.04       0.0  T
   2    -33.0161144 -0.256184E-03  0.176E-01    1.98       1.0  T
   3    -33.0160582  0.561945E-04  0.106E-01    1.97       1.0  T
   4    -33.0161655 -0.107292E-03  0.376E-02    1.97       1.0  T
   5    -33.0161860 -0.205371E-04  0.803E-03    1.96       2.6  T
   6    -33.0161865 -0.523416E-06  0.418E-03    1.97       5.0  T
   7    -33.0161866 -0.447002E-07  0.123E-03    1.97      16.9  T
   8    -33.0161866 -0.221969E-08  0.477E-04    1.97      43.7  T
   9    -33.0161866 -0.458527E-09  0.126E-04    1.97     165.7  T
     SCC iter.                  ...        0 min,  0.008 sec
     gradient                   ...        0 min,  0.002 sec
 * total energy  :   -32.6354605 Eh     change       -0.1407057E-01 Eh
   gradient norm :     0.0500084 Eh/α   predicted    -0.1120820E-01 ( -20.34%)
   displ. norm   :     0.3231713 α      lambda       -0.5945355E-02
   maximum displ.:     0.1623408 α      in ANC's #8, #15, #6, ...

........................................................................
.............................. CYCLE    3 ..............................
........................................................................

 iter      E             dE          RMSdq      gap      omega  full diag
   1    -33.0306431 -0.330306E+02  0.176E-01    2.14       0.0  T
   2    -33.0307234 -0.802341E-04  0.110E-01    2.12       1.0  T
   3    -33.0306906  0.327238E-04  0.686E-02    2.11       1.0  T
   4    -33.0307453 -0.546228E-04  0.197E-02    2.11       1.1  T
   5    -33.0307503 -0.506925E-05  0.447E-03    2.11       4.7  T
   6    -33.0307505 -0.143708E-06  0.205E-03    2.11      10.2  T
   7    -33.0307505 -0.134736E-07  0.596E-04    2.12      35.0  T
   8    -33.0307505 -0.615586E-09  0.258E-04    2.12      80.7  T
     SCC iter.                  ...        0 min,  0.007 sec
     gradient                   ...        0 min,  0.002 sec
 * total energy  :   -32.6390015 Eh     change       -0.3540987E-02 Eh
   gradient norm :     0.0168187 Eh/α   predicted    -0.3285151E-02 (  -7.22%)
   displ. norm   :     0.2692492 α      lambda       -0.1367434E-02
   maximum displ.:     0.1374164 α      in ANC's #8, #6, #7, ...

........................................................................
.............................. CYCLE    4 ..............................
........................................................................

 iter      E             dE          RMSdq      gap      omega  full diag
   1    -33.0310660 -0.330311E+02  0.772E-02    2.15       0.0  T
   2    -33.0310729 -0.690632E-05  0.473E-02    2.15       1.0  T
   3    -33.0310656  0.724910E-05  0.242E-02    2.15       1.0  T
   4    -33.0310739 -0.825976E-05  0.630E-03    2.15       3.3  T
   5    -33.0310746 -0.669261E-06  0.120E-03    2.15      17.4  T
   6    -33.0310746 -0.201047E-08  0.484E-04    2.15      43.1  T
   7    -33.0310746 -0.956440E-09  0.188E-04    2.15     111.0  T
     SCC iter.                  ...        0 min,  0.006 sec
     gradient                   ...        0 min,  0.002 sec
 * total energy  :   -32.6400510 Eh     change       -0.1049501E-02 Eh
   gradient norm :     0.0110285 Eh/α   predicted    -0.7332984E-03 ( -30.13%)
   displ. norm   :     0.4106622 α      lambda       -0.1334486E-02
   maximum displ.:     0.1848823 α      in ANC's #7, #8, #6, ...

........................................................................
.............................. CYCLE    5 ..............................
........................................................................

 iter      E             dE          RMSdq      gap      omega  full diag
   1    -33.0301046 -0.330301E+02  0.101E-01    2.18       0.0  T
   2    -33.0301096 -0.502830E-05  0.608E-02    2.20       1.0  T
   3    -33.0301036  0.603024E-05  0.203E-02    2.20       1.0  T
   4    -33.0301102 -0.664277E-05  0.569E-03    2.20       3.7  T
   5    -33.0301107 -0.516761E-06  0.153E-03    2.20      13.7  T
   6    -33.0301107 -0.616743E-08  0.792E-04    2.20      26.3  T
   7    -33.0301107 -0.259990E-08  0.201E-04    2.20     103.9  T
     SCC iter.                  ...        0 min,  0.006 sec
     gradient                   ...        0 min,  0.002 sec
 * total energy  :   -32.6409890 Eh     change       -0.9380373E-03 Eh
   gradient norm :     0.0095351 Eh/α   predicted    -0.7797750E-03 ( -16.87%)
   displ. norm   :     0.3537486 α      lambda       -0.7333030E-03
   maximum displ.:     0.1697156 α      in ANC's #3, #7, #8, ...

........................................................................
.............................. CYCLE    6 ..............................
........................................................................

 iter      E             dE          RMSdq      gap      omega  full diag
   1    -33.0303447 -0.330303E+02  0.852E-02    2.21       0.0  T
   2    -33.0303458 -0.107633E-05  0.505E-02    2.22       1.0  T
   3    -33.0303451  0.636430E-06  0.756E-03    2.22       2.8  T
   4    -33.0303460 -0.870290E-06  0.284E-03    2.22       7.3  T
   5    -33.0303461 -0.857757E-07  0.116E-03    2.22      18.1  T
   6    -33.0303461 -0.629517E-08  0.487E-04    2.22      42.8  T
   7    -33.0303461 -0.995243E-09  0.106E-04    2.22     197.4  T
     SCC iter.                  ...        0 min,  0.007 sec
     gradient                   ...        0 min,  0.002 sec
 * total energy  :   -32.6415330 Eh     change       -0.5440206E-03 Eh
   gradient norm :     0.0110548 Eh/α   predicted    -0.4125348E-03 ( -24.17%)
   displ. norm   :     0.3472320 α      lambda       -0.6388046E-03
   maximum displ.:     0.1818937 α      in ANC's #3, #7, #1, ...

........................................................................
.............................. CYCLE    7 ..............................
........................................................................

 iter      E             dE          RMSdq      gap      omega  full diag
   1    -33.0325425 -0.330325E+02  0.843E-02    2.22       0.0  T
   2    -33.0325452 -0.275754E-05  0.498E-02    2.22       1.0  T
   3    -33.0325453 -0.479931E-07  0.563E-03    2.23       3.7  T
   4    -33.0325454 -0.150700E-06  0.213E-03    2.23       9.8  T
   5    -33.0325455 -0.503866E-07  0.131E-03    2.23      16.0  T
   6    -33.0325455 -0.124270E-07  0.470E-04    2.23      44.3  T
   7    -33.0325455 -0.134878E-08  0.129E-04    2.23     161.3  T
     SCC iter.                  ...        0 min,  0.006 sec
     gradient                   ...        0 min,  0.002 sec
 * total energy  :   -32.6419916 Eh     change       -0.4585646E-03 Eh
   gradient norm :     0.0090934 Eh/α   predicted    -0.3579141E-03 ( -21.95%)
   displ. norm   :     0.3226529 α      lambda       -0.4605020E-03
   maximum displ.:     0.1786540 α      in ANC's #3, #7, #1, ...

........................................................................
.............................. CYCLE    8 ..............................
........................................................................

 iter      E             dE          RMSdq      gap      omega  full diag
   1    -33.0340999 -0.330341E+02  0.883E-02    2.22       0.0  T
   2    -33.0341024 -0.242524E-05  0.524E-02    2.21       1.0  T
   3    -33.0341025 -0.175003E-06  0.400E-03    2.21       5.2  T
   4    -33.0341026 -0.394058E-07  0.147E-03    2.22      14.2  T
   5    -33.0341026  0.116211E-08  0.103E-03    2.22      20.3  T
   6    -33.0341026 -0.988705E-08  0.341E-04    2.22      61.2  T
   7    -33.0341026 -0.958863E-09  0.125E-04    2.22     166.5  T
     SCC iter.                  ...        0 min,  0.007 sec
     gradient                   ...        0 min,  0.001 sec
 * total energy  :   -32.6422741 Eh     change       -0.2825270E-03 Eh
   gradient norm :     0.0063395 Eh/α   predicted    -0.2542296E-03 ( -10.02%)
   displ. norm   :     0.2488103 α      lambda       -0.2622494E-03
   maximum displ.:     0.1410358 α      in ANC's #3, #1, #7, ...

........................................................................
.............................. CYCLE    9 ..............................
........................................................................

 iter      E             dE          RMSdq      gap      omega  full diag
   1    -33.0348384 -0.330348E+02  0.812E-02    2.22       0.0  T
   2    -33.0348407 -0.234607E-05  0.479E-02    2.22       1.0  T
   3    -33.0348404  0.362857E-06  0.652E-03    2.21       3.2  T
   4    -33.0348407 -0.277901E-06  0.379E-03    2.22       5.5  T
   5    -33.0348409 -0.269158E-06  0.848E-04    2.22      24.6  T
   6    -33.0348409 -0.761652E-09  0.277E-04    2.22      75.2  T
     SCC iter.                  ...        0 min,  0.006 sec
     gradient                   ...        0 min,  0.002 sec
 * total energy  :   -32.6424212 Eh     change       -0.1470779E-03 Eh
   gradient norm :     0.0039872 Eh/α   predicted    -0.1392615E-03 (  -5.31%)
   displ. norm   :     0.1091982 α      lambda       -0.8112471E-04
   maximum displ.:     0.0636807 α      in ANC's #3, #1, #7, ...

........................................................................
.............................. CYCLE   10 ..............................
........................................................................

 iter      E             dE          RMSdq      gap      omega  full diag
   1    -33.0357051 -0.330357E+02  0.515E-02    2.21       0.0  T
   2    -33.0357053 -0.237477E-06  0.304E-02    2.21       1.0  T
   3    -33.0357047  0.580949E-06  0.581E-03    2.21       3.6  T
   4    -33.0357054 -0.663955E-06  0.114E-03    2.21      18.3  T
   5    -33.0357054 -0.151399E-07  0.509E-04    2.21      40.9  T
   6    -33.0357054 -0.304816E-09  0.212E-04    2.21      98.4  T
     SCC iter.                  ...        0 min,  0.006 sec
     gradient                   ...        0 min,  0.002 sec
 * total energy  :   -32.6424771 Eh     change       -0.5589939E-04 Eh
   gradient norm :     0.0024885 Eh/α   predicted    -0.4104940E-04 ( -26.57%)
   displ. norm   :     0.1458057 α      lambda       -0.5638455E-04
   maximum displ.:     0.0794341 α      in ANC's #3, #1, #7, ...

........................................................................
.............................. CYCLE   11 ..............................
........................................................................

 iter      E             dE          RMSdq      gap      omega  full diag
   1    -33.0342843 -0.330343E+02  0.706E-02    2.21       0.0  T
   2    -33.0342851 -0.825583E-06  0.416E-02    2.22       1.0  T
   3    -33.0342842  0.913715E-06  0.748E-03    2.22       2.8  T
   4    -33.0342852 -0.979525E-06  0.253E-03    2.22       8.2  T
   5    -33.0342853 -0.112289E-06  0.703E-04    2.22      29.7  T
   6    -33.0342853 -0.677090E-09  0.340E-04    2.22      61.4  T
     SCC iter.                  ...        0 min,  0.006 sec
     gradient                   ...        0 min,  0.001 sec
 * total energy  :   -32.6424999 Eh     change       -0.2278369E-04 Eh
   gradient norm :     0.0031290 Eh/α   predicted    -0.2879865E-04 (  26.40%)
   displ. norm   :     0.0499456 α      lambda       -0.3682185E-04
   maximum displ.:     0.0359302 α      in ANC's #2, #1, #7, ...

........................................................................
.............................. CYCLE   12 ..............................
........................................................................

 iter      E             dE          RMSdq      gap      omega  full diag
   1    -33.0360473 -0.330360E+02  0.351E-02    2.22       0.0  T
   2    -33.0360478 -0.503011E-06  0.204E-02    2.22       1.0  T
   3    -33.0360478  0.730083E-07  0.322E-03    2.22       6.5  T
   4    -33.0360479 -0.931226E-07  0.135E-03    2.22      15.5  T
   5    -33.0360479 -0.313442E-07  0.497E-04    2.22      42.0  T
   6    -33.0360479 -0.104853E-08  0.241E-04    2.22      86.6  T
     SCC iter.                  ...        0 min,  0.006 sec
     gradient                   ...        0 min,  0.002 sec
 * total energy  :   -32.6425175 Eh     change       -0.1762935E-04 Eh
   gradient norm :     0.0018432 Eh/α   predicted    -0.1845798E-04 (   4.70%)
   displ. norm   :     0.0431371 α      lambda       -0.1437708E-04
   maximum displ.:     0.0320188 α      in ANC's #2, #4, #1, ...

........................................................................
.............................. CYCLE   13 ..............................
........................................................................

 iter      E             dE          RMSdq      gap      omega  full diag
   1    -33.0360188 -0.330360E+02  0.260E-02    2.22       0.0  T
   2    -33.0360189 -0.772644E-07  0.154E-02    2.22       1.4  T
   3    -33.0360189  0.410203E-07  0.184E-03    2.22      11.4  T
   4    -33.0360189 -0.529920E-07  0.739E-04    2.22      28.2  T
   5    -33.0360189 -0.773429E-08  0.301E-04    2.22      69.3  T
     SCC iter.                  ...        0 min,  0.005 sec
     gradient                   ...        0 min,  0.002 sec
 * total energy  :   -32.6425319 Eh     change       -0.1438456E-04 Eh
   gradient norm :     0.0015362 Eh/α   predicted    -0.7196857E-05 ( -49.97%)
   displ. norm   :     0.1078422 α      lambda       -0.2630702E-04
   maximum displ.:     0.0769502 α      in ANC's #2, #1, #5, ...

........................................................................
.............................. CYCLE   14 ..............................
........................................................................

 iter      E             dE          RMSdq      gap      omega  full diag
   1    -33.0349659 -0.330350E+02  0.643E-02    2.22       0.0  T
   2    -33.0349663 -0.438472E-06  0.379E-02    2.22       1.0  T
   3    -33.0349662  0.116466E-06  0.365E-03    2.22       5.7  T
   4    -33.0349664 -0.181815E-06  0.174E-03    2.22      12.0  T
   5    -33.0349664 -0.445354E-07  0.730E-04    2.22      28.6  T
   6    -33.0349664 -0.107806E-08  0.187E-04    2.22     111.6  T
     SCC iter.                  ...        0 min,  0.006 sec
     gradient                   ...        0 min,  0.002 sec
 * total energy  :   -32.6425545 Eh     change       -0.2262372E-04 Eh
   gradient norm :     0.0025042 Eh/α   predicted    -0.1322369E-04 ( -41.55%)
   displ. norm   :     0.0857319 α      lambda       -0.2348532E-04
   maximum displ.:     0.0606321 α      in ANC's #2, #1, #5, ...

........................................................................
.............................. CYCLE   15 ..............................
........................................................................

 iter      E             dE          RMSdq      gap      omega  full diag
   1    -33.0349935 -0.330350E+02  0.505E-02    2.22       0.0  T
   2    -33.0349936 -0.106318E-06  0.298E-02    2.22       1.0  T
   3    -33.0349937 -0.412709E-07  0.119E-03    2.22      17.5  T
   4    -33.0349937 -0.532427E-08  0.791E-04    2.22      26.4  T
   5    -33.0349937 -0.249004E-08  0.477E-04    2.22      43.7  T
     SCC iter.                  ...        0 min,  0.005 sec
     gradient                   ...        0 min,  0.001 sec
 * total energy  :   -32.6425764 Eh     change       -0.2188128E-04 Eh
   gradient norm :     0.0026983 Eh/α   predicted    -0.1183501E-04 ( -45.91%)
   displ. norm   :     0.2093493 α      lambda       -0.6130733E-04
   maximum displ.:     0.1443514 α      in ANC's #2, #1, #5, ...

........................................................................
.............................. CYCLE   16 ..............................
........................................................................

 iter      E             dE          RMSdq      gap      omega  full diag
   1    -33.0351671 -0.330352E+02  0.116E-01    2.23       0.0  T
   2    -33.0351677 -0.567623E-06  0.685E-02    2.23       1.0  T
   3    -33.0351679 -0.211562E-06  0.303E-03    2.23       6.9  T
   4    -33.0351679 -0.383468E-07  0.207E-03    2.23      10.1  T
   5    -33.0351680 -0.316384E-07  0.104E-03    2.23      20.0  T
   6    -33.0351680 -0.562254E-08  0.187E-04    2.23     111.6  T
   7    -33.0351680 -0.110774E-09  0.916E-05    2.23     227.8  T
     SCC iter.                  ...        0 min,  0.007 sec
     gradient                   ...        0 min,  0.001 sec
 * total energy  :   -32.6426302 Eh     change       -0.5378728E-04 Eh
   gradient norm :     0.0027725 Eh/α   predicted    -0.3200101E-04 ( -40.50%)
   displ. norm   :     0.4129254 α      lambda       -0.1021825E-03
   maximum displ.:     0.2861735 α      in ANC's #2, #1, #5, ...

........................................................................
.............................. CYCLE   17 ..............................
........................................................................

 iter      E             dE          RMSdq      gap      omega  full diag
   1    -33.0337849 -0.330338E+02  0.226E-01    2.23       0.0  T
   2    -33.0337874 -0.253455E-05  0.133E-01    2.23       1.0  T
   3    -33.0337884 -0.986331E-06  0.501E-03    2.23       4.2  T
   4    -33.0337885 -0.593701E-07  0.304E-03    2.24       6.9  T
   5    -33.0337885  0.155620E-07  0.143E-03    2.23      14.6  T
   6    -33.0337885 -0.296134E-07  0.467E-04    2.23      44.7  T
   7    -33.0337885 -0.222312E-08  0.207E-04    2.24     101.0  T
     SCC iter.                  ...        0 min,  0.007 sec
     gradient                   ...        0 min,  0.006 sec
 * total energy  :   -32.6426960 Eh     change       -0.6580050E-04 Eh
   gradient norm :     0.0058523 Eh/α   predicted    -0.5980712E-04 (  -9.11%)
   displ. norm   :     0.2227003 α      lambda       -0.6738169E-04
   maximum displ.:     0.1460200 α      in ANC's #2, #5, #4, ...

........................................................................
.............................. CYCLE   18 ..............................
........................................................................

 iter      E             dE          RMSdq      gap      omega  full diag
   1    -33.0349149 -0.330349E+02  0.102E-01    2.25       0.0  T
   2    -33.0349162 -0.128321E-05  0.603E-02    2.25       1.0  T
   3    -33.0349162  0.783830E-08  0.426E-03    2.25       4.9  T
   4    -33.0349164 -0.197002E-06  0.222E-03    2.25       9.4  T
   5    -33.0349164 -0.563664E-07  0.120E-03    2.25      17.3  T
   6    -33.0349164 -0.771698E-08  0.461E-04    2.25      45.2  T
   7    -33.0349164 -0.120283E-08  0.124E-04    2.25     168.5  T
     SCC iter.                  ...        0 min,  0.015 sec
     gradient                   ...        0 min,  0.002 sec
 * total energy  :   -32.6427403 Eh     change       -0.4429093E-04 Eh
   gradient norm :     0.0038282 Eh/α   predicted    -0.3536339E-04 ( -20.16%)
   displ. norm   :     0.2122884 α      lambda       -0.6493428E-04
   maximum displ.:     0.1400976 α      in ANC's #2, #1, #5, ...

........................................................................
.............................. CYCLE   19 ..............................
........................................................................

 iter      E             dE          RMSdq      gap      omega  full diag
   1    -33.0352846 -0.330353E+02  0.104E-01    2.24       0.0  T
   2    -33.0352852 -0.654593E-06  0.614E-02    2.24       1.0  T
   3    -33.0352854 -0.190909E-06  0.258E-03    2.24       8.1  T
   4    -33.0352855 -0.292918E-07  0.149E-03    2.24      14.0  T
   5    -33.0352855  0.225608E-08  0.885E-04    2.24      23.6  T
   6    -33.0352855 -0.763184E-08  0.277E-04    2.24      75.2  T
     SCC iter.                  ...        0 min,  0.006 sec
     gradient                   ...        0 min,  0.002 sec
 * total energy  :   -32.6427847 Eh     change       -0.4442642E-04 Eh
   gradient norm :     0.0019802 Eh/α   predicted    -0.3393407E-04 ( -23.62%)
   displ. norm   :     0.3454115 α      lambda       -0.3717719E-04
   maximum displ.:     0.2291041 α      in ANC's #2, #1, #5, ...

........................................................................
.............................. CYCLE   20 ..............................
........................................................................

 iter      E             dE          RMSdq      gap      omega  full diag
   1    -33.0332823 -0.330333E+02  0.177E-01    2.23       0.0  T
   2    -33.0332842 -0.182399E-05  0.104E-01    2.24       1.0  T
   3    -33.0332843 -0.110718E-06  0.622E-03    2.24       3.4  T
   4    -33.0332847 -0.440813E-06  0.352E-03    2.24       5.9  T
   5    -33.0332848 -0.115884E-06  0.190E-03    2.24      11.0  T
   6    -33.0332848 -0.159360E-07  0.555E-04    2.24      37.6  T
   7    -33.0332848 -0.181686E-08  0.181E-04    2.24     115.4  T
     SCC iter.                  ...        0 min,  0.007 sec
     gradient                   ...        0 min,  0.002 sec
 * total energy  :   -32.6427993 Eh     change       -0.1454039E-04 Eh
   gradient norm :     0.0038665 Eh/α   predicted    -0.1957500E-04 (  34.62%)
   displ. norm   :     0.0790294 α      lambda       -0.5313933E-04
   maximum displ.:     0.0425922 α      in ANC's #1, #2, #3, ...
 * RMSD in coord.:     0.6193568 α      energy gain  -0.2140933E-01 Eh

generating ANC from exact Hessian ...
Using Lindh-Hessian (1995)
 Shifting diagonal of input Hessian by   9.109376951183006E-003
 Lowest  eigenvalues of input Hessian
    0.000000    0.000000    0.000000    0.000000    0.000000    0.000000
    0.010000    0.010645    0.010910    0.013735    0.015099    0.018042
    0.019141    0.019351    0.022319    0.023005    0.030120    0.032638
 Highest eigenvalues
    1.452713    1.492688    1.507677    1.760344    2.030995    2.402250
 

........................................................................
.............................. CYCLE   21 ..............................
........................................................................

 iter      E             dE          RMSdq      gap      omega  full diag
   1    -33.0375813 -0.330376E+02  0.507E-02    2.24       0.0  T
   2    -33.0375829 -0.160862E-05  0.300E-02    2.23       1.0  T
   3    -33.0375829  0.540259E-07  0.463E-03    2.23       4.5  T
   4    -33.0375831 -0.190430E-06  0.118E-03    2.23      17.6  T
   5    -33.0375831 -0.987607E-08  0.689E-04    2.23      30.3  T
   6    -33.0375831 -0.693440E-09  0.121E-04    2.23     173.0  T
     SCC iter.                  ...        0 min,  0.005 sec
     gradient                   ...        0 min,  0.002 sec
 * total energy  :   -32.6427763 Eh     change        0.2296724E-04 Eh
   gradient norm :     0.0065250 Eh/α   predicted     0.0000000E+00 (-100.00%)
   displ. norm   :     0.0221840 α      lambda       -0.6267714E-04
   maximum displ.:     0.0101748 α      in ANC's #4, #33, #3, ...

........................................................................
.............................. CYCLE   22 ..............................
........................................................................

 iter      E             dE          RMSdq      gap      omega  full diag
   1    -33.0361167 -0.330361E+02  0.208E-02    2.23       0.0  T
   2    -33.0361175 -0.789434E-06  0.123E-02    2.23       1.7  T
   3    -33.0361174  0.298831E-07  0.383E-03    2.23       5.4  T
   4    -33.0361175 -0.383418E-07  0.152E-03    2.23      13.7  T
   5    -33.0361175 -0.402568E-07  0.481E-04    2.23      43.3  T
   6    -33.0361175 -0.163467E-08  0.255E-04    2.23      81.8  T
     SCC iter.                  ...        0 min,  0.007 sec
     gradient                   ...        0 min,  0.002 sec
 * total energy  :   -32.6428181 Eh     change       -0.4183856E-04 Eh
   gradient norm :     0.0014312 Eh/α   predicted    -0.3545063E-04 ( -15.27%)
   displ. norm   :     0.0261941 α      lambda       -0.8349605E-05
   maximum displ.:     0.0131452 α      in ANC's #2, #4, #3, ...

........................................................................
.............................. CYCLE   23 ..............................
........................................................................

 iter      E             dE          RMSdq      gap      omega  full diag
   1    -33.0354404 -0.330354E+02  0.190E-02    2.24       0.0  T
   2    -33.0354405 -0.113653E-06  0.112E-02    2.24       1.9  T
   3    -33.0354405  0.330121E-07  0.177E-03    2.24      11.8  T
   4    -33.0354405 -0.340212E-07  0.936E-04    2.24      22.3  T
   5    -33.0354405 -0.156506E-07  0.274E-04    2.24      76.2  T
     SCC iter.                  ...        0 min,  0.005 sec
     gradient                   ...        0 min,  0.001 sec
 * total energy  :   -32.6428227 Eh     change       -0.4575878E-05 Eh
   gradient norm :     0.0011877 Eh/α   predicted    -0.4189904E-05 (  -8.43%)
   displ. norm   :     0.0232298 α      lambda       -0.4382798E-05
   maximum displ.:     0.0127334 α      in ANC's #4, #2, #3, ...

........................................................................
.............................. CYCLE   24 ..............................
........................................................................

 iter      E             dE          RMSdq      gap      omega  full diag
   1    -33.0354800 -0.330355E+02  0.188E-02    2.24       0.0  T
   2    -33.0354800 -0.194478E-07  0.111E-02    2.24       1.9  T
   3    -33.0354800 -0.165732E-08  0.629E-04    2.24      33.2  T
   4    -33.0354800 -0.489364E-08  0.324E-04    2.24      64.3  T
     SCC iter.                  ...        0 min,  0.003 sec
     gradient                   ...        0 min,  0.001 sec
 * total energy  :   -32.6428263 Eh     change       -0.3596189E-05 Eh
   gradient norm :     0.0009146 Eh/α   predicted    -0.2201139E-05 ( -38.79%)
   displ. norm   :     0.0401551 α      lambda       -0.5229714E-05
   maximum displ.:     0.0238347 α      in ANC's #4, #2, #3, ...

   *** GEOMETRY OPTIMIZATION CONVERGED AFTER 24 ITERATIONS ***

------------------------------------------------------------------------
 total energy gain   :        -0.0214364 Eh      -13.4515 kcal/mol
 total RMSD          :         0.6230068 a0        0.3297 Å
 total power (kW/mol):        -2.3450500 (step) -226.3171 (real)
------------------------------------------------------------------------

 ANCopt (total)                0 d,  0 h,  0 min,  0.249 sec
 optimizer setup                ...        0 min,  0.000 sec (  0.045%)
 model hessian                  ...        0 min,  0.015 sec (  6.056%)
 ANC generation                 ...        0 min,  0.001 sec (  0.398%)
 coordinate transformation      ...        0 min,  0.000 sec (  0.078%)
 single point calculation       ...        0 min,  0.223 sec ( 89.828%)
 optimization log               ...        0 min,  0.002 sec (  1.002%)
 hessian update                 ...        0 min,  0.003 sec (  1.388%)
 rational function              ...        0 min,  0.002 sec (  0.800%)

================
 final structure:
================
23
 xtb: 6.7.1 (edcfbbe)
C           -2.60054663867696       -1.29175794425039        0.63391754192563
N           -2.25149703256732        0.10577827702840        0.47241939286633
C           -3.33079769330784        0.84051809225800       -0.15642868340019
C           -1.00868808276386        0.28062999671095       -0.25605260589668
C            0.19541789158155       -0.18205865514099        0.55951690435044
O            1.36614997790746        0.36982852972282       -0.03782510348403
C            2.53964961722782       -0.05302937496093        0.45258325973280
O            2.64024075167314       -0.85342535109679        1.34931464150165
C            3.66682813028608        0.58886750395158       -0.25931083805169
C            4.92318748574134        0.33152972703034        0.07216011072090
H           -3.54209181914847       -1.35829993564969        1.17674537776289
H           -1.83340381084903       -1.79458062496414        1.21814170539170
H           -2.71323046768613       -1.81365484212365       -0.32957674897125
H           -4.23263403511906        0.72220085709642        0.44126379579804
H           -3.54155356313342        0.49754921445183       -1.18126633339816
H           -3.07418717298186        1.89795873908845       -0.18915267229243
H           -0.87668658470144        1.34794594676301       -0.44997782654411
H           -1.01680475033813       -0.24326476296785       -1.22892919563337
H            0.29510967262111       -1.27234963501930        0.58120768903160
H            0.10798242040504        0.17712801437695        1.59101666413764
H            3.38971261271376        1.26861975269935       -1.05076263389556
H            5.13984732319521       -0.35467187147495        0.87514993989593
H            5.75799676792059        0.78853934647101       -0.43100038154810
 
 Bond Distances (Angstroems)
 ---------------------------
C1-N2=1.4495         C1-H11=1.0889        C1-H12=1.0875        C1-H13=1.1015        N2-C1=1.4495         N2-C3=1.4492         
N2-C4=1.4511         C3-N2=1.4492         C3-H14=1.0884        C3-H15=1.1011        C3-H16=1.0886        C4-N2=1.4511         
C4-C5=1.5261         C4-H17=1.0928        C4-H18=1.1050        C5-C4=1.5261         C5-O6=1.4255         C5-H19=1.0951        
C5-H20=1.0957        O6-C5=1.4255         O6-C7=1.3403         C7-O6=1.3403         C7-O8=1.2062         C7-C9=1.4796         
O8-C7=1.2062         C9-C7=1.4796         C9-C10=1.3246        C9-H21=1.0795        C10-C9=1.3246        C10-H22=1.0782       
C10-H23=1.0765       H11-C1=1.0889        H12-C1=1.0875        H13-C1=1.1015        H14-C3=1.0884        H15-C3=1.1011        
H16-C3=1.0886        H17-C4=1.0928        H18-C4=1.1050        H19-C5=1.0951        H20-C5=1.0957        H21-C9=1.0795        
H22-C10=1.0782       H23-C10=1.0765       
 C  H  Rav=1.0907 sigma=0.0087  Rmin=1.0765  Rmax=1.1050    13
 C  C  Rav=1.4435 sigma=0.0862  Rmin=1.3246  Rmax=1.5261     3
 N  C  Rav=1.4499 sigma=0.0009  Rmin=1.4492  Rmax=1.4511     3
 O  C  Rav=1.3240 sigma=0.0903  Rmin=1.2062  Rmax=1.4255     3
 
 selected bond angles (degree)
 --------------------
H11-C1-N2=108.83               H12-C1-N2=109.62               H12-C1-H11=108.29              H13-C1-N2=112.58               
H13-C1-H11=108.58              H13-C1-H12=108.84              C3-N2-C1=110.97                C4-N2-C1=112.23                
C4-N2-C3=111.03                H14-C3-N2=108.89               H15-C3-N2=112.86               H15-C3-H14=108.58              
H16-C3-N2=109.27               H16-C3-H14=108.51              H16-C3-H15=108.65              C5-C4-N2=111.77                
H17-C4-N2=108.07               H17-C4-C5=107.20               H18-C4-N2=112.24               H18-C4-C5=109.42               
H18-C4-H17=107.92              O6-C5-C4=107.86                H19-C5-C4=112.60               H19-C5-O6=108.60               
H20-C5-C4=109.92               H20-C5-O6=109.46               H20-C5-H19=108.36              C7-O6-C5=116.33                
O8-C7-O6=123.67                C9-C7-O6=110.74                C9-C7-O8=125.59                C10-C9-C7=121.19               
H21-C9-C7=115.49               H21-C9-C10=123.32              H22-C10-C9=120.04              H23-C10-C9=122.42              
H23-C10-H22=117.54             
 
 selected dihedral angles (degree)
 ---------------------------------
C3-N2-C1-H11=305.41           C3-N2-C1-H12=187.14           C3-N2-C1-H13= 65.84           C4-N2-C1-H11=180.53           
C4-N2-C1-H12= 62.26           C4-N2-C1-H13=300.96           H14-C3-N2-C1= 56.99           H14-C3-N2-C4=182.54           
H15-C3-N2-C1=296.34           H15-C3-N2-C4= 61.89           H16-C3-N2-C1=175.34           H16-C3-N2-C4=300.90           
C5-C4-N2-C1=290.58            C5-C4-N2-C3=165.74            H17-C4-N2-C1=172.86           H17-C4-N2-C3= 48.02           
H18-C4-N2-C1= 53.97           H18-C4-N2-C3=289.12           O6-C5-C4-N2=196.70            O6-C5-C4-H17=314.95           
O6-C5-C4-H18= 71.73           H19-C5-C4-N2= 76.89           H19-C5-C4-H17=195.14          H19-C5-C4-H18=311.92          
H20-C5-C4-N2=315.98           H20-C5-C4-H17= 74.22          H20-C5-C4-H18=191.01          C7-O6-C5-C4=187.40            
C7-O6-C5-H19=309.70           C7-O6-C5-H20= 67.83           O8-C7-O6-C5=359.92            C9-C7-O6-C5=179.63            
C10-C9-C7-O6=179.10           C10-C9-C7-O8=358.79           H21-C9-C7-O6=359.18           H21-C9-C7-O8=178.87           
H22-C10-C9-C7=359.85          H22-C10-C9-H21=179.77         H23-C10-C9-C7=180.12          H23-C10-C9-H21=  0.03         
           -------------------------------------------------
          |                Final Singlepoint                |
           -------------------------------------------------

          ...................................................
          :                      SETUP                      :
          :.................................................:
          :  # basis functions                  53          :
          :  # atomic orbitals                  53          :
          :  # shells                           33          :
          :  # electrons                        58          :
          :  max. iterations                   250          :
          :  Hamiltonian                  GFN2-xTB          :
          :  restarted?                      false          :
          :  GBSA solvation                  false          :
          :  PC potential                    false          :
          :  electronic temp.          300.0000000     K    :
          :  accuracy                    1.0000000          :
          :  -> integral cutoff          0.2500000E+02      :
          :  -> integral neglect         0.1000000E-07      :
          :  -> SCF convergence          0.1000000E-05 Eh   :
          :  -> wf. convergence          0.1000000E-03 e    :
          :  Broyden damping             0.4000000          :
          :  net charge                          0          :
          :  unpaired electrons                  0          :
          ...................................................

 iter      E             dE          RMSdq      gap      omega  full diag
   1    -33.0354800 -0.330355E+02  0.203E-04    2.24       0.0  T
   2    -33.0354800 -0.341984E-10  0.161E-04    2.24     129.6  T
   3    -33.0354800 -0.318757E-09  0.805E-05    2.24     258.9  T

   *** convergence criteria satisfied after 3 iterations ***

         #    Occupation            Energy/Eh            Energy/eV
      -------------------------------------------------------------
         1        2.0000           -0.7414863             -20.1769
       ...           ...                  ...                  ...
        23        2.0000           -0.4615114             -12.5584
        24        2.0000           -0.4591614             -12.4944
        25        2.0000           -0.4531351             -12.3304
        26        2.0000           -0.4403227             -11.9818
        27        2.0000           -0.4355898             -11.8530
        28        2.0000           -0.4143807             -11.2759
        29        2.0000           -0.3577529              -9.7350 (HOMO)
        30                         -0.2755192              -7.4973 (LUMO)
        31                         -0.1654968              -4.5034
        32                         -0.0137439              -0.3740
        33                          0.0565959               1.5401
        34                          0.0787665               2.1433
       ...                                ...                  ...
        53                          0.7066797              19.2297
      -------------------------------------------------------------
                  HL-Gap            0.0822337 Eh            2.2377 eV
             Fermi-level           -0.3166361 Eh           -8.6161 eV

 SCC (total)                   0 d,  0 h,  0 min,  0.005 sec
 SCC setup                      ...        0 min,  0.000 sec (  1.746%)
 Dispersion                     ...        0 min,  0.000 sec (  2.483%)
 classical contributions        ...        0 min,  0.000 sec (  0.757%)
 integral evaluation            ...        0 min,  0.000 sec (  7.870%)
 iterations                     ...        0 min,  0.003 sec ( 54.851%)
 molecular gradient             ...        0 min,  0.001 sec ( 29.203%)
 printout                       ...        0 min,  0.000 sec (  2.272%)

         :::::::::::::::::::::::::::::::::::::::::::::::::::::
         ::                     SUMMARY                     ::
         :::::::::::::::::::::::::::::::::::::::::::::::::::::
         :: total energy             -32.642826298528 Eh    ::
         :: gradient norm              0.000913578734 Eh/a0 ::
         :: HOMO-LUMO gap              2.237693241550 eV    ::
         ::.................................................::
         :: SCC energy               -33.035571922466 Eh    ::
         :: -> isotropic ES            0.049886455633 Eh    ::
         :: -> anisotropic ES          0.003473266180 Eh    ::
         :: -> anisotropic XC          0.015833930100 Eh    ::
         :: -> dispersion             -0.014915890418 Eh    ::
         :: repulsion energy           0.392745623938 Eh    ::
         :: add. restraining           0.000000000000 Eh    ::
         :: total charge               0.000000000000 e     ::
         :::::::::::::::::::::::::::::::::::::::::::::::::::::

           -------------------------------------------------
          |                Property Printout                |
           -------------------------------------------------

    * Orbital Energies and Occupations

         #    Occupation            Energy/Eh            Energy/eV
      -------------------------------------------------------------
         1        2.0000           -0.7414863             -20.1769
       ...           ...                  ...                  ...
        17        2.0000           -0.5104487             -13.8900
        18        2.0000           -0.5034650             -13.7000
        19        2.0000           -0.4887904             -13.3007
        20        2.0000           -0.4788317             -13.0297
        21        2.0000           -0.4775829             -12.9957
        22        2.0000           -0.4626270             -12.5887
        23        2.0000           -0.4615114             -12.5584
        24        2.0000           -0.4591614             -12.4944
        25        2.0000           -0.4531351             -12.3304
        26        2.0000           -0.4403227             -11.9818
        27        2.0000           -0.4355898             -11.8530
        28        2.0000           -0.4143807             -11.2759
        29        2.0000           -0.3577529              -9.7350 (HOMO)
        30                         -0.2755192              -7.4973 (LUMO)
        31                         -0.1654968              -4.5034
        32                         -0.0137439              -0.3740
        33                          0.0565959               1.5401
        34                          0.0787665               2.1433
        35                          0.1036304               2.8199
        36                          0.1054695               2.8700
        37                          0.1214311               3.3043
        38                          0.1306428               3.5550
        39                          0.1398790               3.8063
        40                          0.1494745               4.0674
       ...                                ...                  ...
        53                          0.7066797              19.2297
      -------------------------------------------------------------
                  HL-Gap            0.0822337 Eh            2.2377 eV
             Fermi-level           -0.3166361 Eh           -8.6161 eV

     #   Z          covCN         q      C6AA      α(0)
     1   6 C        3.714    -0.038    21.374     6.606
     2   7 N        2.724    -0.174    24.758     7.390
     3   6 C        3.718    -0.035    21.319     6.595
     4   6 C        3.763     0.004    20.550     6.462
     5   6 C        3.704     0.077    19.436     6.303
     6   8 O        1.706    -0.268    18.443     5.798
     7   6 C        2.728     0.355    20.965     7.496
     8   8 O        0.856    -0.412    21.921     6.277
     9   6 C        2.887    -0.058    29.447     8.897
    10   6 C        2.842    -0.060    29.471     8.897
    11   1 H        0.925     0.046     2.375     2.410
    12   1 H        0.925     0.041     2.434     2.440
    13   1 H        0.923     0.016     2.789     2.611
    14   1 H        0.925     0.046     2.376     2.410
    15   1 H        0.923     0.016     2.796     2.615
    16   1 H        0.925     0.042     2.429     2.437
    17   1 H        0.924     0.056     2.248     2.345
    18   1 H        0.922     0.022     2.698     2.569
    19   1 H        0.924     0.054     2.269     2.356
    20   1 H        0.924     0.061     2.186     2.312
    21   1 H        0.926     0.064     2.148     2.292
    22   1 H        0.926     0.079     1.986     2.204
    23   1 H        0.926     0.064     2.158     2.297

 Mol. C6AA /au·bohr⁶  :       4544.916750
 Mol. C8AA /au·bohr⁸  :      98177.051268
 Mol. α(0) /au        :        102.018011


Wiberg/Mayer (AO) data.
largest (>0.10) Wiberg bond orders for each atom

 ---------------------------------------------------------------------------
     #   Z sym  total        # sym  WBO       # sym  WBO       # sym  WBO
 ---------------------------------------------------------------------------
     1   6 C    3.986 --     2 N    1.015    11 H    0.982    12 H    0.982
                            13 H    0.973
     2   7 N    3.119 --     1 C    1.015     3 C    1.014     4 C    1.009
     3   6 C    3.985 --     2 N    1.014    16 H    0.982    14 H    0.982
                            15 H    0.974
     4   6 C    3.986 --     2 N    1.009     5 C    0.998    17 H    0.970
                            18 H    0.963
     5   6 C    3.927 --     4 C    0.998    19 H    0.967    20 H    0.965
                             6 O    0.943
     6   8 O    2.304 --     7 C    1.120     5 C    0.943     8 O    0.174
     7   6 C    3.919 --     8 O    1.727     6 O    1.120     9 C    1.010
     8   8 O    2.034 --     7 C    1.727     6 O    0.174
     9   6 C    3.988 --    10 C    1.932     7 C    1.010    21 H    0.965
    10   6 C    3.981 --     9 C    1.932    23 H    0.975    22 H    0.970
    11   1 H    0.998 --     1 C    0.982
    12   1 H    0.998 --     1 C    0.982
    13   1 H    1.000 --     1 C    0.973
    14   1 H    0.998 --     3 C    0.982
    15   1 H    1.000 --     3 C    0.974
    16   1 H    0.998 --     3 C    0.982
    17   1 H    0.997 --     4 C    0.970
    18   1 H    0.999 --     4 C    0.963
    19   1 H    0.997 --     5 C    0.967
    20   1 H    0.996 --     5 C    0.965
    21   1 H    0.996 --     9 C    0.965
    22   1 H    0.994 --    10 C    0.970
    23   1 H    0.995 --    10 C    0.975
 ---------------------------------------------------------------------------

Topologies differ in total number of bonds
Writing topology from bond orders to xtbtopo.mol

molecular dipole:
                 x           y           z       tot (Debye)
 q only:       -0.298       0.448      -0.548
   full:       -0.340       0.379      -0.895       2.616
molecular quadrupole (traceless):
                xx          xy          yy          xz          yz          zz
 q only:        8.421       4.812      -2.774      -5.330       0.806      -5.648
  q+dip:        7.518       6.282      -2.211      -4.320       1.319      -5.307
   full:        7.573       6.375      -1.799      -4.508       1.991      -5.774

           -------------------------------------------------
          |                Geometry Summary                 |
           -------------------------------------------------

      molecular mass/u    :      143.1838941
   center of mass at/Å    :        0.5520370      -0.0014786       0.2877344
  moments of inertia/u·Å² :        0.1121645E+03   0.1078257E+04   0.1161792E+04
rotational constants/cm⁻¹ :        0.1502939E+00   0.1563415E-01   0.1451002E-01

 * 21 selected distances

     #   Z          #   Z                                           value/Å
     1   6 C        2   7 N                                       1.4494913
     2   7 N        3   6 C                                       1.4492007
     2   7 N        4   6 C                                       1.4511440
     4   6 C        5   6 C                                       1.5261409 (max)
     5   6 C        6   8 O                                       1.4254862
     6   8 O        7   6 C                                       1.3403025
     7   6 C        8   8 O                                       1.2061840
     9   6 C       10   6 C                                       1.3245886
     1   6 C       11   1 H                                       1.0888514
     1   6 C       12   1 H                                       1.0875003
     1   6 C       13   1 H                                       1.1015423
     3   6 C       14   1 H                                       1.0883677
     3   6 C       15   1 H                                       1.1010623
     3   6 C       16   1 H                                       1.0886233
     4   6 C       17   1 H                                       1.0927923
     4   6 C       18   1 H                                       1.1049980
     5   6 C       19   1 H                                       1.0950541
     5   6 C       20   1 H                                       1.0957427
     9   6 C       21   1 H                                       1.0794685
    10   6 C       22   1 H                                       1.0782426
    10   6 C       23   1 H                                       1.0765384 (min)

 * 4 distinct bonds (by element types)

   Z      Z             #   av. dist./Å        max./Å        min./Å
   1 H    6 C          13     1.0906757     1.1049980     1.0765384
   6 C    6 C           2     1.4253647     1.5261409     1.3245886
   6 C    7 N           3     1.4499454     1.4511440     1.4492007
   6 C    8 O           3     1.3239909     1.4254862     1.2061840


optimized geometry written to: xtbopt.xyz


           -------------------------------------------------
          | TOTAL ENERGY              -32.642826298528 Eh   |
          | GRADIENT NORM               0.000913578734 Eh/α |
          | HOMO-LUMO GAP               2.237693241550 eV   |
           -------------------------------------------------

------------------------------------------------------------------------
 * finished run on 2025/12/01 at 14:17:35.647     
------------------------------------------------------------------------
 total:
 * wall-time:     0 d,  0 h,  0 min,  0.283 sec
 *  cpu-time:     0 d,  0 h,  0 min,  6.364 sec
 * ratio c/w:    22.512 speedup
 SCF:
 * wall-time:     0 d,  0 h,  0 min,  0.018 sec
 *  cpu-time:     0 d,  0 h,  0 min,  0.393 sec
 * ratio c/w:    22.179 speedup
 ANC optimizer:
 * wall-time:     0 d,  0 h,  0 min,  0.254 sec
 *  cpu-time:     0 d,  0 h,  0 min,  5.768 sec
 * ratio c/w:    22.677 speedup

normal termination of xtb
