      -----------------------------------------------------------      
     |                   =====================                   |     
     |                           x T B                           |     
     |                   =====================                   |     
     |                         S. Grimme                         |     
     |          Mulliken Center for Theoretical Chemistry        |     
     |                    University of Bonn                     |     
      -----------------------------------------------------------      

   * xtb version 6.7.1 (edcfbbe) compiled by 'albert@albert-system' on 2024-07-22

   xtb is free software: you can redistribute it and/or modify it under
   the terms of the GNU Lesser General Public License as published by
   the Free Software Foundation, either version 3 of the License, or
   (at your option) any later version.
   
   xtb is distributed in the hope that it will be useful,
   but WITHOUT ANY WARRANTY; without even the implied warranty of
   MERCHANTABILITY or FITNESS FOR A PARTICULAR PURPOSE.  See the
   GNU Lesser General Public License for more details.
   
   Cite this work as:
   * C. Bannwarth, E. Caldeweyher, S. Ehlert, A. Hansen, P. Pracht,
     J. Seibert, S. Spicher, S. Grimme, WIREs Comput. Mol. Sci., 2020, 11,
     e01493. DOI: 10.1002/wcms.1493
   
   for GFN2-xTB:
   * C. Bannwarth, S. Ehlert and S. Grimme., J. Chem. Theory Comput., 2019,
     15, 1652-1671. DOI: 10.1021/acs.jctc.8b01176
   for GFN1-xTB:
   * S. Grimme, C. Bannwarth, P. Shushkov, J. Chem. Theory Comput., 2017,
     13, 1989-2009. DOI: 10.1021/acs.jctc.7b00118
   for GFN0-xTB:
   * P. Pracht, E. Caldeweyher, S. Ehlert, S. Grimme, ChemRxiv, 2019, preprint.
     DOI: 10.26434/chemrxiv.8326202.v1
   for GFN-FF:
   * S. Spicher and S. Grimme, Angew. Chem. Int. Ed., 2020, 59, 15665-15673.
     DOI: 10.1002/anie.202004239
   
   for ALPB and GBSA implicit solvation:
   * S. Ehlert, M. Stahn, S. Spicher, S. Grimme, J. Chem. Theory Comput.,
     2021, 17, 4250-4261. DOI: 10.1021/acs.jctc.1c00471
   
   for ddCOSMO and CPCM-X implicit solvation:
   * M. Stahn, S. Ehlert, S. Grimme, J. Phys. Chem. A,
     2023, XX, XXXX-XXXX. DOI: 10.1021/acs.jpca.3c04382
   
   for DFT-D4:
   * E. Caldeweyher, C. Bannwarth and S. Grimme, J. Chem. Phys., 2017,
     147, 034112. DOI: 10.1063/1.4993215
   * E. Caldeweyher, S. Ehlert, A. Hansen, H. Neugebauer, S. Spicher,
     C. Bannwarth and S. Grimme, J. Chem. Phys., 2019, 150, 154122.
     DOI: 10.1063/1.5090222
   * E. Caldeweyher, J.-M. Mewes, S. Ehlert and S. Grimme, Phys. Chem. Chem. Phys.
     2020, 22, 8499-8512. DOI: 10.1039/D0CP00502A
   
   for sTDA-xTB:
   * S. Grimme and C. Bannwarth, J. Chem. Phys., 2016, 145, 054103.
     DOI: 10.1063/1.4959605
   
   in the mass-spec context:
   * V. Asgeirsson, C. Bauer and S. Grimme, Chem. Sci., 2017, 8, 4879.
     DOI: 10.1039/c7sc00601b
   * J. Koopman and S. Grimme, ACS Omega 2019, 4, 12, 15120-15133.
     DOI: 10.1021/acsomega.9b02011
   
   for metadynamics refer to:
   * S. Grimme, J. Chem. Theory Comput., 2019, 155, 2847-2862
     DOI: 10.1021/acs.jctc.9b00143
   
   for SPH calculations refer to:
   * S. Spicher and S. Grimme, J. Chem. Theory Comput., 2021, 17, 1701-1714
     DOI: 10.1021/acs.jctc.0c01306
   
   for ONIOM refer to:
   * C. Plett, A. Katbashev, S. Ehlert, S. Grimme, M. Bursch,
     Phys. Chem. Chem. Phys., 2023, 25, 17860-17868. DOI: 10.1039/D3CP02178E
   
   for DIPRO refer to:
   * J. Kohn, N. Gildemeister, S. Grimme, D. Fazzi, A. Hansen,
     J. Chem. Phys., 2023, just accepted.
   
   for PTB refer to:
   * S. Grimme, M. Mueller, A. Hansen, J. Chem. Phys., 2023, 158, 124111.
     DOI: 10.1063/5.0137838
   
   with help from (in alphabetical order)
   P. Atkinson, C. Bannwarth, F. Bohle, G. Brandenburg, E. Caldeweyher
   M. Checinski, S. Dohm, S. Ehlert, S. Ehrlich, I. Gerasimov, C. Hölzer
   A. Katbashev, J. Kohn, J. Koopman, C. Lavigne, S. Lehtola, F. März, M. Müller,
   F. Musil, H. Neugebauer, J. Pisarek, C. Plett, P. Pracht, F. Pultar,
   J. Seibert, P. Shushkov, S. Spicher, M. Stahn, M. Steiner, T. Strunk,
   J. Stückrath, T. Rose, and J. Unsleber
   
 * started run on 2025/12/01 at 14:17:35.654     
   ID    Z sym.   atoms
    1    6 C      1, 3-5, 7, 9, 10
    2    7 N      2
    3    8 O      6, 8
    4    1 H      11-23

           -------------------------------------------------
          |                Calculation Setup                |
           -------------------------------------------------

          program call               : xtb pipeline_data/3_conformer_xyz/acrylates/rdkit/DPBJAVGHACCNRL-UHFFFAOYSA-N_conf144.xyz --opt --gfn 2-xTB --iterations 250
          coordinate file            : pipeline_data/3_conformer_xyz/acrylates/rdkit/DPBJAVGHACCNRL-UHFFFAOYSA-N_conf144.xyz
          omp threads                :                    24

########################################################################
[WARNING] Please study the warnings concerning your input carefully
-1- readin_getIntValue: could not parse '2-xTB'
########################################################################

           -------------------------------------------------
          |                 G F N 2 - x T B                 |
           -------------------------------------------------

        Reference                      10.1021/acs.jctc.8b01176
      * Hamiltonian:
        H0-scaling (s, p, d)           1.850000    2.230000    2.230000
        zeta-weighting                 0.500000
      * Dispersion:
        s8                             2.700000
        a1                             0.520000
        a2                             5.000000
        s9                             5.000000
      * Repulsion:
        kExp                           1.500000    1.000000
        rExp                           1.000000
      * Coulomb:
        alpha                          2.000000
        third order                    shell-resolved
        anisotropic                    true
        a3                             3.000000
        a5                             4.000000
        cn-shift                       1.200000
        cn-exp                         4.000000
        max-rad                        5.000000

q/qsh data taken from xtbrestart
CAMM data taken from xtbrestart

          ...................................................
          :                      SETUP                      :
          :.................................................:
          :  # basis functions                  53          :
          :  # atomic orbitals                  53          :
          :  # shells                           33          :
          :  # electrons                        58          :
          :  max. iterations                   250          :
          :  Hamiltonian                  GFN2-xTB          :
          :  restarted?                       true          :
          :  GBSA solvation                  false          :
          :  PC potential                    false          :
          :  electronic temp.          300.0000000     K    :
          :  accuracy                    1.0000000          :
          :  -> integral cutoff          0.2500000E+02      :
          :  -> integral neglect         0.1000000E-07      :
          :  -> SCF convergence          0.1000000E-05 Eh   :
          :  -> wf. convergence          0.1000000E-03 e    :
          :  Broyden damping             0.4000000          :
          :  net charge                          0          :
          :  unpaired electrons                  0          :
          ...................................................

 iter      E             dE          RMSdq      gap      omega  full diag
   1    -32.9684033 -0.329684E+02  0.187E+00    2.10       0.0  T
   2    -32.9728337 -0.443041E-02  0.111E+00    2.00       1.0  T
   3    -32.9701828  0.265089E-02  0.479E-01    1.90       1.0  T
   4    -32.9734743 -0.329151E-02  0.179E-01    1.86       1.0  T
   5    -32.9739144 -0.440078E-03  0.661E-02    1.87       1.0  T
   6    -32.9739158 -0.137660E-05  0.322E-02    1.87       1.0  T
   7    -32.9739241 -0.828691E-05  0.576E-03    1.87       3.6  T
   8    -32.9739242 -0.980962E-07  0.243E-03    1.87       8.6  T
   9    -32.9739242 -0.170417E-07  0.905E-04    1.87      23.0  T
  10    -32.9739242 -0.161832E-08  0.419E-04    1.87      49.8  T

   *** convergence criteria satisfied after 10 iterations ***

         #    Occupation            Energy/Eh            Energy/eV
      -------------------------------------------------------------
         1        2.0000           -0.7308236             -19.8867
       ...           ...                  ...                  ...
        23        2.0000           -0.4581244             -12.4662
        24        2.0000           -0.4553779             -12.3915
        25        2.0000           -0.4517871             -12.2938
        26        2.0000           -0.4383080             -11.9270
        27        2.0000           -0.4302137             -11.7067
        28        2.0000           -0.4139072             -11.2630
        29        2.0000           -0.3579675              -9.7408 (HOMO)
        30                         -0.2891475              -7.8681 (LUMO)
        31                         -0.1799300              -4.8961
        32                         -0.0356981              -0.9714
        33                          0.0527795               1.4362
        34                          0.0657604               1.7894
       ...                                ...                  ...
        53                          0.5972058              16.2508
      -------------------------------------------------------------
                  HL-Gap            0.0688201 Eh            1.8727 eV
             Fermi-level           -0.3235575 Eh           -8.8044 eV

 SCC (total)                   0 d,  0 h,  0 min,  0.021 sec
 SCC setup                      ...        0 min,  0.000 sec (  1.370%)
 Dispersion                     ...        0 min,  0.000 sec (  1.149%)
 classical contributions        ...        0 min,  0.000 sec (  2.108%)
 integral evaluation            ...        0 min,  0.001 sec (  2.986%)
 iterations                     ...        0 min,  0.017 sec ( 80.844%)
 molecular gradient             ...        0 min,  0.002 sec ( 10.650%)
 printout                       ...        0 min,  0.000 sec (  0.703%)

         :::::::::::::::::::::::::::::::::::::::::::::::::::::
         ::                     SUMMARY                     ::
         :::::::::::::::::::::::::::::::::::::::::::::::::::::
         :: total energy             -32.618908182076 Eh    ::
         :: gradient norm              0.134949368101 Eh/a0 ::
         :: HOMO-LUMO gap              1.872689625291 eV    ::
         ::.................................................::
         :: SCC energy               -32.974013746149 Eh    ::
         :: -> isotropic ES            0.052244724054 Eh    ::
         :: -> anisotropic ES          0.003543258276 Eh    ::
         :: -> anisotropic XC          0.016994568616 Eh    ::
         :: -> dispersion             -0.014853514459 Eh    ::
         :: repulsion energy           0.355105564072 Eh    ::
         :: add. restraining           0.000000000000 Eh    ::
         :: total charge              -0.000000000000 e     ::
         :::::::::::::::::::::::::::::::::::::::::::::::::::::

      ----------------------------------------------------------- 
     |                   =====================                   |
     |                        A N C O P T                        |
     |                   =====================                   |
     |               Approximate Normal Coordinate               |
     |                Rational Function Optimizer                |
      ----------------------------------------------------------- 
      ----------------------------------------------------------- 
     |                   =====================                   |
     |                        A N C O P T                        |
     |                   =====================                   |
     |               Approximate Normal Coordinate               |
     |                Rational Function Optimizer                |
      ----------------------------------------------------------- 

          ...................................................
          :                      SETUP                      :
          :.................................................:
          :   optimization level            normal          :
          :   max. optcycles                   200          :
          :   ANC micro-cycles                  20          :
          :   degrees of freedom                63          :
          :.................................................:
          :   RF solver                   davidson          :
          :   write xtbopt.log                true          :
          :   linear?                        false          :
          :   energy convergence         0.5000000E-05 Eh   :
          :   grad. convergence          0.1000000E-02 Eh/α :
          :   maxmium RF displ.          1.0000000          :
          :   Hlow (freq-cutoff)         0.1000000E-01      :
          :   Hmax (freq-cutoff)         5.0000000          :
          :   S6 in model hess.         20.0000000          :
          ...................................................

generating ANC from exact Hessian ...
Using Lindh-Hessian (1995)
 Shifting diagonal of input Hessian by   9.247488385352857E-003
 Lowest  eigenvalues of input Hessian
    0.000000    0.000000    0.000000    0.000000    0.000000    0.000000
    0.010000    0.010679    0.010878    0.013166    0.014476    0.017236
    0.018832    0.019289    0.020916    0.021320    0.028107    0.031272
 Highest eigenvalues
    1.434029    1.499491    1.518528    1.687878    1.947957    2.046008
 

........................................................................
.............................. CYCLE    1 ..............................
........................................................................

 iter      E             dE          RMSdq      gap      omega  full diag
   1    -32.9739242 -0.329739E+02  0.787E-05    1.87       0.0  T
   2    -32.9739242 -0.109779E-10  0.466E-05    1.87     447.5  T
   3    -32.9739242  0.666489E-11  0.312E-05    1.87     667.9  T
     SCC iter.                  ...        0 min,  0.003 sec
     gradient                   ...        0 min,  0.002 sec
 * total energy  :   -32.6189082 Eh     change       -0.5613785E-09 Eh
   gradient norm :     0.1349510 Eh/α   predicted     0.0000000E+00 (-100.00%)
   displ. norm   :     0.3310266 α      lambda       -0.2086998E-01
   maximum displ.:     0.2314197 α      in ANC's #15, #12, #13, ...

........................................................................
.............................. CYCLE    2 ..............................
........................................................................

 iter      E             dE          RMSdq      gap      omega  full diag
   1    -33.0120648 -0.330121E+02  0.256E-01    2.12       0.0  T
   2    -33.0124042 -0.339379E-03  0.168E-01    2.05       1.0  T
   3    -33.0124123 -0.807127E-05  0.967E-02    2.03       1.0  T
   4    -33.0124620 -0.497006E-04  0.439E-02    2.03       1.0  T
   5    -33.0124889 -0.269444E-04  0.897E-03    2.02       2.3  T
   6    -33.0124896 -0.747948E-06  0.426E-03    2.03       4.9  T
   7    -33.0124897 -0.544680E-07  0.133E-03    2.03      15.7  T
   8    -33.0124897 -0.229831E-08  0.543E-04    2.03      38.4  T
   9    -33.0124897 -0.665572E-09  0.128E-04    2.03     162.6  T
     SCC iter.                  ...        0 min,  0.008 sec
     gradient                   ...        0 min,  0.002 sec
 * total energy  :   -32.6334086 Eh     change       -0.1450042E-01 Eh
   gradient norm :     0.0515720 Eh/α   predicted    -0.1158620E-01 ( -20.10%)
   displ. norm   :     0.3135991 α      lambda       -0.6242722E-02
   maximum displ.:     0.2110064 α      in ANC's #15, #12, #13, ...

........................................................................
.............................. CYCLE    3 ..............................
........................................................................

 iter      E             dE          RMSdq      gap      omega  full diag
   1    -33.0295200 -0.330295E+02  0.172E-01    2.17       0.0  T
   2    -33.0296359 -0.115933E-03  0.108E-01    2.13       1.0  T
   3    -33.0296177  0.181691E-04  0.642E-02    2.12       1.0  T
   4    -33.0296551 -0.373682E-04  0.256E-02    2.12       1.0  T
   5    -33.0296633 -0.820572E-05  0.503E-03    2.12       4.1  T
   6    -33.0296635 -0.214136E-06  0.214E-03    2.12       9.7  T
   7    -33.0296635 -0.179756E-07  0.542E-04    2.12      38.5  T
   8    -33.0296635 -0.263817E-09  0.239E-04    2.12      87.4  T
     SCC iter.                  ...        0 min,  0.018 sec
     gradient                   ...        0 min,  0.012 sec
 * total energy  :   -32.6369780 Eh     change       -0.3569381E-02 Eh
   gradient norm :     0.0156753 Eh/α   predicted    -0.3428330E-02 (  -3.95%)
   displ. norm   :     0.1949368 α      lambda       -0.9568827E-03
   maximum displ.:     0.0970833 α      in ANC's #7, #15, #11, ...

........................................................................
.............................. CYCLE    4 ..............................
........................................................................

 iter      E             dE          RMSdq      gap      omega  full diag
   1    -33.0288553 -0.330289E+02  0.744E-02    2.09       0.0  T
   2    -33.0288620 -0.668212E-05  0.443E-02    2.09       1.0  T
   3    -33.0288584  0.358597E-05  0.192E-02    2.09       1.1  T
   4    -33.0288624 -0.402316E-05  0.671E-03    2.09       3.1  T
   5    -33.0288632 -0.773199E-06  0.161E-03    2.09      13.0  T
   6    -33.0288632 -0.176727E-07  0.855E-04    2.09      24.4  T
   7    -33.0288632 -0.221644E-08  0.195E-04    2.09     107.0  T
     SCC iter.                  ...        0 min,  0.029 sec
     gradient                   ...        0 min,  0.001 sec
 * total energy  :   -32.6376304 Eh     change       -0.6524579E-03 Eh
   gradient norm :     0.0070217 Eh/α   predicted    -0.4966393E-03 ( -23.88%)
   displ. norm   :     0.2484258 α      lambda       -0.6348399E-03
   maximum displ.:     0.1648727 α      in ANC's #7, #9, #1, ...

........................................................................
.............................. CYCLE    5 ..............................
........................................................................

 iter      E             dE          RMSdq      gap      omega  full diag
   1    -33.0284365 -0.330284E+02  0.872E-02    2.07       0.0  T
   2    -33.0284390 -0.249057E-05  0.511E-02    2.08       1.0  T
   3    -33.0284359  0.306604E-05  0.152E-02    2.07       1.4  T
   4    -33.0284395 -0.358782E-05  0.427E-03    2.08       4.9  T
   5    -33.0284398 -0.265160E-06  0.153E-03    2.08      13.6  T
   6    -33.0284398 -0.743217E-08  0.563E-04    2.08      37.0  T
   7    -33.0284398 -0.154297E-08  0.164E-04    2.08     126.8  T
     SCC iter.                  ...        0 min,  0.005 sec
     gradient                   ...        0 min,  0.004 sec
 * total energy  :   -32.6380621 Eh     change       -0.4316722E-03 Eh
   gradient norm :     0.0075020 Eh/α   predicted    -0.3370212E-03 ( -21.93%)
   displ. norm   :     0.3459974 α      lambda       -0.6675774E-03
   maximum displ.:     0.2503263 α      in ANC's #7, #9, #1, ...

........................................................................
.............................. CYCLE    6 ..............................
........................................................................

 iter      E             dE          RMSdq      gap      omega  full diag
   1    -33.0275362 -0.330275E+02  0.120E-01    2.06       0.0  T
   2    -33.0275399 -0.367973E-05  0.704E-02    2.07       1.0  T
   3    -33.0275376  0.225183E-05  0.134E-02    2.07       1.6  T
   4    -33.0275403 -0.266538E-05  0.537E-03    2.07       3.9  T
   5    -33.0275407 -0.416836E-06  0.179E-03    2.07      11.7  T
   6    -33.0275407 -0.450391E-08  0.606E-04    2.07      34.4  T
   7    -33.0275407 -0.233540E-08  0.193E-04    2.07     108.0  T
     SCC iter.                  ...        0 min,  0.007 sec
     gradient                   ...        0 min,  0.002 sec
 * total energy  :   -32.6385046 Eh     change       -0.4424605E-03 Eh
   gradient norm :     0.0128029 Eh/α   predicted    -0.3737495E-03 ( -15.53%)
   displ. norm   :     0.3469721 α      lambda       -0.6983572E-03
   maximum displ.:     0.2550500 α      in ANC's #7, #9, #1, ...

........................................................................
.............................. CYCLE    7 ..............................
........................................................................

 iter      E             dE          RMSdq      gap      omega  full diag
   1    -33.0280279 -0.330280E+02  0.118E-01    2.08       0.0  T
   2    -33.0280318 -0.390736E-05  0.693E-02    2.09       1.0  T
   3    -33.0280313  0.551845E-06  0.873E-03    2.09       2.4  T
   4    -33.0280319 -0.628064E-06  0.492E-03    2.09       4.2  T
   5    -33.0280323 -0.406635E-06  0.143E-03    2.09      14.6  T
   6    -33.0280323 -0.505739E-08  0.501E-04    2.09      41.6  T
   7    -33.0280323 -0.663121E-09  0.149E-04    2.09     139.8  T
     SCC iter.                  ...        0 min,  0.006 sec
     gradient                   ...        0 min,  0.001 sec
 * total energy  :   -32.6390620 Eh     change       -0.5574673E-03 Eh
   gradient norm :     0.0158815 Eh/α   predicted    -0.3912365E-03 ( -29.82%)
   displ. norm   :     0.4441260 α      lambda       -0.1299727E-02
   maximum displ.:     0.2909005 α      in ANC's #7, #1, #9, ...

........................................................................
.............................. CYCLE    8 ..............................
........................................................................

 iter      E             dE          RMSdq      gap      omega  full diag
   1    -33.0320265 -0.330320E+02  0.170E-01    2.12       0.0  T
   2    -33.0320349 -0.838427E-05  0.100E-01    2.13       1.0  T
   3    -33.0320353 -0.459655E-06  0.775E-03    2.14       2.7  T
   4    -33.0320355 -0.157662E-06  0.337E-03    2.14       6.2  T
   5    -33.0320356 -0.747003E-07  0.209E-03    2.13      10.0  T
   6    -33.0320356 -0.433299E-07  0.694E-04    2.13      30.0  T
   7    -33.0320356 -0.172444E-08  0.203E-04    2.13     102.8  T
     SCC iter.                  ...        0 min,  0.007 sec
     gradient                   ...        0 min,  0.001 sec
 * total energy  :   -32.6400111 Eh     change       -0.9490825E-03 Eh
   gradient norm :     0.0150132 Eh/α   predicted    -0.7780570E-03 ( -18.02%)
   displ. norm   :     0.4838003 α      lambda       -0.1075040E-02
   maximum displ.:     0.3241827 α      in ANC's #7, #1, #2, ...

........................................................................
.............................. CYCLE    9 ..............................
........................................................................

 iter      E             dE          RMSdq      gap      omega  full diag
   1    -33.0297658 -0.330298E+02  0.195E-01    2.16       0.0  T
   2    -33.0297720 -0.624615E-05  0.114E-01    2.17       1.0  T
   3    -33.0297727 -0.653250E-06  0.698E-03    2.17       3.0  T
   4    -33.0297729 -0.201013E-06  0.358E-03    2.17       5.8  T
   5    -33.0297729 -0.503797E-07  0.229E-03    2.17       9.1  T
   6    -33.0297730 -0.527677E-07  0.700E-04    2.17      29.8  T
   7    -33.0297730 -0.181443E-08  0.200E-04    2.17     104.0  T
     SCC iter.                  ...        0 min,  0.006 sec
     gradient                   ...        0 min,  0.002 sec
 * total energy  :   -32.6408120 Eh     change       -0.8008501E-03 Eh
   gradient norm :     0.0178946 Eh/α   predicted    -0.6633366E-03 ( -17.17%)
   displ. norm   :     0.4634482 α      lambda       -0.1881782E-02
   maximum displ.:     0.2375370 α      in ANC's #1, #2, #7, ...

........................................................................
.............................. CYCLE   10 ..............................
........................................................................

 iter      E             dE          RMSdq      gap      omega  full diag
   1    -33.0378028 -0.330378E+02  0.251E-01    2.21       0.0  T
   2    -33.0378342 -0.313631E-04  0.145E-01    2.20       1.0  T
   3    -33.0378342 -0.249459E-07  0.205E-02    2.20       1.0  T
   4    -33.0378356 -0.141191E-05  0.938E-03    2.20       2.2  T
   5    -33.0378369 -0.127705E-05  0.381E-03    2.20       5.5  T
   6    -33.0378369 -0.382143E-07  0.121E-03    2.20      17.3  T
   7    -33.0378370 -0.815556E-08  0.300E-04    2.20      69.5  T
   8    -33.0378370 -0.227573E-09  0.139E-04    2.20     150.2  T
     SCC iter.                  ...        0 min,  0.024 sec
     gradient                   ...        0 min,  0.002 sec
 * total energy  :   -32.6411453 Eh     change       -0.3333544E-03 Eh
   gradient norm :     0.0203790 Eh/α   predicted    -0.1142983E-02 ( 242.87%)
   displ. norm   :     0.3973676 α      lambda       -0.1705318E-02
   maximum displ.:     0.3027359 α      in ANC's #7, #1, #2, ...

........................................................................
.............................. CYCLE   11 ..............................
........................................................................

 iter      E             dE          RMSdq      gap      omega  full diag
   1    -33.0289875 -0.330290E+02  0.163E-01    2.23       0.0  T
   2    -33.0290101 -0.226078E-04  0.938E-02    2.23       1.0  T
   3    -33.0290110 -0.859577E-06  0.183E-02    2.23       1.1  T
   4    -33.0290117 -0.700691E-06  0.609E-03    2.23       3.4  T
   5    -33.0290120 -0.329962E-06  0.348E-03    2.23       6.0  T
   6    -33.0290121 -0.712621E-07  0.868E-04    2.23      24.0  T
   7    -33.0290121 -0.439326E-08  0.234E-04    2.23      89.1  T
     SCC iter.                  ...        0 min,  0.006 sec
     gradient                   ...        0 min,  0.001 sec
 * total energy  :   -32.6419654 Eh     change       -0.8200284E-03 Eh
   gradient norm :     0.0153673 Eh/α   predicted    -0.9873196E-03 (  20.40%)
   displ. norm   :     0.0682332 α      lambda       -0.4031377E-03
   maximum displ.:     0.0250401 α      in ANC's #5, #3, #29, ...

........................................................................
.............................. CYCLE   12 ..............................
........................................................................

 iter      E             dE          RMSdq      gap      omega  full diag
   1    -33.0333118 -0.330333E+02  0.499E-02    2.22       0.0  T
   2    -33.0333142 -0.241485E-05  0.289E-02    2.21       1.0  T
   3    -33.0333141  0.714563E-07  0.677E-03    2.21       3.1  T
   4    -33.0333144 -0.262581E-06  0.168E-03    2.21      12.4  T
   5    -33.0333144 -0.214133E-07  0.946E-04    2.21      22.0  T
   6    -33.0333144 -0.624878E-08  0.473E-04    2.21      44.1  T
     SCC iter.                  ...        0 min,  0.005 sec
     gradient                   ...        0 min,  0.001 sec
 * total energy  :   -32.6422253 Eh     change       -0.2599353E-03 Eh
   gradient norm :     0.0076113 Eh/α   predicted    -0.2025075E-03 ( -22.09%)
   displ. norm   :     0.3147459 α      lambda       -0.4321224E-03
   maximum displ.:     0.1772188 α      in ANC's #7, #1, #2, ...

........................................................................
.............................. CYCLE   13 ..............................
........................................................................

 iter      E             dE          RMSdq      gap      omega  full diag
   1    -33.0335838 -0.330336E+02  0.141E-01    2.22       0.0  T
   2    -33.0335865 -0.271427E-05  0.830E-02    2.22       1.0  T
   3    -33.0335857  0.791943E-06  0.882E-03    2.22       2.4  T
   4    -33.0335867 -0.100625E-05  0.437E-03    2.22       4.8  T
   5    -33.0335870 -0.319312E-06  0.157E-03    2.22      13.3  T
   6    -33.0335870 -0.513544E-08  0.477E-04    2.22      43.7  T
   7    -33.0335870 -0.683102E-09  0.167E-04    2.22     124.5  T
     SCC iter.                  ...        0 min,  0.007 sec
     gradient                   ...        0 min,  0.011 sec
 * total energy  :   -32.6425311 Eh     change       -0.3058127E-03 Eh
   gradient norm :     0.0051185 Eh/α   predicted    -0.2374671E-03 ( -22.35%)
   displ. norm   :     0.2972181 α      lambda       -0.2794944E-03
   maximum displ.:     0.1763318 α      in ANC's #7, #1, #2, ...

........................................................................
.............................. CYCLE   14 ..............................
........................................................................

 iter      E             dE          RMSdq      gap      omega  full diag
   1    -33.0356437 -0.330356E+02  0.108E-01    2.25       0.0  T
   2    -33.0356454 -0.170400E-05  0.640E-02    2.25       1.0  T
   3    -33.0356455 -0.785923E-07  0.432E-03    2.25       4.8  T
   4    -33.0356457 -0.213612E-06  0.171E-03    2.25      12.2  T
   5    -33.0356457 -0.974037E-08  0.962E-04    2.25      21.7  T
   6    -33.0356457 -0.657991E-09  0.283E-04    2.25      73.6  T
     SCC iter.                  ...        0 min,  0.004 sec
     gradient                   ...        0 min,  0.001 sec
 * total energy  :   -32.6426728 Eh     change       -0.1417082E-03 Eh
   gradient norm :     0.0065787 Eh/α   predicted    -0.1520943E-03 (   7.33%)
   displ. norm   :     0.2167187 α      lambda       -0.1633094E-03
   maximum displ.:     0.1165332 α      in ANC's #2, #7, #1, ...

........................................................................
.............................. CYCLE   15 ..............................
........................................................................

 iter      E             dE          RMSdq      gap      omega  full diag
   1    -33.0329415 -0.330329E+02  0.114E-01    2.23       0.0  T
   2    -33.0329473 -0.584325E-05  0.673E-02    2.24       1.0  T
   3    -33.0329461  0.120219E-05  0.106E-02    2.24       2.0  T
   4    -33.0329471 -0.104663E-05  0.567E-03    2.24       3.7  T
   5    -33.0329478 -0.643398E-06  0.137E-03    2.24      15.2  T
   6    -33.0329478 -0.437543E-08  0.682E-04    2.24      30.6  T
   7    -33.0329478 -0.177879E-08  0.193E-04    2.24     108.0  T
     SCC iter.                  ...        0 min,  0.005 sec
     gradient                   ...        0 min,  0.001 sec
 * total energy  :   -32.6427253 Eh     change       -0.5249756E-04 Eh
   gradient norm :     0.0079387 Eh/α   predicted    -0.8549044E-04 (  62.85%)
   displ. norm   :     0.0574516 α      lambda       -0.8895655E-04
   maximum displ.:     0.0292014 α      in ANC's #7, #4, #6, ...

........................................................................
.............................. CYCLE   16 ..............................
........................................................................

 iter      E             dE          RMSdq      gap      omega  full diag
   1    -33.0359977 -0.330360E+02  0.363E-02    2.24       0.0  T
   2    -33.0359998 -0.210945E-05  0.211E-02    2.24       1.0  T
   3    -33.0359996  0.191638E-06  0.647E-03    2.24       3.2  T
   4    -33.0359997 -0.120960E-06  0.321E-03    2.24       6.5  T
   5    -33.0359999 -0.204269E-06  0.705E-04    2.24      29.6  T
   6    -33.0359999 -0.127901E-08  0.346E-04    2.24      60.2  T
     SCC iter.                  ...        0 min,  0.005 sec
     gradient                   ...        0 min,  0.001 sec
 * total energy  :   -32.6427566 Eh     change       -0.3132153E-04 Eh
   gradient norm :     0.0035735 Eh/α   predicted    -0.4462914E-04 (  42.49%)
   displ. norm   :     0.0658922 α      lambda       -0.5409763E-04
   maximum displ.:     0.0478135 α      in ANC's #7, #1, #4, ...

........................................................................
.............................. CYCLE   17 ..............................
........................................................................

 iter      E             dE          RMSdq      gap      omega  full diag
   1    -33.0358170 -0.330358E+02  0.223E-02    2.25       0.0  T
   2    -33.0358183 -0.131572E-05  0.127E-02    2.24       1.6  T
   3    -33.0358183  0.590855E-07  0.496E-03    2.24       4.2  T
   4    -33.0358183 -0.369667E-07  0.247E-03    2.24       8.4  T
   5    -33.0358184 -0.110980E-06  0.535E-04    2.24      39.0  T
   6    -33.0358184 -0.107666E-08  0.266E-04    2.24      78.3  T
     SCC iter.                  ...        0 min,  0.006 sec
     gradient                   ...        0 min,  0.002 sec
 * total energy  :   -32.6427788 Eh     change       -0.2211968E-04 Eh
   gradient norm :     0.0034792 Eh/α   predicted    -0.2716823E-04 (  22.82%)
   displ. norm   :     0.0400869 α      lambda       -0.2248843E-04
   maximum displ.:     0.0244186 α      in ANC's #4, #2, #7, ...

........................................................................
.............................. CYCLE   18 ..............................
........................................................................

 iter      E             dE          RMSdq      gap      omega  full diag
   1    -33.0358686 -0.330359E+02  0.196E-02    2.23       0.0  T
   2    -33.0358690 -0.400727E-06  0.116E-02    2.24       1.8  T
   3    -33.0358690  0.135057E-07  0.245E-03    2.24       8.5  T
   4    -33.0358690 -0.382800E-07  0.572E-04    2.24      36.4  T
   5    -33.0358690 -0.333782E-08  0.353E-04    2.24      59.1  T
     SCC iter.                  ...        0 min,  0.005 sec
     gradient                   ...        0 min,  0.001 sec
 * total energy  :   -32.6427920 Eh     change       -0.1324541E-04 Eh
   gradient norm :     0.0018500 Eh/α   predicted    -0.1126518E-04 ( -14.95%)
   displ. norm   :     0.0874374 α      lambda       -0.1941876E-04
   maximum displ.:     0.0516952 α      in ANC's #4, #2, #7, ...

........................................................................
.............................. CYCLE   19 ..............................
........................................................................

 iter      E             dE          RMSdq      gap      omega  full diag
   1    -33.0353552 -0.330354E+02  0.406E-02    2.23       0.0  T
   2    -33.0353554 -0.212114E-06  0.239E-02    2.23       1.0  T
   3    -33.0353554  0.468824E-07  0.243E-03    2.23       8.6  T
   4    -33.0353555 -0.991119E-07  0.854E-04    2.23      24.4  T
   5    -33.0353555 -0.427937E-08  0.594E-04    2.23      35.1  T
     SCC iter.                  ...        0 min,  0.005 sec
     gradient                   ...        0 min,  0.001 sec
 * total energy  :   -32.6428041 Eh     change       -0.1209480E-04 Eh
   gradient norm :     0.0025994 Eh/α   predicted    -0.9745228E-05 ( -19.43%)
   displ. norm   :     0.0336505 α      lambda       -0.1209239E-04
   maximum displ.:     0.0287372 α      in ANC's #4, #1, #9, ...

........................................................................
.............................. CYCLE   20 ..............................
........................................................................

 iter      E             dE          RMSdq      gap      omega  full diag
   1    -33.0359184 -0.330359E+02  0.150E-02    2.23       0.0  T
   2    -33.0359185 -0.732729E-07  0.880E-03    2.23       2.4  T
   3    -33.0359184  0.584545E-07  0.196E-03    2.23      10.6  T
   4    -33.0359185 -0.603426E-07  0.679E-04    2.23      30.7  T
   5    -33.0359185 -0.938278E-08  0.157E-04    2.23     132.7  T
     SCC iter.                  ...        0 min,  0.003 sec
     gradient                   ...        0 min,  0.002 sec
 * total energy  :   -32.6428129 Eh     change       -0.8856557E-05 Eh
   gradient norm :     0.0016892 Eh/α   predicted    -0.6058119E-05 ( -31.60%)
   displ. norm   :     0.0807917 α      lambda       -0.1292508E-04
   maximum displ.:     0.0673238 α      in ANC's #4, #1, #8, ...
 * RMSD in coord.:     0.7508247 α      energy gain  -0.2390477E-01 Eh

generating ANC from exact Hessian ...
Using Lindh-Hessian (1995)
 Shifting diagonal of input Hessian by   9.104813508074476E-003
 Lowest  eigenvalues of input Hessian
    0.000000    0.000000    0.000000    0.000000    0.000000    0.000000
    0.010000    0.010573    0.010901    0.013813    0.014969    0.017925
    0.019073    0.019239    0.022211    0.022968    0.030102    0.032180
 Highest eigenvalues
    1.450807    1.490876    1.504879    1.756212    2.029369    2.394879
 

........................................................................
.............................. CYCLE   21 ..............................
........................................................................

 iter      E             dE          RMSdq      gap      omega  full diag
   1    -33.0361628 -0.330362E+02  0.275E-02    2.23       0.0  T
   2    -33.0361633 -0.460728E-06  0.161E-02    2.23       1.3  T
   3    -33.0361632  0.815294E-08  0.219E-03    2.23       9.5  T
   4    -33.0361633 -0.176566E-07  0.113E-03    2.23      18.5  T
   5    -33.0361633 -0.233616E-07  0.366E-04    2.23      57.0  T
   6    -33.0361633 -0.623999E-09  0.153E-04    2.23     136.6  T
     SCC iter.                  ...        0 min,  0.007 sec
     gradient                   ...        0 min,  0.001 sec
 * total energy  :   -32.6428202 Eh     change       -0.7203797E-05 Eh
   gradient norm :     0.0021097 Eh/α   predicted     0.0000000E+00 (-100.00%)
   displ. norm   :     0.0161872 α      lambda       -0.8908211E-05
   maximum displ.:     0.0103122 α      in ANC's #1, #11, #6, ...

........................................................................
.............................. CYCLE   22 ..............................
........................................................................

 iter      E             dE          RMSdq      gap      omega  full diag
   1    -33.0358411 -0.330358E+02  0.909E-03    2.23       0.0  T
   2    -33.0358412 -0.857342E-07  0.537E-03    2.23       3.9  T
   3    -33.0358412  0.292754E-08  0.110E-03    2.23      18.9  T
   4    -33.0358412 -0.249198E-08  0.538E-04    2.23      38.7  T
   5    -33.0358412 -0.553543E-08  0.164E-04    2.23     127.1  T
     SCC iter.                  ...        0 min,  0.008 sec
     gradient                   ...        0 min,  0.001 sec
 * total energy  :   -32.6428272 Eh     change       -0.7020955E-05 Eh
   gradient norm :     0.0006793 Eh/α   predicted    -0.5157305E-05 ( -26.54%)
   displ. norm   :     0.0394356 α      lambda       -0.6517005E-05
   maximum displ.:     0.0239662 α      in ANC's #1, #4, #6, ...

........................................................................
.............................. CYCLE   23 ..............................
........................................................................

 iter      E             dE          RMSdq      gap      omega  full diag
   1    -33.0354768 -0.330355E+02  0.153E-02    2.24       0.0  T
   2    -33.0354770 -0.164707E-06  0.896E-03    2.24       2.3  T
   3    -33.0354770 -0.317667E-08  0.141E-03    2.24      14.8  T
   4    -33.0354770 -0.231968E-08  0.706E-04    2.24      29.5  T
   5    -33.0354770 -0.774302E-08  0.272E-04    2.24      76.5  T
     SCC iter.                  ...        0 min,  0.026 sec
     gradient                   ...        0 min,  0.002 sec
 * total energy  :   -32.6428313 Eh     change       -0.4135695E-05 Eh
   gradient norm :     0.0013404 Eh/α   predicted    -0.3271525E-05 ( -20.90%)
   displ. norm   :     0.0291664 α      lambda       -0.4214131E-05
   maximum displ.:     0.0181802 α      in ANC's #1, #4, #2, ...

........................................................................
.............................. CYCLE   24 ..............................
........................................................................

 iter      E             dE          RMSdq      gap      omega  full diag
   1    -33.0355531 -0.330356E+02  0.104E-02    2.24       0.0  T
   2    -33.0355531 -0.229919E-07  0.613E-03    2.24       3.4  T
   3    -33.0355531  0.693227E-09  0.781E-04    2.24      26.7  T
   4    -33.0355531 -0.774896E-08  0.274E-04    2.24      76.1  T
     SCC iter.                  ...        0 min,  0.004 sec
     gradient                   ...        0 min,  0.001 sec
 * total energy  :   -32.6428350 Eh     change       -0.3673663E-05 Eh
   gradient norm :     0.0010360 Eh/α   predicted    -0.2108076E-05 ( -42.62%)
   displ. norm   :     0.0402528 α      lambda       -0.4815946E-05
   maximum displ.:     0.0257378 α      in ANC's #1, #4, #2, ...

........................................................................
.............................. CYCLE   25 ..............................
........................................................................

 iter      E             dE          RMSdq      gap      omega  full diag
   1    -33.0358049 -0.330358E+02  0.128E-02    2.24       0.0  T
   2    -33.0358049 -0.402757E-07  0.750E-03    2.24       2.8  T
   3    -33.0358049  0.593900E-09  0.931E-04    2.24      22.4  T
   4    -33.0358049 -0.102138E-07  0.379E-04    2.24      55.0  T
     SCC iter.                  ...        0 min,  0.004 sec
     gradient                   ...        0 min,  0.001 sec
 * total energy  :   -32.6428399 Eh     change       -0.4901313E-05 Eh
   gradient norm :     0.0005322 Eh/α   predicted    -0.2411654E-05 ( -50.80%)
   displ. norm   :     0.0606778 α      lambda       -0.4258013E-05
   maximum displ.:     0.0371034 α      in ANC's #1, #4, #2, ...

   *** GEOMETRY OPTIMIZATION CONVERGED AFTER 25 ITERATIONS ***

------------------------------------------------------------------------
 total energy gain   :        -0.0239317 Eh      -15.0174 kcal/mol
 total RMSD          :         0.7434116 a0        0.3934 Å
 total power (kW/mol):        -2.5133069 (step) -172.3705 (real)
------------------------------------------------------------------------

 ANCopt (total)                0 d,  0 h,  0 min,  0.365 sec
 optimizer setup                ...        0 min,  0.000 sec (  0.032%)
 model hessian                  ...        0 min,  0.019 sec (  5.083%)
 ANC generation                 ...        0 min,  0.006 sec (  1.596%)
 coordinate transformation      ...        0 min,  0.000 sec (  0.059%)
 single point calculation       ...        0 min,  0.310 sec ( 85.136%)
 optimization log               ...        0 min,  0.010 sec (  2.743%)
 hessian update                 ...        0 min,  0.009 sec (  2.542%)
 rational function              ...        0 min,  0.004 sec (  1.140%)

================
 final structure:
================
23
 xtb: 6.7.1 (edcfbbe)
C           -2.86962001357281       -0.62907638282344        0.18509137642094
N           -2.16520282735996        0.63075188062777        0.05638784067713
C           -2.99528252483577        1.62305122205624       -0.59595940505839
C           -0.89336565430626        0.47916891809871       -0.62550656323700
C            0.11900558774801       -0.26982553606016        0.23719456319916
O            1.42421217054776        0.04404403949340       -0.24247445262413
C            2.43515863707352       -0.67367709359647        0.26626824650355
O            2.29012197523705       -1.55064247769200        1.08123389529953
C            3.72724848082275       -0.24216016243917       -0.31042649470222
C            4.86636635202255       -0.80625469967969        0.06225740215067
H           -3.10081906660650       -1.08478615003574       -0.79075553294101
H           -3.80368522834652       -0.45717315666924        0.71703868691439
H           -2.26897989588632       -1.32618410746246        0.76421529459412
H           -2.46923979717009        2.57613476239574       -0.61440475196726
H           -3.26045597942764        1.34622556729144       -1.62850908128898
H           -3.91298226763911        1.74659367678890       -0.02329136954566
H           -0.99960039629653       -0.02915963109973       -1.60044076981635
H           -0.48518349761758        1.47615632525040       -0.80846774020637
H           -0.01589791527791       -1.35559880244312        0.20047207758740
H            0.02878893417864        0.05561749451531        1.27943999392095
H            3.66904609558246        0.55189912091147       -1.03904335143311
H            4.86179176462531       -1.59663736707673        0.79523302284432
H            5.81857606650551       -0.50846844035190       -0.34162788729102
 
 Bond Distances (Angstroems)
 ---------------------------
C1-N2=1.4491         C1-H11=1.1015        C1-H12=1.0886        C1-H13=1.0872        N2-C1=1.4491         N2-C3=1.4489         
N2-C4=1.4510         C3-N2=1.4489         C3-H14=1.0888        C3-H15=1.1014        C3-H16=1.0888        C4-N2=1.4510         
C4-C5=1.5265         C4-H17=1.1046        C4-H18=1.0927        C5-C4=1.5265         C5-O6=1.4255         C5-H19=1.0947        
C5-H20=1.0956        O6-C5=1.4255         O6-C7=1.3401         C7-O6=1.3401         C7-O8=1.2059         C7-C9=1.4793         
O8-C7=1.2059         C9-C7=1.4793         C9-C10=1.3246        C9-H21=1.0793        C10-C9=1.3246        C10-H22=1.0780       
C10-H23=1.0763       H11-C1=1.1015        H12-C1=1.0886        H13-C1=1.0872        H14-C3=1.0888        H15-C3=1.1014        
H16-C3=1.0888        H17-C4=1.1046        H18-C4=1.0927        H19-C5=1.0947        H20-C5=1.0956        H21-C9=1.0793        
H22-C10=1.0780       H23-C10=1.0763       
 C  H  Rav=1.0906 sigma=0.0087  Rmin=1.0763  Rmax=1.1046    13
 C  C  Rav=1.4435 sigma=0.0862  Rmin=1.3246  Rmax=1.5265     3
 N  C  Rav=1.4497 sigma=0.0010  Rmin=1.4489  Rmax=1.4510     3
 O  C  Rav=1.3239 sigma=0.0904  Rmin=1.2059  Rmax=1.4255     3
 
 selected bond angles (degree)
 --------------------
H11-C1-N2=112.52               H12-C1-N2=108.86               H12-C1-H11=108.55              H13-C1-N2=109.64               
H13-C1-H11=108.82              H13-C1-H12=108.36              C3-N2-C1=110.91                C4-N2-C1=112.15                
C4-N2-C3=111.23                H14-C3-N2=109.29               H15-C3-N2=112.82               H15-C3-H14=108.69              
H16-C3-N2=108.89               H16-C3-H14=108.47              H16-C3-H15=108.58              C5-C4-N2=111.53                
H17-C4-N2=112.24               H17-C4-C5=109.68               H18-C4-N2=108.11               H18-C4-C5=107.13               
H18-C4-H17=107.94              O6-C5-C4=108.00                H19-C5-C4=112.70               H19-C5-O6=108.66               
H20-C5-C4=109.71               H20-C5-O6=109.27               H20-C5-H19=108.44              C7-O6-C5=116.43                
O8-C7-O6=123.73                C9-C7-O6=110.77                C9-C7-O8=125.50                C10-C9-C7=121.15               
H21-C9-C7=115.51               H21-C9-C10=123.34              H22-C10-C9=119.99              H23-C10-C9=122.51              
H23-C10-H22=117.50             
 
 selected dihedral angles (degree)
 ---------------------------------
C3-N2-C1-H11= 64.43           C3-N2-C1-H12=304.06           C3-N2-C1-H13=185.68           C4-N2-C1-H11=299.40           
C4-N2-C1-H12=179.03           C4-N2-C1-H13= 60.65           H14-C3-N2-C1=175.95           H14-C3-N2-C4=301.49           
H15-C3-N2-C1=296.99           H15-C3-N2-C4= 62.53           H16-C3-N2-C1= 57.62           H16-C3-N2-C4=183.16           
C5-C4-N2-C1=289.86            C5-C4-N2-C3=165.01            H17-C4-N2-C1= 53.40           H17-C4-N2-C3=288.54           
H18-C4-N2-C1=172.34           H18-C4-N2-C3= 47.48           O6-C5-C4-N2=201.31            O6-C5-C4-H17= 76.33           
O6-C5-C4-H18=319.42           H19-C5-C4-N2= 81.27           H19-C5-C4-H17=316.29          H19-C5-C4-H18=199.38          
H20-C5-C4-N2=320.32           H20-C5-C4-H17=195.35          H20-C5-C4-H18= 78.44          C7-O6-C5-C4=189.46            
C7-O6-C5-H19=312.01           C7-O6-C5-H20= 70.16           O8-C7-O6-C5=  0.41            C9-C7-O6-C5=180.27            
C10-C9-C7-O6=179.18           C10-C9-C7-O8=359.04           H21-C9-C7-O6=359.37           H21-C9-C7-O8=179.22           
H22-C10-C9-C7=  0.22          H22-C10-C9-H21=180.02         H23-C10-C9-C7=180.10          H23-C10-C9-H21=359.91         
           -------------------------------------------------
          |                Final Singlepoint                |
           -------------------------------------------------

          ...................................................
          :                      SETUP                      :
          :.................................................:
          :  # basis functions                  53          :
          :  # atomic orbitals                  53          :
          :  # shells                           33          :
          :  # electrons                        58          :
          :  max. iterations                   250          :
          :  Hamiltonian                  GFN2-xTB          :
          :  restarted?                      false          :
          :  GBSA solvation                  false          :
          :  PC potential                    false          :
          :  electronic temp.          300.0000000     K    :
          :  accuracy                    1.0000000          :
          :  -> integral cutoff          0.2500000E+02      :
          :  -> integral neglect         0.1000000E-07      :
          :  -> SCF convergence          0.1000000E-05 Eh   :
          :  -> wf. convergence          0.1000000E-03 e    :
          :  Broyden damping             0.4000000          :
          :  net charge                          0          :
          :  unpaired electrons                  0          :
          ...................................................

 iter      E             dE          RMSdq      gap      omega  full diag
   1    -33.0358049 -0.330358E+02  0.228E-04    2.24       0.0  T
   2    -33.0358049 -0.409486E-10  0.183E-04    2.24     114.2  T
   3    -33.0358049 -0.382158E-09  0.941E-05    2.24     221.7  T

   *** convergence criteria satisfied after 3 iterations ***

         #    Occupation            Energy/Eh            Energy/eV
      -------------------------------------------------------------
         1        2.0000           -0.7413777             -20.1739
       ...           ...                  ...                  ...
        23        2.0000           -0.4614309             -12.5562
        24        2.0000           -0.4589584             -12.4889
        25        2.0000           -0.4527502             -12.3200
        26        2.0000           -0.4402532             -11.9799
        27        2.0000           -0.4357740             -11.8580
        28        2.0000           -0.4142428             -11.2721
        29        2.0000           -0.3577645              -9.7353 (HOMO)
        30                         -0.2753940              -7.4939 (LUMO)
        31                         -0.1652734              -4.4973
        32                         -0.0133995              -0.3646
        33                          0.0560913               1.5263
        34                          0.0790410               2.1508
       ...                                ...                  ...
        53                          0.7074984              19.2520
      -------------------------------------------------------------
                  HL-Gap            0.0823705 Eh            2.2414 eV
             Fermi-level           -0.3165792 Eh           -8.6146 eV

 SCC (total)                   0 d,  0 h,  0 min,  0.006 sec
 SCC setup                      ...        0 min,  0.000 sec (  1.458%)
 Dispersion                     ...        0 min,  0.000 sec (  2.087%)
 classical contributions        ...        0 min,  0.000 sec (  6.039%)
 integral evaluation            ...        0 min,  0.001 sec ( 10.463%)
 iterations                     ...        0 min,  0.003 sec ( 49.639%)
 molecular gradient             ...        0 min,  0.002 sec ( 25.674%)
 printout                       ...        0 min,  0.000 sec (  4.252%)

         :::::::::::::::::::::::::::::::::::::::::::::::::::::
         ::                     SUMMARY                     ::
         :::::::::::::::::::::::::::::::::::::::::::::::::::::
         :: total energy             -32.642839884238 Eh    ::
         :: gradient norm              0.000532412210 Eh/a0 ::
         :: HOMO-LUMO gap              2.241415772981 eV    ::
         ::.................................................::
         :: SCC energy               -33.035897290706 Eh    ::
         :: -> isotropic ES            0.049903542834 Eh    ::
         :: -> anisotropic ES          0.003402262866 Eh    ::
         :: -> anisotropic XC          0.015821534696 Eh    ::
         :: -> dispersion             -0.014914527389 Eh    ::
         :: repulsion energy           0.393057406468 Eh    ::
         :: add. restraining           0.000000000000 Eh    ::
         :: total charge              -0.000000000000 e     ::
         :::::::::::::::::::::::::::::::::::::::::::::::::::::

           -------------------------------------------------
          |                Property Printout                |
           -------------------------------------------------

    * Orbital Energies and Occupations

         #    Occupation            Energy/Eh            Energy/eV
      -------------------------------------------------------------
         1        2.0000           -0.7413777             -20.1739
       ...           ...                  ...                  ...
        17        2.0000           -0.5099941             -13.8776
        18        2.0000           -0.5031910             -13.6925
        19        2.0000           -0.4887059             -13.2984
        20        2.0000           -0.4797968             -13.0559
        21        2.0000           -0.4773044             -12.9881
        22        2.0000           -0.4624153             -12.5830
        23        2.0000           -0.4614309             -12.5562
        24        2.0000           -0.4589584             -12.4889
        25        2.0000           -0.4527502             -12.3200
        26        2.0000           -0.4402532             -11.9799
        27        2.0000           -0.4357740             -11.8580
        28        2.0000           -0.4142428             -11.2721
        29        2.0000           -0.3577645              -9.7353 (HOMO)
        30                         -0.2753940              -7.4939 (LUMO)
        31                         -0.1652734              -4.4973
        32                         -0.0133995              -0.3646
        33                          0.0560913               1.5263
        34                          0.0790410               2.1508
        35                          0.1039097               2.8275
        36                          0.1055443               2.8720
        37                          0.1225037               3.3335
        38                          0.1309087               3.5622
        39                          0.1401946               3.8149
        40                          0.1494112               4.0657
       ...                                ...                  ...
        53                          0.7074984              19.2520
      -------------------------------------------------------------
                  HL-Gap            0.0823705 Eh            2.2414 eV
             Fermi-level           -0.3165792 Eh           -8.6146 eV

     #   Z          covCN         q      C6AA      α(0)
     1   6 C        3.715    -0.038    21.373     6.605
     2   7 N        2.725    -0.174    24.757     7.390
     3   6 C        3.718    -0.035    21.318     6.596
     4   6 C        3.763     0.004    20.557     6.463
     5   6 C        3.704     0.077    19.445     6.304
     6   8 O        1.706    -0.268    18.441     5.798
     7   6 C        2.727     0.356    20.964     7.496
     8   8 O        0.856    -0.412    21.927     6.278
     9   6 C        2.887    -0.058    29.447     8.897
    10   6 C        2.842    -0.060    29.471     8.897
    11   1 H        0.923     0.016     2.790     2.612
    12   1 H        0.925     0.046     2.375     2.410
    13   1 H        0.925     0.041     2.434     2.440
    14   1 H        0.925     0.041     2.429     2.437
    15   1 H        0.923     0.016     2.799     2.616
    16   1 H        0.925     0.046     2.376     2.411
    17   1 H        0.923     0.022     2.706     2.572
    18   1 H        0.924     0.057     2.235     2.338
    19   1 H        0.924     0.055     2.264     2.353
    20   1 H        0.924     0.062     2.180     2.309
    21   1 H        0.926     0.064     2.149     2.292
    22   1 H        0.926     0.079     1.986     2.204
    23   1 H        0.926     0.064     2.158     2.297

 Mol. C6AA /au·bohr⁶  :       4544.713981
 Mol. C8AA /au·bohr⁸  :      98175.802361
 Mol. α(0) /au        :        102.015314


Wiberg/Mayer (AO) data.
largest (>0.10) Wiberg bond orders for each atom

 ---------------------------------------------------------------------------
     #   Z sym  total        # sym  WBO       # sym  WBO       # sym  WBO
 ---------------------------------------------------------------------------
     1   6 C    3.986 --     2 N    1.015    12 H    0.982    13 H    0.982
                            11 H    0.973
     2   7 N    3.119 --     1 C    1.015     3 C    1.014     4 C    1.009
     3   6 C    3.985 --     2 N    1.014    14 H    0.982    16 H    0.982
                            15 H    0.974
     4   6 C    3.986 --     2 N    1.009     5 C    0.998    18 H    0.969
                            17 H    0.963
     5   6 C    3.927 --     4 C    0.998    19 H    0.967    20 H    0.965
                             6 O    0.943
     6   8 O    2.304 --     7 C    1.120     5 C    0.943     8 O    0.174
     7   6 C    3.919 --     8 O    1.726     6 O    1.120     9 C    1.010
     8   8 O    2.034 --     7 C    1.726     6 O    0.174
     9   6 C    3.988 --    10 C    1.932     7 C    1.010    21 H    0.965
    10   6 C    3.981 --     9 C    1.932    23 H    0.975    22 H    0.970
    11   1 H    1.000 --     1 C    0.973
    12   1 H    0.998 --     1 C    0.982
    13   1 H    0.998 --     1 C    0.982
    14   1 H    0.998 --     3 C    0.982
    15   1 H    1.000 --     3 C    0.974
    16   1 H    0.998 --     3 C    0.982
    17   1 H    0.999 --     4 C    0.963
    18   1 H    0.997 --     4 C    0.969
    19   1 H    0.997 --     5 C    0.967
    20   1 H    0.996 --     5 C    0.965
    21   1 H    0.996 --     9 C    0.965
    22   1 H    0.994 --    10 C    0.970
    23   1 H    0.995 --    10 C    0.975
 ---------------------------------------------------------------------------

Topologies differ in total number of bonds
Writing topology from bond orders to xtbtopo.mol

molecular dipole:
                 x           y           z       tot (Debye)
 q only:       -0.150       0.553      -0.509
   full:       -0.197       0.504      -0.854       2.568
molecular quadrupole (traceless):
                xx          xy          yy          xz          yz          zz
 q only:       10.234       2.068      -5.083      -3.616       1.640      -5.152
  q+dip:        9.856       3.703      -5.523      -2.465       2.027      -4.333
   full:        9.956       3.786      -5.371      -2.487       2.742      -4.585

           -------------------------------------------------
          |                Geometry Summary                 |
           -------------------------------------------------

      molecular mass/u    :      143.1838941
   center of mass at/Å    :        0.5296353      -0.1403446       0.0119666
  moments of inertia/u·Å² :        0.1124232E+03   0.1076343E+04   0.1162936E+04
rotational constants/cm⁻¹ :        0.1499480E+00   0.1566196E-01   0.1449575E-01

 * 21 selected distances

     #   Z          #   Z                                           value/Å
     1   6 C        2   7 N                                       1.4491155
     2   7 N        3   6 C                                       1.4488781
     2   7 N        4   6 C                                       1.4510436
     4   6 C        5   6 C                                       1.5264802 (max)
     5   6 C        6   8 O                                       1.4255389
     6   8 O        7   6 C                                       1.3401328
     7   6 C        8   8 O                                       1.2059325
     9   6 C       10   6 C                                       1.3246455
     1   6 C       11   1 H                                       1.1015452
     1   6 C       12   1 H                                       1.0885755
     1   6 C       13   1 H                                       1.0872500
     3   6 C       14   1 H                                       1.0887744
     3   6 C       15   1 H                                       1.1014120
     3   6 C       16   1 H                                       1.0887536
     4   6 C       17   1 H                                       1.1046179
     4   6 C       18   1 H                                       1.0927358
     5   6 C       19   1 H                                       1.0947380
     5   6 C       20   1 H                                       1.0955948
     9   6 C       21   1 H                                       1.0792592
    10   6 C       22   1 H                                       1.0779514
    10   6 C       23   1 H                                       1.0763380 (min)

 * 4 distinct bonds (by element types)

   Z      Z             #   av. dist./Å        max./Å        min./Å
   1 H    6 C          13     1.0905804     1.1046179     1.0763380
   6 C    6 C           2     1.4255629     1.5264802     1.3246455
   6 C    7 N           3     1.4496791     1.4510436     1.4488781
   6 C    8 O           3     1.3238680     1.4255389     1.2059325


optimized geometry written to: xtbopt.xyz


           -------------------------------------------------
          | TOTAL ENERGY              -32.642839884238 Eh   |
          | GRADIENT NORM               0.000532412210 Eh/α |
          | HOMO-LUMO GAP               2.241415772981 eV   |
           -------------------------------------------------

------------------------------------------------------------------------
 * finished run on 2025/12/01 at 14:17:36.058     
------------------------------------------------------------------------
 total:
 * wall-time:     0 d,  0 h,  0 min,  0.403 sec
 *  cpu-time:     0 d,  0 h,  0 min,  9.223 sec
 * ratio c/w:    22.868 speedup
 SCF:
 * wall-time:     0 d,  0 h,  0 min,  0.021 sec
 *  cpu-time:     0 d,  0 h,  0 min,  0.467 sec
 * ratio c/w:    21.889 speedup
 ANC optimizer:
 * wall-time:     0 d,  0 h,  0 min,  0.372 sec
 *  cpu-time:     0 d,  0 h,  0 min,  8.618 sec
 * ratio c/w:    23.169 speedup

normal termination of xtb
