      -----------------------------------------------------------      
     |                   =====================                   |     
     |                           x T B                           |     
     |                   =====================                   |     
     |                         S. Grimme                         |     
     |          Mulliken Center for Theoretical Chemistry        |     
     |                    University of Bonn                     |     
      -----------------------------------------------------------      

   * xtb version 6.7.1 (edcfbbe) compiled by 'albert@albert-system' on 2024-07-22

   xtb is free software: you can redistribute it and/or modify it under
   the terms of the GNU Lesser General Public License as published by
   the Free Software Foundation, either version 3 of the License, or
   (at your option) any later version.
   
   xtb is distributed in the hope that it will be useful,
   but WITHOUT ANY WARRANTY; without even the implied warranty of
   MERCHANTABILITY or FITNESS FOR A PARTICULAR PURPOSE.  See the
   GNU Lesser General Public License for more details.
   
   Cite this work as:
   * C. Bannwarth, E. Caldeweyher, S. Ehlert, A. Hansen, P. Pracht,
     J. Seibert, S. Spicher, S. Grimme, WIREs Comput. Mol. Sci., 2020, 11,
     e01493. DOI: 10.1002/wcms.1493
   
   for GFN2-xTB:
   * C. Bannwarth, S. Ehlert and S. Grimme., J. Chem. Theory Comput., 2019,
     15, 1652-1671. DOI: 10.1021/acs.jctc.8b01176
   for GFN1-xTB:
   * S. Grimme, C. Bannwarth, P. Shushkov, J. Chem. Theory Comput., 2017,
     13, 1989-2009. DOI: 10.1021/acs.jctc.7b00118
   for GFN0-xTB:
   * P. Pracht, E. Caldeweyher, S. Ehlert, S. Grimme, ChemRxiv, 2019, preprint.
     DOI: 10.26434/chemrxiv.8326202.v1
   for GFN-FF:
   * S. Spicher and S. Grimme, Angew. Chem. Int. Ed., 2020, 59, 15665-15673.
     DOI: 10.1002/anie.202004239
   
   for ALPB and GBSA implicit solvation:
   * S. Ehlert, M. Stahn, S. Spicher, S. Grimme, J. Chem. Theory Comput.,
     2021, 17, 4250-4261. DOI: 10.1021/acs.jctc.1c00471
   
   for ddCOSMO and CPCM-X implicit solvation:
   * M. Stahn, S. Ehlert, S. Grimme, J. Phys. Chem. A,
     2023, XX, XXXX-XXXX. DOI: 10.1021/acs.jpca.3c04382
   
   for DFT-D4:
   * E. Caldeweyher, C. Bannwarth and S. Grimme, J. Chem. Phys., 2017,
     147, 034112. DOI: 10.1063/1.4993215
   * E. Caldeweyher, S. Ehlert, A. Hansen, H. Neugebauer, S. Spicher,
     C. Bannwarth and S. Grimme, J. Chem. Phys., 2019, 150, 154122.
     DOI: 10.1063/1.5090222
   * E. Caldeweyher, J.-M. Mewes, S. Ehlert and S. Grimme, Phys. Chem. Chem. Phys.
     2020, 22, 8499-8512. DOI: 10.1039/D0CP00502A
   
   for sTDA-xTB:
   * S. Grimme and C. Bannwarth, J. Chem. Phys., 2016, 145, 054103.
     DOI: 10.1063/1.4959605
   
   in the mass-spec context:
   * V. Asgeirsson, C. Bauer and S. Grimme, Chem. Sci., 2017, 8, 4879.
     DOI: 10.1039/c7sc00601b
   * J. Koopman and S. Grimme, ACS Omega 2019, 4, 12, 15120-15133.
     DOI: 10.1021/acsomega.9b02011
   
   for metadynamics refer to:
   * S. Grimme, J. Chem. Theory Comput., 2019, 155, 2847-2862
     DOI: 10.1021/acs.jctc.9b00143
   
   for SPH calculations refer to:
   * S. Spicher and S. Grimme, J. Chem. Theory Comput., 2021, 17, 1701-1714
     DOI: 10.1021/acs.jctc.0c01306
   
   for ONIOM refer to:
   * C. Plett, A. Katbashev, S. Ehlert, S. Grimme, M. Bursch,
     Phys. Chem. Chem. Phys., 2023, 25, 17860-17868. DOI: 10.1039/D3CP02178E
   
   for DIPRO refer to:
   * J. Kohn, N. Gildemeister, S. Grimme, D. Fazzi, A. Hansen,
     J. Chem. Phys., 2023, just accepted.
   
   for PTB refer to:
   * S. Grimme, M. Mueller, A. Hansen, J. Chem. Phys., 2023, 158, 124111.
     DOI: 10.1063/5.0137838
   
   with help from (in alphabetical order)
   P. Atkinson, C. Bannwarth, F. Bohle, G. Brandenburg, E. Caldeweyher
   M. Checinski, S. Dohm, S. Ehlert, S. Ehrlich, I. Gerasimov, C. Hölzer
   A. Katbashev, J. Kohn, J. Koopman, C. Lavigne, S. Lehtola, F. März, M. Müller,
   F. Musil, H. Neugebauer, J. Pisarek, C. Plett, P. Pracht, F. Pultar,
   J. Seibert, P. Shushkov, S. Spicher, M. Stahn, M. Steiner, T. Strunk,
   J. Stückrath, T. Rose, and J. Unsleber
   
 * started run on 2025/12/01 at 14:17:39.798     
   ID    Z sym.   atoms
    1   35 Br     1, 4, 6, 15, 17
    2    6 C      2, 3, 5, 7, 8, 10, 12-14, 16
    3    8 O      9, 11
    4    1 H      18-22

           -------------------------------------------------
          |                Calculation Setup                |
           -------------------------------------------------

          program call               : xtb pipeline_data/3_conformer_xyz/acrylates/rdkit/GRKDVZMVHOLESV-UHFFFAOYSA-N_conf75.xyz --opt --gfn 2-xTB --iterations 250
          coordinate file            : pipeline_data/3_conformer_xyz/acrylates/rdkit/GRKDVZMVHOLESV-UHFFFAOYSA-N_conf75.xyz
          omp threads                :                    24

########################################################################
[WARNING] Please study the warnings concerning your input carefully
-1- readin_getIntValue: could not parse '2-xTB'
########################################################################

           -------------------------------------------------
          |                 G F N 2 - x T B                 |
           -------------------------------------------------

        Reference                      10.1021/acs.jctc.8b01176
      * Hamiltonian:
        H0-scaling (s, p, d)           1.850000    2.230000    2.230000
        zeta-weighting                 0.500000
      * Dispersion:
        s8                             2.700000
        a1                             0.520000
        a2                             5.000000
        s9                             5.000000
      * Repulsion:
        kExp                           1.500000    1.000000
        rExp                           1.000000
      * Coulomb:
        alpha                          2.000000
        third order                    shell-resolved
        anisotropic                    true
        a3                             3.000000
        a5                             4.000000
        cn-shift                       1.200000
        cn-exp                         4.000000
        max-rad                        5.000000

q/qsh data taken from xtbrestart
CAMM data taken from xtbrestart

          ...................................................
          :                      SETUP                      :
          :.................................................:
          :  # basis functions                 103          :
          :  # atomic orbitals                  98          :
          :  # shells                           44          :
          :  # electrons                        92          :
          :  max. iterations                   250          :
          :  Hamiltonian                  GFN2-xTB          :
          :  restarted?                       true          :
          :  GBSA solvation                  false          :
          :  PC potential                    false          :
          :  electronic temp.          300.0000000     K    :
          :  accuracy                    1.0000000          :
          :  -> integral cutoff          0.2500000E+02      :
          :  -> integral neglect         0.1000000E-07      :
          :  -> SCF convergence          0.1000000E-05 Eh   :
          :  -> wf. convergence          0.1000000E-03 e    :
          :  Broyden damping             0.4000000          :
          :  net charge                          0          :
          :  unpaired electrons                  0          :
          ...................................................

 iter      E             dE          RMSdq      gap      omega  full diag
   1    -52.8892652 -0.528893E+02  0.891E+00    3.60       0.0  T
   2    -52.9052510 -0.159859E-01  0.481E+00    3.15       1.0  T
   3    -52.8973058  0.794530E-02  0.142E+00    3.35       1.0  T
   4    -52.9129841 -0.156784E-01  0.787E-01    3.13       1.0  T
   5    -52.9126990  0.285109E-03  0.406E-01    3.12       1.0  T
   6    -52.9139964 -0.129739E-02  0.259E-01    3.15       1.0  T
   7    -52.9141424 -0.145953E-03  0.151E-01    3.13       1.0  T
   8    -52.9142502 -0.107850E-03  0.648E-02    3.15       1.0  T
   9    -52.9142712 -0.209319E-04  0.451E-02    3.15       1.0  T
  10    -52.9142763 -0.511322E-05  0.302E-02    3.15       1.0  T
  11    -52.9142798 -0.358388E-05  0.186E-02    3.15       1.1  T
  12    -52.9142815 -0.168481E-05  0.109E-02    3.15       1.9  T
  13    -52.9142821 -0.570488E-06  0.537E-03    3.15       4.0  T
  14    -52.9142823 -0.177825E-06  0.290E-03    3.15       7.4  T
  15    -52.9142823 -0.185004E-07  0.163E-03    3.15      13.1  T
  16    -52.9142823 -0.100779E-07  0.102E-03    3.15      20.9  T
  17    -52.9142823 -0.461014E-08  0.629E-04    3.15      33.9  T
  18    -52.9142823 -0.717961E-09  0.334E-04    3.15      63.8  T

   *** convergence criteria satisfied after 18 iterations ***

         #    Occupation            Energy/Eh            Energy/eV
      -------------------------------------------------------------
         1        2.0000           -0.8808657             -23.9696
       ...           ...                  ...                  ...
        40        2.0000           -0.4519302             -12.2976
        41        2.0000           -0.4506624             -12.2631
        42        2.0000           -0.4458720             -12.1328
        43        2.0000           -0.4405561             -11.9881
        44        2.0000           -0.4375579             -11.9066
        45        2.0000           -0.4363324             -11.8732
        46        2.0000           -0.4347454             -11.8300 (HOMO)
        47                         -0.3190962              -8.6830 (LUMO)
        48                         -0.3170334              -8.6269
        49                         -0.3028717              -8.2416
        50                         -0.2934923              -7.9863
        51                         -0.2599789              -7.0744
       ...                                ...                  ...
        98                          0.6433091              17.5053
      -------------------------------------------------------------
                  HL-Gap            0.1156493 Eh            3.1470 eV
             Fermi-level           -0.3769208 Eh          -10.2565 eV

 SCC (total)                   0 d,  0 h,  0 min,  0.050 sec
 SCC setup                      ...        0 min,  0.000 sec (  0.518%)
 Dispersion                     ...        0 min,  0.000 sec (  0.538%)
 classical contributions        ...        0 min,  0.000 sec (  0.036%)
 integral evaluation            ...        0 min,  0.006 sec ( 11.211%)
 iterations                     ...        0 min,  0.038 sec ( 75.104%)
 molecular gradient             ...        0 min,  0.006 sec ( 12.120%)
 printout                       ...        0 min,  0.000 sec (  0.402%)

         :::::::::::::::::::::::::::::::::::::::::::::::::::::
         ::                     SUMMARY                     ::
         :::::::::::::::::::::::::::::::::::::::::::::::::::::
         :: total energy             -52.460280146964 Eh    ::
         :: gradient norm              0.114869076705 Eh/a0 ::
         :: HOMO-LUMO gap              3.146976892541 eV    ::
         ::.................................................::
         :: SCC energy               -52.914200507210 Eh    ::
         :: -> isotropic ES            0.056104293747 Eh    ::
         :: -> anisotropic ES          0.005902043582 Eh    ::
         :: -> anisotropic XC          0.008036455254 Eh    ::
         :: -> dispersion             -0.033681726015 Eh    ::
         :: repulsion energy           0.453920360246 Eh    ::
         :: add. restraining           0.000000000000 Eh    ::
         :: total charge               0.000000000000 e     ::
         :::::::::::::::::::::::::::::::::::::::::::::::::::::

      ----------------------------------------------------------- 
     |                   =====================                   |
     |                        A N C O P T                        |
     |                   =====================                   |
     |               Approximate Normal Coordinate               |
     |                Rational Function Optimizer                |
      ----------------------------------------------------------- 
      ----------------------------------------------------------- 
     |                   =====================                   |
     |                        A N C O P T                        |
     |                   =====================                   |
     |               Approximate Normal Coordinate               |
     |                Rational Function Optimizer                |
      ----------------------------------------------------------- 

          ...................................................
          :                      SETUP                      :
          :.................................................:
          :   optimization level            normal          :
          :   max. optcycles                   200          :
          :   ANC micro-cycles                  20          :
          :   degrees of freedom                60          :
          :.................................................:
          :   RF solver                   davidson          :
          :   write xtbopt.log                true          :
          :   linear?                        false          :
          :   energy convergence         0.5000000E-05 Eh   :
          :   grad. convergence          0.1000000E-02 Eh/α :
          :   maxmium RF displ.          1.0000000          :
          :   Hlow (freq-cutoff)         0.1000000E-01      :
          :   Hmax (freq-cutoff)         5.0000000          :
          :   S6 in model hess.         20.0000000          :
          ...................................................

generating ANC from exact Hessian ...
Using Lindh-Hessian (1995)
 Shifting diagonal of input Hessian by   9.382955723525835E-003
 Lowest  eigenvalues of input Hessian
    0.000000    0.000000    0.000000    0.000000    0.000000    0.000000
    0.010000    0.010263    0.010430    0.011258    0.012528    0.013077
    0.013368    0.014288    0.014380    0.015247    0.016383    0.021106
 Highest eigenvalues
    1.686745    1.760187    1.826800    1.857872    2.040871    2.180072
 

........................................................................
.............................. CYCLE    1 ..............................
........................................................................

 iter      E             dE          RMSdq      gap      omega  full diag
   1    -52.9142823 -0.529143E+02  0.203E-04    3.15       0.0  T
   2    -52.9142823 -0.749552E-10  0.171E-04    3.15     124.7  T
   3    -52.9142823 -0.105274E-09  0.140E-04    3.15     152.5  T
     SCC iter.                  ...        0 min,  0.005 sec
     gradient                   ...        0 min,  0.004 sec
 * total energy  :   -52.4602801 Eh     change       -0.1037222E-08 Eh
   gradient norm :     0.1148690 Eh/α   predicted     0.0000000E+00 (-100.00%)
   displ. norm   :     0.3590600 α      lambda       -0.1742968E-01
   maximum displ.:     0.1649002 α      in ANC's #18, #15, #19, ...

........................................................................
.............................. CYCLE    2 ..............................
........................................................................

 iter      E             dE          RMSdq      gap      omega  full diag
   1    -52.9302184 -0.529302E+02  0.301E-01    3.15       0.0  T
   2    -52.9304011 -0.182745E-03  0.198E-01    3.16       1.0  T
   3    -52.9303550  0.461719E-04  0.116E-01    3.15       1.0  T
   4    -52.9304618 -0.106821E-03  0.555E-02    3.16       1.0  T
   5    -52.9304745 -0.127156E-04  0.371E-02    3.16       1.0  T
   6    -52.9304783 -0.383285E-05  0.216E-02    3.16       1.0  T
   7    -52.9304793 -0.994314E-06  0.106E-02    3.16       2.0  T
   8    -52.9304800 -0.646574E-06  0.550E-03    3.16       3.9  T
   9    -52.9304801 -0.880504E-07  0.333E-03    3.16       6.4  T
  10    -52.9304801 -0.536288E-07  0.256E-03    3.16       8.3  T
  11    -52.9304801 -0.280750E-07  0.150E-03    3.16      14.2  T
  12    -52.9304801 -0.997316E-08  0.694E-04    3.16      30.7  T
  13    -52.9304801 -0.342786E-08  0.350E-04    3.16      61.0  T
     SCC iter.                  ...        0 min,  0.020 sec
     gradient                   ...        0 min,  0.008 sec
 * total energy  :   -52.4720191 Eh     change       -0.1173893E-01 Eh
   gradient norm :     0.0424553 Eh/α   predicted    -0.9854968E-02 ( -16.05%)
   displ. norm   :     0.3675457 α      lambda       -0.6108343E-02
   maximum displ.:     0.1977306 α      in ANC's #10, #19, #18, ...

........................................................................
.............................. CYCLE    3 ..............................
........................................................................

 iter      E             dE          RMSdq      gap      omega  full diag
   1    -52.9391322 -0.529391E+02  0.255E-01    3.12       0.0  T
   2    -52.9392404 -0.108190E-03  0.171E-01    3.14       1.0  T
   3    -52.9391828  0.576323E-04  0.105E-01    3.12       1.0  T
   4    -52.9392844 -0.101652E-03  0.452E-02    3.13       1.0  T
   5    -52.9392919 -0.751593E-05  0.308E-02    3.13       1.0  T
   6    -52.9392944 -0.249007E-05  0.194E-02    3.13       1.1  T
   7    -52.9392952 -0.791844E-06  0.858E-03    3.13       2.5  T
   8    -52.9392957 -0.541746E-06  0.422E-03    3.13       5.1  T
   9    -52.9392958 -0.476303E-07  0.282E-03    3.13       7.6  T
  10    -52.9392958 -0.322575E-07  0.213E-03    3.13      10.0  T
  11    -52.9392958 -0.154901E-07  0.116E-03    3.13      18.5  T
  12    -52.9392958 -0.696293E-08  0.604E-04    3.13      35.3  T
  13    -52.9392958 -0.300206E-08  0.250E-04    3.13      85.1  T
     SCC iter.                  ...        0 min,  0.027 sec
     gradient                   ...        0 min,  0.004 sec
 * total energy  :   -52.4743421 Eh     change       -0.2322989E-02 Eh
   gradient norm :     0.0203102 Eh/α   predicted    -0.3466771E-02 (  49.24%)
   displ. norm   :     0.3181751 α      lambda       -0.2598086E-02
   maximum displ.:     0.2132442 α      in ANC's #5, #10, #7, ...

........................................................................
.............................. CYCLE    4 ..............................
........................................................................

 iter      E             dE          RMSdq      gap      omega  full diag
   1    -52.9405459 -0.529405E+02  0.189E-01    3.14       0.0  T
   2    -52.9405661 -0.201681E-04  0.124E-01    3.15       1.0  T
   3    -52.9405576  0.851008E-05  0.662E-02    3.14       1.0  T
   4    -52.9405779 -0.203446E-04  0.435E-02    3.15       1.0  T
   5    -52.9405830 -0.500477E-05  0.193E-02    3.15       1.1  T
   6    -52.9405852 -0.228328E-05  0.875E-03    3.14       2.4  T
   7    -52.9405857 -0.465472E-06  0.474E-03    3.15       4.5  T
   8    -52.9405857 -0.151239E-07  0.313E-03    3.15       6.8  T
   9    -52.9405858 -0.666581E-07  0.210E-03    3.15      10.1  T
  10    -52.9405858 -0.109097E-07  0.130E-03    3.15      16.4  T
  11    -52.9405858 -0.111691E-07  0.556E-04    3.15      38.3  T
  12    -52.9405858 -0.221441E-08  0.262E-04    3.15      81.5  T
     SCC iter.                  ...        0 min,  0.031 sec
     gradient                   ...        0 min,  0.004 sec
 * total energy  :   -52.4745499 Eh     change       -0.2078542E-03 Eh
   gradient norm :     0.0169786 Eh/α   predicted    -0.1430561E-02 ( 588.25%)
   displ. norm   :     0.1842003 α      lambda       -0.1637253E-02
   maximum displ.:     0.0896489 α      in ANC's #4, #5, #1, ...

........................................................................
.............................. CYCLE    5 ..............................
........................................................................

 iter      E             dE          RMSdq      gap      omega  full diag
   1    -52.9398810 -0.529399E+02  0.130E-01    3.15       0.0  T
   2    -52.9398939 -0.128901E-04  0.866E-02    3.15       1.0  T
   3    -52.9398835  0.103782E-04  0.504E-02    3.15       1.0  T
   4    -52.9399023 -0.187857E-04  0.302E-02    3.15       1.0  T
   5    -52.9399031 -0.752180E-06  0.161E-02    3.15       1.3  T
   6    -52.9399048 -0.175058E-05  0.626E-03    3.15       3.4  T
   7    -52.9399050 -0.148208E-06  0.369E-03    3.15       5.8  T
   8    -52.9399050 -0.489263E-07  0.236E-03    3.15       9.0  T
   9    -52.9399051 -0.223218E-07  0.154E-03    3.15      13.9  T
  10    -52.9399051 -0.764881E-08  0.115E-03    3.15      18.5  T
  11    -52.9399051 -0.633408E-08  0.405E-04    3.15      52.7  T
  12    -52.9399051 -0.125401E-08  0.227E-04    3.15      94.1  T
     SCC iter.                  ...        0 min,  0.022 sec
     gradient                   ...        0 min,  0.005 sec
 * total energy  :   -52.4752050 Eh     change       -0.6550731E-03 Eh
   gradient norm :     0.0054166 Eh/α   predicted    -0.8464029E-03 (  29.21%)
   displ. norm   :     0.2087360 α      lambda       -0.7849486E-03
   maximum displ.:     0.1544327 α      in ANC's #10, #4, #1, ...

........................................................................
.............................. CYCLE    6 ..............................
........................................................................

 iter      E             dE          RMSdq      gap      omega  full diag
   1    -52.9396574 -0.529397E+02  0.121E-01    3.14       0.0  T
   2    -52.9396650 -0.759976E-05  0.794E-02    3.14       1.0  T
   3    -52.9396656 -0.634763E-06  0.404E-02    3.14       1.0  T
   4    -52.9396700 -0.433721E-05  0.284E-02    3.14       1.0  T
   5    -52.9396727 -0.267851E-05  0.105E-02    3.14       2.0  T
   6    -52.9396733 -0.606803E-06  0.592E-03    3.14       3.6  T
   7    -52.9396734 -0.174708E-06  0.377E-03    3.14       5.6  T
   8    -52.9396735 -0.256890E-07  0.264E-03    3.14       8.1  T
   9    -52.9396735 -0.357246E-07  0.179E-03    3.14      11.9  T
  10    -52.9396735 -0.901310E-08  0.108E-03    3.14      19.8  T
  11    -52.9396735 -0.650182E-08  0.418E-04    3.14      51.1  T
  12    -52.9396735 -0.149539E-08  0.192E-04    3.14     111.0  T
     SCC iter.                  ...        0 min,  0.023 sec
     gradient                   ...        0 min,  0.004 sec
 * total energy  :   -52.4749082 Eh     change        0.2968268E-03 Eh
   gradient norm :     0.0090662 Eh/α   predicted    -0.4095751E-03 (-237.98%)
   displ. norm   :     0.1421377 α      lambda       -0.9535020E-03
   maximum displ.:     0.0774387 α      in ANC's #10, #1, #4, ...

........................................................................
.............................. CYCLE    7 ..............................
........................................................................

 iter      E             dE          RMSdq      gap      omega  full diag
   1    -52.9409054 -0.529409E+02  0.806E-02    3.14       0.0  T
   2    -52.9409092 -0.379091E-05  0.516E-02    3.14       1.0  T
   3    -52.9409081  0.116373E-05  0.282E-02    3.14       1.0  T
   4    -52.9409116 -0.356366E-05  0.193E-02    3.14       1.1  T
   5    -52.9409123 -0.725792E-06  0.948E-03    3.14       2.2  T
   6    -52.9409130 -0.669417E-06  0.421E-03    3.14       5.1  T
   7    -52.9409131 -0.558872E-07  0.264E-03    3.14       8.1  T
   8    -52.9409131 -0.166030E-07  0.184E-03    3.14      11.6  T
   9    -52.9409131 -0.160188E-07  0.120E-03    3.14      17.7  T
  10    -52.9409131 -0.371733E-08  0.816E-04    3.14      26.1  T
  11    -52.9409131 -0.412364E-08  0.285E-04    3.14      74.7  T
     SCC iter.                  ...        0 min,  0.022 sec
     gradient                   ...        0 min,  0.004 sec
 * total energy  :   -52.4754072 Eh     change       -0.4990541E-03 Eh
   gradient norm :     0.0018080 Eh/α   predicted    -0.4863805E-03 (  -2.54%)
   displ. norm   :     0.1020114 α      lambda       -0.7235540E-04
   maximum displ.:     0.0502074 α      in ANC's #6, #2, #9, ...

........................................................................
.............................. CYCLE    8 ..............................
........................................................................

 iter      E             dE          RMSdq      gap      omega  full diag
   1    -52.9416722 -0.529417E+02  0.567E-02    3.15       0.0  T
   2    -52.9416733 -0.105652E-05  0.317E-02    3.15       1.0  T
   3    -52.9416721  0.121308E-05  0.154E-02    3.15       1.4  T
   4    -52.9416741 -0.207186E-05  0.101E-02    3.15       2.1  T
   5    -52.9416743 -0.175270E-06  0.559E-03    3.15       3.8  T
   6    -52.9416745 -0.216549E-06  0.309E-03    3.15       6.9  T
   7    -52.9416746 -0.278559E-07  0.171E-03    3.15      12.4  T
   8    -52.9416746 -0.531438E-08  0.116E-03    3.15      18.4  T
   9    -52.9416746 -0.910708E-08  0.749E-04    3.15      28.5  T
  10    -52.9416746 -0.125637E-08  0.515E-04    3.15      41.4  T
     SCC iter.                  ...        0 min,  0.020 sec
     gradient                   ...        0 min,  0.004 sec
 * total energy  :   -52.4753939 Eh     change        0.1333742E-04 Eh
   gradient norm :     0.0030485 Eh/α   predicted    -0.3634868E-04 (-372.53%)
   displ. norm   :     0.0576268 α      lambda       -0.9344108E-04
   maximum displ.:     0.0246492 α      in ANC's #5, #1, #3, ...

........................................................................
.............................. CYCLE    9 ..............................
........................................................................

 iter      E             dE          RMSdq      gap      omega  full diag
   1    -52.9417143 -0.529417E+02  0.304E-02    3.15       0.0  T
   2    -52.9417146 -0.300473E-06  0.167E-02    3.15       1.3  T
   3    -52.9417144  0.123893E-06  0.634E-03    3.15       3.4  T
   4    -52.9417147 -0.268830E-06  0.445E-03    3.15       4.8  T
   5    -52.9417148 -0.529470E-07  0.255E-03    3.15       8.4  T
   6    -52.9417148 -0.294244E-07  0.152E-03    3.15      14.0  T
   7    -52.9417148 -0.102596E-07  0.905E-04    3.15      23.6  T
   8    -52.9417148 -0.239783E-08  0.455E-04    3.15      46.9  T
     SCC iter.                  ...        0 min,  0.016 sec
     gradient                   ...        0 min,  0.004 sec
 * total energy  :   -52.4754621 Eh     change       -0.6818132E-04 Eh
   gradient norm :     0.0017025 Eh/α   predicted    -0.4687706E-04 ( -31.25%)
   displ. norm   :     0.1499660 α      lambda       -0.6976291E-04
   maximum displ.:     0.0821055 α      in ANC's #2, #3, #1, ...

........................................................................
.............................. CYCLE   10 ..............................
........................................................................

 iter      E             dE          RMSdq      gap      omega  full diag
   1    -52.9415634 -0.529416E+02  0.766E-02    3.14       0.0  T
   2    -52.9415648 -0.136131E-05  0.402E-02    3.14       1.0  T
   3    -52.9415646  0.228430E-06  0.106E-02    3.14       2.0  T
   4    -52.9415651 -0.490278E-06  0.800E-03    3.14       2.7  T
   5    -52.9415654 -0.308893E-06  0.443E-03    3.14       4.8  T
   6    -52.9415654 -0.540748E-07  0.290E-03    3.14       7.4  T
   7    -52.9415655 -0.286895E-07  0.203E-03    3.14      10.5  T
   8    -52.9415655 -0.162922E-07  0.843E-04    3.14      25.3  T
   9    -52.9415655 -0.430868E-08  0.613E-04    3.14      34.8  T
     SCC iter.                  ...        0 min,  0.022 sec
     gradient                   ...        0 min,  0.004 sec
 * total energy  :   -52.4755038 Eh     change       -0.4169618E-04 Eh
   gradient norm :     0.0019510 Eh/α   predicted    -0.3523121E-04 ( -15.50%)
   displ. norm   :     0.0958010 α      lambda       -0.3072638E-04
   maximum displ.:     0.0666723 α      in ANC's #2, #3, #1, ...

........................................................................
.............................. CYCLE   11 ..............................
........................................................................

 iter      E             dE          RMSdq      gap      omega  full diag
   1    -52.9416600 -0.529417E+02  0.527E-02    3.14       0.0  T
   2    -52.9416603 -0.319636E-06  0.268E-02    3.14       1.0  T
   3    -52.9416602  0.141682E-06  0.563E-03    3.14       3.8  T
   4    -52.9416604 -0.222887E-06  0.351E-03    3.14       6.1  T
   5    -52.9416605 -0.582977E-07  0.149E-03    3.14      14.3  T
   6    -52.9416605 -0.103325E-07  0.111E-03    3.14      19.2  T
   7    -52.9416605 -0.269620E-08  0.733E-04    3.14      29.1  T
   8    -52.9416605 -0.255406E-08  0.280E-04    3.14      76.1  T
     SCC iter.                  ...        0 min,  0.016 sec
     gradient                   ...        0 min,  0.004 sec
 * total energy  :   -52.4755374 Eh     change       -0.3368464E-04 Eh
   gradient norm :     0.0014709 Eh/α   predicted    -0.1542777E-04 ( -54.20%)
   displ. norm   :     0.2488121 α      lambda       -0.6573633E-04
   maximum displ.:     0.1807144 α      in ANC's #2, #3, #1, ...

........................................................................
.............................. CYCLE   12 ..............................
........................................................................

 iter      E             dE          RMSdq      gap      omega  full diag
   1    -52.9416517 -0.529417E+02  0.141E-01    3.14       0.0  T
   2    -52.9416540 -0.227722E-05  0.711E-02    3.14       1.0  T
   3    -52.9416530  0.988800E-06  0.146E-02    3.14       1.5  T
   4    -52.9416547 -0.164415E-05  0.925E-03    3.14       2.3  T
   5    -52.9416551 -0.385790E-06  0.408E-03    3.14       5.2  T
   6    -52.9416551 -0.685181E-07  0.306E-03    3.14       7.0  T
   7    -52.9416551 -0.234469E-07  0.172E-03    3.14      12.4  T
   8    -52.9416552 -0.123852E-07  0.781E-04    3.14      27.3  T
   9    -52.9416552 -0.437672E-08  0.567E-04    3.14      37.6  T
     SCC iter.                  ...        0 min,  0.018 sec
     gradient                   ...        0 min,  0.004 sec
 * total energy  :   -52.4755995 Eh     change       -0.6208273E-04 Eh
   gradient norm :     0.0013517 Eh/α   predicted    -0.3377295E-04 ( -45.60%)
   displ. norm   :     0.2434555 α      lambda       -0.5109041E-04
   maximum displ.:     0.1724879 α      in ANC's #2, #3, #1, ...

........................................................................
.............................. CYCLE   13 ..............................
........................................................................

 iter      E             dE          RMSdq      gap      omega  full diag
   1    -52.9414930 -0.529415E+02  0.145E-01    3.14       0.0  T
   2    -52.9414952 -0.216743E-05  0.742E-02    3.14       1.0  T
   3    -52.9414950  0.222226E-06  0.129E-02    3.14       1.6  T
   4    -52.9414954 -0.380600E-06  0.911E-03    3.14       2.3  T
   5    -52.9414961 -0.717167E-06  0.333E-03    3.14       6.4  T
   6    -52.9414961 -0.238015E-07  0.265E-03    3.14       8.1  T
   7    -52.9414961 -0.168308E-07  0.158E-03    3.14      13.5  T
   8    -52.9414961 -0.121398E-07  0.605E-04    3.14      35.2  T
   9    -52.9414961 -0.309801E-08  0.433E-04    3.14      49.2  T
     SCC iter.                  ...        0 min,  0.017 sec
     gradient                   ...        0 min,  0.004 sec
 * total energy  :   -52.4756479 Eh     change       -0.4836329E-04 Eh
   gradient norm :     0.0021984 Eh/α   predicted    -0.2622027E-04 ( -45.78%)
   displ. norm   :     0.2355455 α      lambda       -0.6495450E-04
   maximum displ.:     0.1673451 α      in ANC's #2, #3, #1, ...

........................................................................
.............................. CYCLE   14 ..............................
........................................................................

 iter      E             dE          RMSdq      gap      omega  full diag
   1    -52.9413648 -0.529414E+02  0.142E-01    3.14       0.0  T
   2    -52.9413668 -0.195740E-05  0.721E-02    3.14       1.0  T
   3    -52.9413668 -0.218601E-07  0.117E-02    3.14       1.8  T
   4    -52.9413668 -0.149220E-08  0.851E-03    3.14       2.5  T
   5    -52.9413676 -0.756941E-06  0.304E-03    3.14       7.0  T
   6    -52.9413676 -0.169483E-07  0.245E-03    3.14       8.7  T
   7    -52.9413676 -0.199312E-07  0.110E-03    3.14      19.3  T
   8    -52.9413676 -0.733622E-08  0.573E-04    3.14      37.2  T
   9    -52.9413676 -0.191697E-08  0.449E-04    3.14      47.5  T
     SCC iter.                  ...        0 min,  0.017 sec
     gradient                   ...        0 min,  0.004 sec
 * total energy  :   -52.4757016 Eh     change       -0.5374997E-04 Eh
   gradient norm :     0.0018753 Eh/α   predicted    -0.3428296E-04 ( -36.22%)
   displ. norm   :     0.5731723 α      lambda       -0.9312996E-04
   maximum displ.:     0.4137270 α      in ANC's #2, #1, #3, ...

........................................................................
.............................. CYCLE   15 ..............................
........................................................................

 iter      E             dE          RMSdq      gap      omega  full diag
   1    -52.9409580 -0.529410E+02  0.363E-01    3.14       0.0  T
   2    -52.9409712 -0.131867E-04  0.183E-01    3.14       1.0  T
   3    -52.9409713 -0.414245E-07  0.295E-02    3.14       1.0  T
   4    -52.9409725 -0.119651E-05  0.209E-02    3.14       1.0  T
   5    -52.9409765 -0.406880E-05  0.813E-03    3.14       2.6  T
   6    -52.9409767 -0.170953E-06  0.657E-03    3.14       3.2  T
   7    -52.9409768 -0.149307E-06  0.258E-03    3.14       8.3  T
   8    -52.9409769 -0.380605E-07  0.150E-03    3.14      14.2  T
   9    -52.9409769 -0.135253E-07  0.115E-03    3.14      18.5  T
  10    -52.9409769 -0.501600E-08  0.857E-04    3.14      24.9  T
  11    -52.9409769 -0.311450E-08  0.548E-04    3.14      38.9  T
     SCC iter.                  ...        0 min,  0.021 sec
     gradient                   ...        0 min,  0.004 sec
 * total energy  :   -52.4757654 Eh     change       -0.6372003E-04 Eh
   gradient norm :     0.0026317 Eh/α   predicted    -0.5336686E-04 ( -16.25%)
   displ. norm   :     0.0473838 α      lambda       -0.3844072E-04
   maximum displ.:     0.0285710 α      in ANC's #3, #5, #1, ...

........................................................................
.............................. CYCLE   16 ..............................
........................................................................

 iter      E             dE          RMSdq      gap      omega  full diag
   1    -52.9426975 -0.529427E+02  0.306E-02    3.15       0.0  T
   2    -52.9426978 -0.288819E-06  0.180E-02    3.15       1.2  T
   3    -52.9426969  0.835655E-06  0.856E-03    3.15       2.5  T
   4    -52.9426980 -0.110629E-05  0.441E-03    3.15       4.8  T
   5    -52.9426981 -0.262439E-07  0.262E-03    3.15       8.1  T
   6    -52.9426981 -0.242356E-07  0.169E-03    3.15      12.6  T
   7    -52.9426981 -0.114764E-07  0.105E-03    3.15      20.3  T
   8    -52.9426981 -0.475792E-08  0.574E-04    3.15      37.2  T
   9    -52.9426981 -0.135338E-08  0.391E-04    3.15      54.6  T
     SCC iter.                  ...        0 min,  0.017 sec
     gradient                   ...        0 min,  0.004 sec
 * total energy  :   -52.4757893 Eh     change       -0.2392250E-04 Eh
   gradient norm :     0.0016515 Eh/α   predicted    -0.1926483E-04 ( -19.47%)
   displ. norm   :     0.1352495 α      lambda       -0.2227300E-04
   maximum displ.:     0.0922493 α      in ANC's #2, #1, #5, ...

........................................................................
.............................. CYCLE   17 ..............................
........................................................................

 iter      E             dE          RMSdq      gap      omega  full diag
   1    -52.9428068 -0.529428E+02  0.783E-02    3.15       0.0  T
   2    -52.9428075 -0.634320E-06  0.408E-02    3.15       1.0  T
   3    -52.9428073  0.202125E-06  0.814E-03    3.15       2.6  T
   4    -52.9428076 -0.294487E-06  0.570E-03    3.15       3.7  T
   5    -52.9428078 -0.239305E-06  0.248E-03    3.15       8.6  T
   6    -52.9428078 -0.746595E-08  0.194E-03    3.15      11.0  T
   7    -52.9428078 -0.105710E-07  0.120E-03    3.15      17.7  T
   8    -52.9428078 -0.825786E-08  0.453E-04    3.15      47.1  T
   9    -52.9428078 -0.139412E-08  0.316E-04    3.15      67.5  T
     SCC iter.                  ...        0 min,  0.017 sec
     gradient                   ...        0 min,  0.006 sec
 * total energy  :   -52.4758110 Eh     change       -0.2175936E-04 Eh
   gradient norm :     0.0010945 Eh/α   predicted    -0.1122837E-04 ( -48.40%)
   displ. norm   :     0.2225882 α      lambda       -0.2169362E-04
   maximum displ.:     0.1691796 α      in ANC's #2, #1, #8, ...

........................................................................
.............................. CYCLE   18 ..............................
........................................................................

 iter      E             dE          RMSdq      gap      omega  full diag
   1    -52.9423409 -0.529423E+02  0.129E-01    3.15       0.0  T
   2    -52.9423425 -0.158586E-05  0.659E-02    3.15       1.0  T
   3    -52.9423427 -0.144046E-06  0.103E-02    3.15       2.1  T
   4    -52.9423427  0.902505E-08  0.712E-03    3.15       3.0  T
   5    -52.9423431 -0.483426E-06  0.262E-03    3.15       8.1  T
   6    -52.9423432 -0.912016E-08  0.213E-03    3.15      10.0  T
   7    -52.9423432 -0.224539E-07  0.704E-04    3.15      30.3  T
   8    -52.9423432 -0.217036E-08  0.447E-04    3.15      47.7  T
     SCC iter.                  ...        0 min,  0.015 sec
     gradient                   ...        0 min,  0.004 sec
 * total energy  :   -52.4758324 Eh     change       -0.2139619E-04 Eh
   gradient norm :     0.0016568 Eh/α   predicted    -0.1108788E-04 ( -48.18%)
   displ. norm   :     0.2389204 α      lambda       -0.2210009E-04
   maximum displ.:     0.1746325 α      in ANC's #2, #1, #3, ...

........................................................................
.............................. CYCLE   19 ..............................
........................................................................

 iter      E             dE          RMSdq      gap      omega  full diag
   1    -52.9415065 -0.529415E+02  0.141E-01    3.15       0.0  T
   2    -52.9415084 -0.197687E-05  0.708E-02    3.15       1.0  T
   3    -52.9415086 -0.122289E-06  0.111E-02    3.14       1.9  T
   4    -52.9415086 -0.785590E-07  0.775E-03    3.15       2.7  T
   5    -52.9415092 -0.575053E-06  0.296E-03    3.15       7.2  T
   6    -52.9415092 -0.138102E-07  0.238E-03    3.15       9.0  T
   7    -52.9415092 -0.214160E-07  0.102E-03    3.15      20.8  T
   8    -52.9415093 -0.629567E-08  0.535E-04    3.15      39.9  T
   9    -52.9415093 -0.104934E-08  0.436E-04    3.15      48.9  T
     SCC iter.                  ...        0 min,  0.017 sec
     gradient                   ...        0 min,  0.004 sec
 * total energy  :   -52.4758531 Eh     change       -0.2068758E-04 Eh
   gradient norm :     0.0022623 Eh/α   predicted    -0.1133413E-04 ( -45.21%)
   displ. norm   :     0.1250130 α      lambda       -0.2649483E-04
   maximum displ.:     0.0798087 α      in ANC's #2, #1, #3, ...

........................................................................
.............................. CYCLE   20 ..............................
........................................................................

 iter      E             dE          RMSdq      gap      omega  full diag
   1    -52.9418105 -0.529418E+02  0.699E-02    3.14       0.0  T
   2    -52.9418110 -0.436848E-06  0.367E-02    3.14       1.0  T
   3    -52.9418111 -0.828645E-07  0.590E-03    3.14       3.6  T
   4    -52.9418110  0.570422E-07  0.397E-03    3.14       5.4  T
   5    -52.9418112 -0.160902E-06  0.171E-03    3.14      12.5  T
   6    -52.9418112 -0.202409E-08  0.134E-03    3.14      15.9  T
   7    -52.9418112 -0.728830E-08  0.597E-04    3.14      35.7  T
   8    -52.9418112 -0.282053E-08  0.295E-04    3.14      72.2  T
     SCC iter.                  ...        0 min,  0.016 sec
     gradient                   ...        0 min,  0.004 sec
 * total energy  :   -52.4758746 Eh     change       -0.2146460E-04 Eh
   gradient norm :     0.0018511 Eh/α   predicted    -0.1345526E-04 ( -37.31%)
   displ. norm   :     0.2384641 α      lambda       -0.3396160E-04
   maximum displ.:     0.1455969 α      in ANC's #2, #3, #1, ...
 * RMSD in coord.:     0.5449378 α      energy gain  -0.1559445E-01 Eh

generating ANC from exact Hessian ...
Using Lindh-Hessian (1995)
 Shifting diagonal of input Hessian by   9.157852959972113E-003
 Lowest  eigenvalues of input Hessian
    0.000000    0.000000    0.000000    0.000000    0.000000    0.000000
    0.010000    0.010295    0.011082    0.012782    0.013487    0.013794
    0.014323    0.014908    0.016272    0.016969    0.019064    0.022062
 Highest eigenvalues
    1.740229    1.764993    1.799608    1.815745    2.028408    2.394602
 

........................................................................
.............................. CYCLE   21 ..............................
........................................................................

 iter      E             dE          RMSdq      gap      omega  full diag
   1    -52.9424063 -0.529424E+02  0.150E-01    3.14       0.0  T
   2    -52.9424085 -0.218411E-05  0.769E-02    3.14       1.0  T
   3    -52.9424090 -0.464650E-06  0.115E-02    3.14       1.8  T
   4    -52.9424084  0.607824E-06  0.819E-03    3.14       2.6  T
   5    -52.9424094 -0.998941E-06  0.311E-03    3.14       6.9  T
   6    -52.9424094 -0.132051E-07  0.216E-03    3.14       9.9  T
   7    -52.9424094 -0.982325E-08  0.904E-04    3.14      23.6  T
   8    -52.9424094 -0.840009E-08  0.413E-04    3.14      51.6  T
     SCC iter.                  ...        0 min,  0.016 sec
     gradient                   ...        0 min,  0.004 sec
 * total energy  :   -52.4759067 Eh     change       -0.3207034E-04 Eh
   gradient norm :     0.0013646 Eh/α   predicted     0.0000000E+00 (-100.00%)
   displ. norm   :     0.0318235 α      lambda       -0.9793488E-05
   maximum displ.:     0.0206572 α      in ANC's #3, #2, #10, ...

........................................................................
.............................. CYCLE   22 ..............................
........................................................................

 iter      E             dE          RMSdq      gap      omega  full diag
   1    -52.9423192 -0.529423E+02  0.257E-02    3.14       0.0  T
   2    -52.9423193 -0.123240E-06  0.144E-02    3.14       1.5  T
   3    -52.9423192  0.764075E-07  0.352E-03    3.14       6.1  T
   4    -52.9423193 -0.113942E-06  0.208E-03    3.14      10.2  T
   5    -52.9423194 -0.147605E-07  0.114E-03    3.14      18.7  T
   6    -52.9423194 -0.476216E-08  0.821E-04    3.14      26.0  T
   7    -52.9423194 -0.279813E-08  0.534E-04    3.14      40.0  T
     SCC iter.                  ...        0 min,  0.014 sec
     gradient                   ...        0 min,  0.004 sec
 * total energy  :   -52.4759112 Eh     change       -0.4581824E-05 Eh
   gradient norm :     0.0008367 Eh/α   predicted    -0.5065641E-05 (  10.56%)
   displ. norm   :     0.0418391 α      lambda       -0.1030064E-04
   maximum displ.:     0.0265321 α      in ANC's #3, #2, #9, ...

   *** GEOMETRY OPTIMIZATION CONVERGED AFTER 22 ITERATIONS ***

------------------------------------------------------------------------
 total energy gain   :        -0.0156311 Eh       -9.8087 kcal/mol
 total RMSD          :         0.5435992 a0        0.2877 Å
 total power (kW/mol):        -1.8654292 (step)  -69.5791 (real)
------------------------------------------------------------------------

 ANCopt (total)                0 d,  0 h,  0 min,  0.590 sec
 optimizer setup                ...        0 min,  0.000 sec (  0.019%)
 model hessian                  ...        0 min,  0.005 sec (  0.865%)
 ANC generation                 ...        0 min,  0.002 sec (  0.351%)
 coordinate transformation      ...        0 min,  0.000 sec (  0.035%)
 single point calculation       ...        0 min,  0.567 sec ( 96.067%)
 optimization log               ...        0 min,  0.004 sec (  0.691%)
 hessian update                 ...        0 min,  0.007 sec (  1.196%)
 rational function              ...        0 min,  0.003 sec (  0.531%)

================
 final structure:
================
22
 xtb: 6.7.1 (edcfbbe)
Br          -5.34820819906090        1.32600703567146       -0.41328733573460
C           -3.63945016053205        0.55172678204578       -0.29897715277343
C           -2.66855097575772        0.85943936802222       -1.24886935517754
Br          -3.07485633585266        2.03952657833231       -2.65312725492970
C           -1.40319596551781        0.28495576703068       -1.15261809489125
Br          -0.12348968114277        0.69622443408952       -2.47345817439899
C           -1.07990383174057       -0.59051502831384       -0.11400391789112
C            0.31552566587374       -1.13296528708455       -0.02756912144053
O            1.19975921105275       -0.02780053405252        0.11292420119481
C            2.51661741047923       -0.31360943124675        0.01667600319417
O            2.92944272131294       -1.42994779565398       -0.15504897508413
C            3.32193108833129        0.91361136156631        0.14823301739515
C            4.64620138909941        0.86548731297554        0.13020574069000
C           -2.06428155515579       -0.88997340926523        0.82624673644993
Br          -1.72213296750887       -2.07574911149399        2.25677219580714
C           -3.33942755783681       -0.33007810814801        0.73557565860808
Br          -4.65499483262633       -0.74695118571793        2.01169570438006
H            0.57607018841339       -1.68835722678055       -0.93995205775227
H            0.44297293315315       -1.80907130153093        0.82251560995103
H            2.76289571428433        1.83046241628077        0.25446012282483
H            5.15236974138014       -0.08062552912424        0.02568635088750
H            5.25470499935160        1.74820289239741        0.22288809869053
 
 Bond Distances (Angstroems)
 ---------------------------
Br1-C2=1.8795        C2-Br1=1.8795        C2-C3=1.3927         C2-C16=1.3921        C3-C2=1.3927         C3-Br4=1.8787        
C3-C5=1.3930         Br4-C3=1.8787        C5-C3=1.3930         C5-Br6=1.8845        C5-C7=1.3963         Br6-C5=1.8845        
C7-C5=1.3963         C7-C8=1.4996         C7-C14=1.3938        C8-C7=1.4996         C8-O9=1.4223         C8-H18=1.0994        
C8-H19=1.0936        O9-C8=1.4223         O9-C10=1.3510        C10-O9=1.3510        C10-O11=1.2025       C10-C12=1.4737       
O11-C10=1.2025       C12-C10=1.4737       C12-C13=1.3253       C12-H20=1.0791       C13-C12=1.3253       C13-H21=1.0781       
C13-H22=1.0761       C14-C7=1.3938        C14-Br15=1.8893      C14-C16=1.3956       Br15-C14=1.8893      C16-C2=1.3921        
C16-C14=1.3956       C16-Br17=1.8796      Br17-C16=1.8796      H18-C8=1.0994        H19-C8=1.0936        H20-C12=1.0791       
H21-C13=1.0781       H22-C13=1.0761       
 C  H  Rav=1.0853 sigma=0.0094  Rmin=1.0761  Rmax=1.0994     5
 C  C  Rav=1.4069 sigma=0.0480  Rmin=1.3253  Rmax=1.4996     9
 O  C  Rav=1.3253 sigma=0.0915  Rmin=1.2025  Rmax=1.4223     3
 Br C  Rav=1.8823 sigma=0.0041  Rmin=1.8787  Rmax=1.8893     5
 
 selected bond angles (degree)
 --------------------
C3-C2-Br1=120.09               C16-C2-Br1=120.14              C16-C2-C3=119.77               Br4-C3-C2=119.86               
C5-C3-C2=119.67                C5-C3-Br4=120.47               Br6-C5-C3=118.58               C7-C5-C3=121.35                
C7-C5-Br6=120.06               C8-C7-C5=119.02                C14-C7-C5=118.23               C14-C7-C8=122.72               
O9-C8-C7=107.64                H18-C8-C7=110.82               H18-C8-O9=109.10               H19-C8-C7=112.14               
H19-C8-O9=109.34               H19-C8-H18=107.77              C10-O9-C8=115.76               O11-C10-O9=122.77              
C12-C10-O9=110.49              C12-C10-O11=126.74             
 
 selected dihedral angles (degree)
 ---------------------------------
Br4-C3-C2-Br1=359.50          Br4-C3-C2-C16=179.56          C5-C3-C2-Br1=179.73           C5-C3-C2-C16=359.79           
Br6-C5-C3-C2=178.81           Br6-C5-C3-Br4=359.04          C7-C5-C3-C2=359.53            C7-C5-C3-Br4=179.76           
C8-C7-C5-C3=182.60            C8-C7-C5-Br6=  3.33           C14-C7-C5-C3=  0.61           C14-C7-C5-Br6=181.34          
O9-C8-C7-C5= 59.99            O9-C8-C7-C14=242.07           H18-C8-C7-C5=300.76           H18-C8-C7-C14=122.85          
H19-C8-C7-C5=180.29           H19-C8-C7-C14=  2.37          C10-O9-C8-C7=188.99           C10-O9-C8-H18=309.31          
C10-O9-C8-H19= 66.94          O11-C10-O9-C8=358.84          C12-C10-O9-C8=178.72          
           -------------------------------------------------
          |                Final Singlepoint                |
           -------------------------------------------------

          ...................................................
          :                      SETUP                      :
          :.................................................:
          :  # basis functions                 103          :
          :  # atomic orbitals                  98          :
          :  # shells                           44          :
          :  # electrons                        92          :
          :  max. iterations                   250          :
          :  Hamiltonian                  GFN2-xTB          :
          :  restarted?                      false          :
          :  GBSA solvation                  false          :
          :  PC potential                    false          :
          :  electronic temp.          300.0000000     K    :
          :  accuracy                    1.0000000          :
          :  -> integral cutoff          0.2500000E+02      :
          :  -> integral neglect         0.1000000E-07      :
          :  -> SCF convergence          0.1000000E-05 Eh   :
          :  -> wf. convergence          0.1000000E-03 e    :
          :  Broyden damping             0.4000000          :
          :  net charge                          0          :
          :  unpaired electrons                  0          :
          ...................................................

 iter      E             dE          RMSdq      gap      omega  full diag
   1    -52.9423194 -0.529423E+02  0.231E-04    3.14       0.0  T
   2    -52.9423194 -0.145370E-09  0.200E-04    3.14     106.4  T
   3    -52.9423194 -0.310514E-09  0.145E-04    3.14     147.2  T

   *** convergence criteria satisfied after 3 iterations ***

         #    Occupation            Energy/Eh            Energy/eV
      -------------------------------------------------------------
         1        2.0000           -0.8826220             -24.0174
       ...           ...                  ...                  ...
        40        2.0000           -0.4533957             -12.3375
        41        2.0000           -0.4511670             -12.2769
        42        2.0000           -0.4445215             -12.0960
        43        2.0000           -0.4398758             -11.9696
        44        2.0000           -0.4372250             -11.8975
        45        2.0000           -0.4346786             -11.8282
        46        2.0000           -0.4323602             -11.7651 (HOMO)
        47                         -0.3167985              -8.6205 (LUMO)
        48                         -0.3160830              -8.6011
        49                         -0.2956436              -8.0449
        50                         -0.2839793              -7.7275
        51                         -0.2508225              -6.8252
       ...                                ...                  ...
        98                          0.6921221              18.8336
      -------------------------------------------------------------
                  HL-Gap            0.1155618 Eh            3.1446 eV
             Fermi-level           -0.3745793 Eh          -10.1928 eV

 SCC (total)                   0 d,  0 h,  0 min,  0.014 sec
 SCC setup                      ...        0 min,  0.001 sec (  5.324%)
 Dispersion                     ...        0 min,  0.000 sec (  0.660%)
 classical contributions        ...        0 min,  0.000 sec (  1.141%)
 integral evaluation            ...        0 min,  0.002 sec ( 12.077%)
 iterations                     ...        0 min,  0.007 sec ( 47.832%)
 molecular gradient             ...        0 min,  0.004 sec ( 30.603%)
 printout                       ...        0 min,  0.000 sec (  2.195%)

         :::::::::::::::::::::::::::::::::::::::::::::::::::::
         ::                     SUMMARY                     ::
         :::::::::::::::::::::::::::::::::::::::::::::::::::::
         :: total energy             -52.475911245877 Eh    ::
         :: gradient norm              0.000837443306 Eh/a0 ::
         :: HOMO-LUMO gap              3.144595355327 eV    ::
         ::.................................................::
         :: SCC energy               -52.942247143382 Eh    ::
         :: -> isotropic ES            0.052849463882 Eh    ::
         :: -> anisotropic ES          0.007072593131 Eh    ::
         :: -> anisotropic XC          0.004319051074 Eh    ::
         :: -> dispersion             -0.034296754118 Eh    ::
         :: repulsion energy           0.466335897504 Eh    ::
         :: add. restraining           0.000000000000 Eh    ::
         :: total charge              -0.000000000000 e     ::
         :::::::::::::::::::::::::::::::::::::::::::::::::::::

           -------------------------------------------------
          |                Property Printout                |
           -------------------------------------------------

    * Orbital Energies and Occupations

         #    Occupation            Energy/Eh            Energy/eV
      -------------------------------------------------------------
         1        2.0000           -0.8826220             -24.0174
       ...           ...                  ...                  ...
        34        2.0000           -0.4764227             -12.9641
        35        2.0000           -0.4668665             -12.7041
        36        2.0000           -0.4628325             -12.5943
        37        2.0000           -0.4607666             -12.5381
        38        2.0000           -0.4589242             -12.4880
        39        2.0000           -0.4557916             -12.4027
        40        2.0000           -0.4533957             -12.3375
        41        2.0000           -0.4511670             -12.2769
        42        2.0000           -0.4445215             -12.0960
        43        2.0000           -0.4398758             -11.9696
        44        2.0000           -0.4372250             -11.8975
        45        2.0000           -0.4346786             -11.8282
        46        2.0000           -0.4323602             -11.7651 (HOMO)
        47                         -0.3167985              -8.6205 (LUMO)
        48                         -0.3160830              -8.6011
        49                         -0.2956436              -8.0449
        50                         -0.2839793              -7.7275
        51                         -0.2508225              -6.8252
        52                         -0.2483463              -6.7578
        53                         -0.2334218              -6.3517
        54                         -0.2209346              -6.0119
        55                         -0.2105147              -5.7284
        56                         -0.1846316              -5.0241
        57                         -0.0235394              -0.6405
       ...                                ...                  ...
        98                          0.6921221              18.8336
      -------------------------------------------------------------
                  HL-Gap            0.1155618 Eh            3.1446 eV
             Fermi-level           -0.3745793 Eh          -10.1928 eV

     #   Z          covCN         q      C6AA      α(0)
     1  35 Br       1.495    -0.061   186.727    22.033
     2   6 C        3.072     0.058    26.631     8.461
     3   6 C        3.072     0.058    26.636     8.462
     4  35 Br       1.512    -0.063   186.767    22.035
     5   6 C        2.991     0.064    26.565     8.455
     6  35 Br       1.322    -0.077   187.167    22.059
     7   6 C        3.100    -0.005    28.009     8.673
     8   6 C        3.721     0.092    19.159     6.252
     9   8 O        1.708    -0.264    18.381     5.789
    10   6 C        2.729     0.358    20.921     7.488
    11   8 O        0.856    -0.395    21.591     6.230
    12   6 C        2.888    -0.056    29.389     8.888
    13   6 C        2.843    -0.055    29.357     8.880
    14   6 C        2.987     0.057    26.718     8.479
    15  35 Br       1.327    -0.083   187.334    22.069
    16   6 C        3.076     0.058    26.629     8.461
    17  35 Br       1.538    -0.063   186.765    22.035
    18   1 H        0.923     0.077     2.012     2.218
    19   1 H        0.924     0.076     2.018     2.221
    20   1 H        0.926     0.070     2.089     2.260
    21   1 H        0.926     0.084     1.933     2.174
    22   1 H        0.926     0.072     2.067     2.248

 Mol. C6AA /au·bohr⁶  :      18254.752484
 Mol. C8AA /au·bohr⁸  :     776527.960548
 Mol. α(0) /au        :        215.868232


Wiberg/Mayer (AO) data.
largest (>0.10) Wiberg bond orders for each atom

 ---------------------------------------------------------------------------
     #   Z sym  total        # sym  WBO       # sym  WBO       # sym  WBO
 ---------------------------------------------------------------------------
     1  35 Br   1.242 --     2 C    1.036
     2   6 C    3.955 --    16 C    1.357     3 C    1.353     1 Br   1.036
     3   6 C    3.956 --     5 C    1.357     2 C    1.353     4 Br   1.037
     4  35 Br   1.244 --     3 C    1.037
     5   6 C    3.955 --     7 C    1.361     3 C    1.357     6 Br   1.029
     6  35 Br   1.222 --     5 C    1.029
     7   6 C    3.986 --    14 C    1.373     5 C    1.361     8 C    1.008
     8   6 C    3.932 --     7 C    1.008    19 H    0.954     9 O    0.951
                            18 H    0.946
     9   8 O    2.291 --    10 C    1.084     8 C    0.951    11 O    0.165
    10   6 C    3.914 --    11 O    1.748     9 O    1.084    12 C    1.018
    11   8 O    2.054 --    10 C    1.748     9 O    0.165
    12   6 C    3.985 --    13 C    1.923    10 C    1.018    20 H    0.964
    13   6 C    3.976 --    12 C    1.923    22 H    0.974    21 H    0.969
    14   6 C    3.952 --     7 C    1.373    16 C    1.351    15 Br   1.021
    15  35 Br   1.211 --    14 C    1.021
    16   6 C    3.956 --     2 C    1.357    14 C    1.351    17 Br   1.037
    17  35 Br   1.246 --    16 C    1.037
    18   1 H    0.993 --     8 C    0.946
    19   1 H    0.993 --     8 C    0.954
    20   1 H    0.995 --    12 C    0.964
    21   1 H    0.993 --    13 C    0.969
    22   1 H    0.994 --    13 C    0.974
 ---------------------------------------------------------------------------

Topologies differ in total number of bonds
Writing topology from bond orders to xtbtopo.mol

molecular dipole:
                 x           y           z       tot (Debye)
 q only:        0.577       0.424       0.080
   full:        0.819       0.385       0.164       2.337
molecular quadrupole (traceless):
                xx          xy          yy          xz          yz          zz
 q only:        2.094      10.772       0.923       3.138       4.353      -3.018
  q+dip:       -2.755      14.675       7.497       7.052      14.485      -4.742
   full:       -3.713      15.286       6.634       6.769      13.593      -2.921

           -------------------------------------------------
          |                Geometry Summary                 |
           -------------------------------------------------

      molecular mass/u    :      556.6635115
   center of mass at/Å    :       -2.0710166       0.1406629      -0.2042649
  moments of inertia/u·Å² :        0.2736410E+04   0.4020631E+04   0.6456924E+04
rotational constants/cm⁻¹ :        0.6160493E-02   0.4192783E-02   0.2610784E-02

 * 20 selected distances

     #   Z          #   Z                                           value/Å
     1  35 Br       2   6 C                                       1.8794764
     2   6 C        3   6 C                                       1.3927052
     3   6 C        4  35 Br                                      1.8787312
     3   6 C        5   6 C                                       1.3929894
     5   6 C        6  35 Br                                      1.8845183
     5   6 C        7   6 C                                       1.3963118
     8   6 C        9   8 O                                       1.4223209
     9   8 O       10   6 C                                       1.3509501
    10   6 C       11   8 O                                       1.2025497
    12   6 C       13   6 C                                       1.3252672
     7   6 C       14   6 C                                       1.3938244
    14   6 C       15  35 Br                                      1.8893209 (max)
     2   6 C       16   6 C                                       1.3920824
    14   6 C       16   6 C                                       1.3956008
    16   6 C       17  35 Br                                      1.8796232
     8   6 C       18   1 H                                       1.0994483
     8   6 C       19   1 H                                       1.0936208
    12   6 C       20   1 H                                       1.0790833
    13   6 C       21   1 H                                       1.0780818
    13   6 C       22   1 H                                       1.0761290 (min)

 * 4 distinct bonds (by element types)

   Z      Z             #   av. dist./Å        max./Å        min./Å
   1 H    6 C           5     1.0852726     1.0994483     1.0761290
   6 C    6 C           7     1.3841116     1.3963118     1.3252672
   6 C    8 O           3     1.3252736     1.4223209     1.2025497
   6 C   35 Br          5     1.8823340     1.8893209     1.8787312


optimized geometry written to: xtbopt.xyz


           -------------------------------------------------
          | TOTAL ENERGY              -52.475911245877 Eh   |
          | GRADIENT NORM               0.000837443306 Eh/α |
          | HOMO-LUMO GAP               3.144595355327 eV   |
           -------------------------------------------------

------------------------------------------------------------------------
 * finished run on 2025/12/01 at 14:17:40.464     
------------------------------------------------------------------------
 total:
 * wall-time:     0 d,  0 h,  0 min,  0.666 sec
 *  cpu-time:     0 d,  0 h,  0 min, 15.076 sec
 * ratio c/w:    22.642 speedup
 SCF:
 * wall-time:     0 d,  0 h,  0 min,  0.050 sec
 *  cpu-time:     0 d,  0 h,  0 min,  1.141 sec
 * ratio c/w:    22.726 speedup
 ANC optimizer:
 * wall-time:     0 d,  0 h,  0 min,  0.605 sec
 *  cpu-time:     0 d,  0 h,  0 min, 13.747 sec
 * ratio c/w:    22.739 speedup

normal termination of xtb
