      -----------------------------------------------------------      
     |                   =====================                   |     
     |                           x T B                           |     
     |                   =====================                   |     
     |                         S. Grimme                         |     
     |          Mulliken Center for Theoretical Chemistry        |     
     |                    University of Bonn                     |     
      -----------------------------------------------------------      

   * xtb version 6.7.1 (edcfbbe) compiled by 'albert@albert-system' on 2024-07-22

   xtb is free software: you can redistribute it and/or modify it under
   the terms of the GNU Lesser General Public License as published by
   the Free Software Foundation, either version 3 of the License, or
   (at your option) any later version.
   
   xtb is distributed in the hope that it will be useful,
   but WITHOUT ANY WARRANTY; without even the implied warranty of
   MERCHANTABILITY or FITNESS FOR A PARTICULAR PURPOSE.  See the
   GNU Lesser General Public License for more details.
   
   Cite this work as:
   * C. Bannwarth, E. Caldeweyher, S. Ehlert, A. Hansen, P. Pracht,
     J. Seibert, S. Spicher, S. Grimme, WIREs Comput. Mol. Sci., 2020, 11,
     e01493. DOI: 10.1002/wcms.1493
   
   for GFN2-xTB:
   * C. Bannwarth, S. Ehlert and S. Grimme., J. Chem. Theory Comput., 2019,
     15, 1652-1671. DOI: 10.1021/acs.jctc.8b01176
   for GFN1-xTB:
   * S. Grimme, C. Bannwarth, P. Shushkov, J. Chem. Theory Comput., 2017,
     13, 1989-2009. DOI: 10.1021/acs.jctc.7b00118
   for GFN0-xTB:
   * P. Pracht, E. Caldeweyher, S. Ehlert, S. Grimme, ChemRxiv, 2019, preprint.
     DOI: 10.26434/chemrxiv.8326202.v1
   for GFN-FF:
   * S. Spicher and S. Grimme, Angew. Chem. Int. Ed., 2020, 59, 15665-15673.
     DOI: 10.1002/anie.202004239
   
   for ALPB and GBSA implicit solvation:
   * S. Ehlert, M. Stahn, S. Spicher, S. Grimme, J. Chem. Theory Comput.,
     2021, 17, 4250-4261. DOI: 10.1021/acs.jctc.1c00471
   
   for ddCOSMO and CPCM-X implicit solvation:
   * M. Stahn, S. Ehlert, S. Grimme, J. Phys. Chem. A,
     2023, XX, XXXX-XXXX. DOI: 10.1021/acs.jpca.3c04382
   
   for DFT-D4:
   * E. Caldeweyher, C. Bannwarth and S. Grimme, J. Chem. Phys., 2017,
     147, 034112. DOI: 10.1063/1.4993215
   * E. Caldeweyher, S. Ehlert, A. Hansen, H. Neugebauer, S. Spicher,
     C. Bannwarth and S. Grimme, J. Chem. Phys., 2019, 150, 154122.
     DOI: 10.1063/1.5090222
   * E. Caldeweyher, J.-M. Mewes, S. Ehlert and S. Grimme, Phys. Chem. Chem. Phys.
     2020, 22, 8499-8512. DOI: 10.1039/D0CP00502A
   
   for sTDA-xTB:
   * S. Grimme and C. Bannwarth, J. Chem. Phys., 2016, 145, 054103.
     DOI: 10.1063/1.4959605
   
   in the mass-spec context:
   * V. Asgeirsson, C. Bauer and S. Grimme, Chem. Sci., 2017, 8, 4879.
     DOI: 10.1039/c7sc00601b
   * J. Koopman and S. Grimme, ACS Omega 2019, 4, 12, 15120-15133.
     DOI: 10.1021/acsomega.9b02011
   
   for metadynamics refer to:
   * S. Grimme, J. Chem. Theory Comput., 2019, 155, 2847-2862
     DOI: 10.1021/acs.jctc.9b00143
   
   for SPH calculations refer to:
   * S. Spicher and S. Grimme, J. Chem. Theory Comput., 2021, 17, 1701-1714
     DOI: 10.1021/acs.jctc.0c01306
   
   for ONIOM refer to:
   * C. Plett, A. Katbashev, S. Ehlert, S. Grimme, M. Bursch,
     Phys. Chem. Chem. Phys., 2023, 25, 17860-17868. DOI: 10.1039/D3CP02178E
   
   for DIPRO refer to:
   * J. Kohn, N. Gildemeister, S. Grimme, D. Fazzi, A. Hansen,
     J. Chem. Phys., 2023, just accepted.
   
   for PTB refer to:
   * S. Grimme, M. Mueller, A. Hansen, J. Chem. Phys., 2023, 158, 124111.
     DOI: 10.1063/5.0137838
   
   with help from (in alphabetical order)
   P. Atkinson, C. Bannwarth, F. Bohle, G. Brandenburg, E. Caldeweyher
   M. Checinski, S. Dohm, S. Ehlert, S. Ehrlich, I. Gerasimov, C. Hölzer
   A. Katbashev, J. Kohn, J. Koopman, C. Lavigne, S. Lehtola, F. März, M. Müller,
   F. Musil, H. Neugebauer, J. Pisarek, C. Plett, P. Pracht, F. Pultar,
   J. Seibert, P. Shushkov, S. Spicher, M. Stahn, M. Steiner, T. Strunk,
   J. Stückrath, T. Rose, and J. Unsleber
   
 * started run on 2025/12/01 at 14:17:36.066     
   ID    Z sym.   atoms
    1   35 Br     1, 4, 6, 15, 17
    2    6 C      2, 3, 5, 7, 8, 10, 12-14, 16
    3    8 O      9, 11
    4    1 H      18-22

           -------------------------------------------------
          |                Calculation Setup                |
           -------------------------------------------------

          program call               : xtb pipeline_data/3_conformer_xyz/acrylates/rdkit/GRKDVZMVHOLESV-UHFFFAOYSA-N_conf237.xyz --opt --gfn 2-xTB --iterations 250
          coordinate file            : pipeline_data/3_conformer_xyz/acrylates/rdkit/GRKDVZMVHOLESV-UHFFFAOYSA-N_conf237.xyz
          omp threads                :                    24

########################################################################
[WARNING] Please study the warnings concerning your input carefully
-1- readin_getIntValue: could not parse '2-xTB'
########################################################################

           -------------------------------------------------
          |                 G F N 2 - x T B                 |
           -------------------------------------------------

        Reference                      10.1021/acs.jctc.8b01176
      * Hamiltonian:
        H0-scaling (s, p, d)           1.850000    2.230000    2.230000
        zeta-weighting                 0.500000
      * Dispersion:
        s8                             2.700000
        a1                             0.520000
        a2                             5.000000
        s9                             5.000000
      * Repulsion:
        kExp                           1.500000    1.000000
        rExp                           1.000000
      * Coulomb:
        alpha                          2.000000
        third order                    shell-resolved
        anisotropic                    true
        a3                             3.000000
        a5                             4.000000
        cn-shift                       1.200000
        cn-exp                         4.000000
        max-rad                        5.000000


          ...................................................
          :                      SETUP                      :
          :.................................................:
          :  # basis functions                 103          :
          :  # atomic orbitals                  98          :
          :  # shells                           44          :
          :  # electrons                        92          :
          :  max. iterations                   250          :
          :  Hamiltonian                  GFN2-xTB          :
          :  restarted?                      false          :
          :  GBSA solvation                  false          :
          :  PC potential                    false          :
          :  electronic temp.          300.0000000     K    :
          :  accuracy                    1.0000000          :
          :  -> integral cutoff          0.2500000E+02      :
          :  -> integral neglect         0.1000000E-07      :
          :  -> SCF convergence          0.1000000E-05 Eh   :
          :  -> wf. convergence          0.1000000E-03 e    :
          :  Broyden damping             0.4000000          :
          :  net charge                          0          :
          :  unpaired electrons                  0          :
          ...................................................

 iter      E             dE          RMSdq      gap      omega  full diag
   1    -52.7170161 -0.527170E+02  0.663E+00    3.35       0.0  T
   2    -52.8277872 -0.110771E+00  0.483E+00    2.27       1.0  T
   3    -52.8638572 -0.360700E-01  0.216E+00    3.27       1.0  T
   4    -52.8906303 -0.267731E-01  0.632E-01    2.97       1.0  T
   5    -52.8914191 -0.788780E-03  0.511E-01    3.03       1.0  T
   6    -52.8926631 -0.124400E-02  0.247E-01    3.00       1.0  T
   7    -52.8930045 -0.341426E-03  0.124E-01    2.97       1.0  T
   8    -52.8930418 -0.372952E-04  0.837E-02    2.95       1.0  T
   9    -52.8930588 -0.170199E-04  0.335E-02    2.96       1.0  T
  10    -52.8930756 -0.167447E-04  0.120E-02    2.96       1.8  T
  11    -52.8930761 -0.526915E-06  0.794E-03    2.96       2.7  T
  12    -52.8930762 -0.127255E-06  0.483E-03    2.96       4.4  T
  13    -52.8930763 -0.839657E-07  0.330E-03    2.96       6.5  T
  14    -52.8930764 -0.516153E-07  0.194E-03    2.96      11.0  T
  15    -52.8930764 -0.159347E-07  0.841E-04    2.96      25.4  T
  16    -52.8930764 -0.588685E-08  0.483E-04    2.96      44.1  T

   *** convergence criteria satisfied after 16 iterations ***

         #    Occupation            Energy/Eh            Energy/eV
      -------------------------------------------------------------
         1        2.0000           -0.8816232             -23.9902
       ...           ...                  ...                  ...
        40        2.0000           -0.4539920             -12.3538
        41        2.0000           -0.4517640             -12.2931
        42        2.0000           -0.4473447             -12.1729
        43        2.0000           -0.4405033             -11.9867
        44        2.0000           -0.4384658             -11.9313
        45        2.0000           -0.4361310             -11.8677
        46        2.0000           -0.4300484             -11.7022 (HOMO)
        47                         -0.3213528              -8.7445 (LUMO)
        48                         -0.3194309              -8.6922
        49                         -0.3097354              -8.4283
        50                         -0.2958308              -8.0500
        51                         -0.2630630              -7.1583
       ...                                ...                  ...
        98                          0.5664171              15.4130
      -------------------------------------------------------------
                  HL-Gap            0.1086955 Eh            2.9578 eV
             Fermi-level           -0.3757006 Eh          -10.2233 eV

 SCC (total)                   0 d,  0 h,  0 min,  0.097 sec
 SCC setup                      ...        0 min,  0.000 sec (  0.438%)
 Dispersion                     ...        0 min,  0.000 sec (  0.298%)
 classical contributions        ...        0 min,  0.000 sec (  0.307%)
 integral evaluation            ...        0 min,  0.006 sec (  6.070%)
 iterations                     ...        0 min,  0.083 sec ( 85.001%)
 molecular gradient             ...        0 min,  0.007 sec (  7.325%)
 printout                       ...        0 min,  0.001 sec (  0.526%)

         :::::::::::::::::::::::::::::::::::::::::::::::::::::
         ::                     SUMMARY                     ::
         :::::::::::::::::::::::::::::::::::::::::::::::::::::
         :: total energy             -52.454708353116 Eh    ::
         :: gradient norm              0.152698926070 Eh/a0 ::
         :: HOMO-LUMO gap              2.957756434517 eV    ::
         ::.................................................::
         :: SCC energy               -52.892853298476 Eh    ::
         :: -> isotropic ES            0.058536451931 Eh    ::
         :: -> anisotropic ES          0.005647101015 Eh    ::
         :: -> anisotropic XC          0.009020862510 Eh    ::
         :: -> dispersion             -0.033913279210 Eh    ::
         :: repulsion energy           0.438144945360 Eh    ::
         :: add. restraining           0.000000000000 Eh    ::
         :: total charge               0.000000000000 e     ::
         :::::::::::::::::::::::::::::::::::::::::::::::::::::

      ----------------------------------------------------------- 
     |                   =====================                   |
     |                        A N C O P T                        |
     |                   =====================                   |
     |               Approximate Normal Coordinate               |
     |                Rational Function Optimizer                |
      ----------------------------------------------------------- 
      ----------------------------------------------------------- 
     |                   =====================                   |
     |                        A N C O P T                        |
     |                   =====================                   |
     |               Approximate Normal Coordinate               |
     |                Rational Function Optimizer                |
      ----------------------------------------------------------- 

          ...................................................
          :                      SETUP                      :
          :.................................................:
          :   optimization level            normal          :
          :   max. optcycles                   200          :
          :   ANC micro-cycles                  20          :
          :   degrees of freedom                60          :
          :.................................................:
          :   RF solver                   davidson          :
          :   write xtbopt.log                true          :
          :   linear?                        false          :
          :   energy convergence         0.5000000E-05 Eh   :
          :   grad. convergence          0.1000000E-02 Eh/α :
          :   maxmium RF displ.          1.0000000          :
          :   Hlow (freq-cutoff)         0.1000000E-01      :
          :   Hmax (freq-cutoff)         5.0000000          :
          :   S6 in model hess.         20.0000000          :
          ...................................................

generating ANC from exact Hessian ...
Using Lindh-Hessian (1995)
 Shifting diagonal of input Hessian by   9.477504010467560E-003
 Lowest  eigenvalues of input Hessian
    0.000000    0.000000    0.000000    0.000000    0.000000    0.000000
    0.010000    0.010428    0.010479    0.010977    0.012525    0.012973
    0.013522    0.014006    0.014379    0.015319    0.015815    0.022020
 Highest eigenvalues
    1.741929    1.743697    1.802582    1.843335    1.916988    2.104287
 

........................................................................
.............................. CYCLE    1 ..............................
........................................................................

 iter      E             dE          RMSdq      gap      omega  full diag
   1    -52.8930764 -0.528931E+02  0.302E-04    2.96       0.0  T
   2    -52.8930764 -0.164881E-09  0.249E-04    2.96      85.5  T
   3    -52.8930764 -0.138691E-09  0.207E-04    2.96     103.1  T
     SCC iter.                  ...        0 min,  0.010 sec
     gradient                   ...        0 min,  0.005 sec
 * total energy  :   -52.4547084 Eh     change       -0.1182286E-08 Eh
   gradient norm :     0.1526977 Eh/α   predicted     0.0000000E+00 (-100.00%)
   displ. norm   :     0.3180859 α      lambda       -0.2185970E-01
   maximum displ.:     0.1021207 α      in ANC's #19, #18, #12, ...

........................................................................
.............................. CYCLE    2 ..............................
........................................................................

 iter      E             dE          RMSdq      gap      omega  full diag
   1    -52.9245666 -0.529246E+02  0.378E-01    2.98       0.0  T
   2    -52.9249038 -0.337213E-03  0.247E-01    3.09       1.0  T
   3    -52.9248067  0.970944E-04  0.134E-01    3.09       1.0  T
   4    -52.9249541 -0.147401E-03  0.715E-02    3.11       1.0  T
   5    -52.9249897 -0.355825E-04  0.428E-02    3.11       1.0  T
   6    -52.9249913 -0.162579E-05  0.271E-02    3.10       1.0  T
   7    -52.9249945 -0.314887E-05  0.113E-02    3.10       1.9  T
   8    -52.9249948 -0.370416E-06  0.636E-03    3.10       3.4  T
   9    -52.9249953 -0.457248E-06  0.283E-03    3.10       7.5  T
  10    -52.9249953 -0.171234E-07  0.209E-03    3.10      10.2  T
  11    -52.9249953 -0.169672E-07  0.129E-03    3.10      16.6  T
  12    -52.9249953 -0.659819E-08  0.681E-04    3.10      31.3  T
  13    -52.9249953 -0.343665E-08  0.365E-04    3.10      58.4  T
     SCC iter.                  ...        0 min,  0.055 sec
     gradient                   ...        0 min,  0.005 sec
 * total energy  :   -52.4699291 Eh     change       -0.1522076E-01 Eh
   gradient norm :     0.0677006 Eh/α   predicted    -0.1205576E-01 ( -20.79%)
   displ. norm   :     0.3885037 α      lambda       -0.9307403E-02
   maximum displ.:     0.1741070 α      in ANC's #3, #1, #8, ...

........................................................................
.............................. CYCLE    3 ..............................
........................................................................

 iter      E             dE          RMSdq      gap      omega  full diag
   1    -52.9426769 -0.529427E+02  0.408E-01    3.06       0.0  T
   2    -52.9430449 -0.368031E-03  0.258E-01    3.14       1.0  T
   3    -52.9429717  0.732200E-04  0.132E-01    3.12       1.0  T
   4    -52.9430740 -0.102285E-03  0.741E-02    3.14       1.0  T
   5    -52.9431165 -0.424937E-04  0.430E-02    3.14       1.0  T
   6    -52.9431175 -0.104918E-05  0.259E-02    3.13       1.0  T
   7    -52.9431212 -0.370163E-05  0.104E-02    3.14       2.1  T
   8    -52.9431214 -0.180653E-06  0.559E-03    3.14       3.8  T
   9    -52.9431218 -0.407217E-06  0.262E-03    3.14       8.1  T
  10    -52.9431218 -0.123218E-07  0.180E-03    3.14      11.9  T
  11    -52.9431219 -0.763192E-08  0.119E-03    3.14      17.9  T
  12    -52.9431219 -0.966860E-08  0.508E-04    3.14      42.0  T
  13    -52.9431219 -0.766249E-09  0.299E-04    3.14      71.3  T
     SCC iter.                  ...        0 min,  0.062 sec
     gradient                   ...        0 min,  0.005 sec
 * total energy  :   -52.4719911 Eh     change       -0.2061958E-02 Eh
   gradient norm :     0.0377901 Eh/α   predicted    -0.5356129E-02 ( 159.76%)
   displ. norm   :     0.3723583 α      lambda       -0.4925558E-02
   maximum displ.:     0.2352301 α      in ANC's #3, #1, #2, ...

........................................................................
.............................. CYCLE    4 ..............................
........................................................................

 iter      E             dE          RMSdq      gap      omega  full diag
   1    -52.9409377 -0.529409E+02  0.231E-01    3.13       0.0  T
   2    -52.9409678 -0.301615E-04  0.159E-01    3.14       1.0  T
   3    -52.9409505  0.172765E-04  0.808E-02    3.14       1.0  T
   4    -52.9409878 -0.372077E-04  0.503E-02    3.14       1.0  T
   5    -52.9409958 -0.808660E-05  0.216E-02    3.14       1.0  T
   6    -52.9409989 -0.301999E-05  0.822E-03    3.14       2.6  T
   7    -52.9409990 -0.187014E-06  0.522E-03    3.14       4.1  T
   8    -52.9409992 -0.129745E-06  0.317E-03    3.14       6.7  T
   9    -52.9409992 -0.387354E-07  0.223E-03    3.14       9.5  T
  10    -52.9409992 -0.113747E-07  0.162E-03    3.14      13.1  T
  11    -52.9409992 -0.160473E-07  0.725E-04    3.14      29.4  T
  12    -52.9409992 -0.287908E-08  0.260E-04    3.14      82.1  T
     SCC iter.                  ...        0 min,  0.063 sec
     gradient                   ...        0 min,  0.005 sec
 * total energy  :   -52.4729894 Eh     change       -0.9983331E-03 Eh
   gradient norm :     0.0244074 Eh/α   predicted    -0.2804248E-02 ( 180.89%)
   displ. norm   :     0.2353958 α      lambda       -0.2526942E-02
   maximum displ.:     0.1321343 α      in ANC's #3, #1, #8, ...

........................................................................
.............................. CYCLE    5 ..............................
........................................................................

 iter      E             dE          RMSdq      gap      omega  full diag
   1    -52.9353184 -0.529353E+02  0.186E-01    3.15       0.0  T
   2    -52.9353931 -0.746937E-04  0.121E-01    3.14       1.0  T
   3    -52.9353792  0.138228E-04  0.722E-02    3.15       1.0  T
   4    -52.9354037 -0.244542E-04  0.447E-02    3.15       1.0  T
   5    -52.9354146 -0.108879E-04  0.256E-02    3.14       1.0  T
   6    -52.9354151 -0.513916E-06  0.128E-02    3.15       1.7  T
   7    -52.9354164 -0.131618E-05  0.673E-03    3.15       3.2  T
   8    -52.9354165 -0.500511E-07  0.434E-03    3.15       4.9  T
   9    -52.9354166 -0.142772E-06  0.289E-03    3.15       7.4  T
  10    -52.9354166 -0.281490E-07  0.175E-03    3.15      12.2  T
  11    -52.9354166 -0.810856E-08  0.906E-04    3.15      23.5  T
  12    -52.9354167 -0.880504E-08  0.327E-04    3.15      65.2  T
     SCC iter.                  ...        0 min,  0.038 sec
     gradient                   ...        0 min,  0.005 sec
 * total energy  :   -52.4735216 Eh     change       -0.5321991E-03 Eh
   gradient norm :     0.0181505 Eh/α   predicted    -0.1333491E-02 ( 150.56%)
   displ. norm   :     0.2059101 α      lambda       -0.1296093E-02
   maximum displ.:     0.1260936 α      in ANC's #8, #9, #7, ...

........................................................................
.............................. CYCLE    6 ..............................
........................................................................

 iter      E             dE          RMSdq      gap      omega  full diag
   1    -52.9375738 -0.529376E+02  0.127E-01    3.14       0.0  T
   2    -52.9375833 -0.945252E-05  0.811E-02    3.14       1.0  T
   3    -52.9375797  0.361045E-05  0.437E-02    3.13       1.0  T
   4    -52.9375885 -0.883284E-05  0.306E-02    3.13       1.0  T
   5    -52.9375913 -0.280773E-05  0.142E-02    3.13       1.5  T
   6    -52.9375922 -0.894578E-06  0.680E-03    3.13       3.1  T
   7    -52.9375925 -0.233810E-06  0.440E-03    3.13       4.9  T
   8    -52.9375925 -0.519704E-07  0.281E-03    3.13       7.6  T
   9    -52.9375925 -0.310696E-07  0.199E-03    3.13      10.7  T
  10    -52.9375925 -0.108982E-07  0.131E-03    3.13      16.3  T
  11    -52.9375926 -0.970562E-08  0.621E-04    3.13      34.3  T
  12    -52.9375926 -0.267291E-08  0.202E-04    3.13     105.3  T
     SCC iter.                  ...        0 min,  0.030 sec
     gradient                   ...        0 min,  0.005 sec
 * total energy  :   -52.4737018 Eh     change       -0.1801539E-03 Eh
   gradient norm :     0.0105342 Eh/α   predicted    -0.6755262E-03 ( 274.97%)
   displ. norm   :     0.1334461 α      lambda       -0.7507059E-03
   maximum displ.:     0.0820490 α      in ANC's #9, #5, #7, ...

........................................................................
.............................. CYCLE    7 ..............................
........................................................................

 iter      E             dE          RMSdq      gap      omega  full diag
   1    -52.9408660 -0.529409E+02  0.963E-02    3.14       0.0  T
   2    -52.9408810 -0.150424E-04  0.600E-02    3.14       1.0  T
   3    -52.9408786  0.240311E-05  0.343E-02    3.14       1.0  T
   4    -52.9408838 -0.519118E-05  0.226E-02    3.14       1.0  T
   5    -52.9408859 -0.215103E-05  0.138E-02    3.14       1.5  T
   6    -52.9408863 -0.330679E-06  0.665E-03    3.14       3.2  T
   7    -52.9408866 -0.327988E-06  0.363E-03    3.14       5.9  T
   8    -52.9408866 -0.112780E-07  0.233E-03    3.14       9.2  T
   9    -52.9408866 -0.376780E-07  0.150E-03    3.14      14.2  T
  10    -52.9408867 -0.732451E-08  0.909E-04    3.14      23.5  T
  11    -52.9408867 -0.270493E-08  0.468E-04    3.14      45.5  T
     SCC iter.                  ...        0 min,  0.019 sec
     gradient                   ...        0 min,  0.004 sec
 * total energy  :   -52.4739553 Eh     change       -0.2535613E-03 Eh
   gradient norm :     0.0090103 Eh/α   predicted    -0.3820389E-03 (  50.67%)
   displ. norm   :     0.0881102 α      lambda       -0.2259666E-03
   maximum displ.:     0.0451427 α      in ANC's #8, #12, #4, ...

........................................................................
.............................. CYCLE    8 ..............................
........................................................................

 iter      E             dE          RMSdq      gap      omega  full diag
   1    -52.9399075 -0.529399E+02  0.564E-02    3.14       0.0  T
   2    -52.9399109 -0.344234E-05  0.328E-02    3.14       1.0  T
   3    -52.9399098  0.108777E-05  0.179E-02    3.14       1.2  T
   4    -52.9399120 -0.214549E-05  0.122E-02    3.14       1.7  T
   5    -52.9399125 -0.506468E-06  0.814E-03    3.14       2.6  T
   6    -52.9399126 -0.156126E-06  0.413E-03    3.14       5.2  T
   7    -52.9399128 -0.115665E-06  0.233E-03    3.14       9.2  T
   8    -52.9399128 -0.551066E-08  0.138E-03    3.14      15.4  T
   9    -52.9399128 -0.154654E-07  0.854E-04    3.14      25.0  T
  10    -52.9399128 -0.192601E-08  0.608E-04    3.14      35.1  T
     SCC iter.                  ...        0 min,  0.018 sec
     gradient                   ...        0 min,  0.005 sec
 * total energy  :   -52.4740135 Eh     change       -0.5816943E-04 Eh
   gradient norm :     0.0025856 Eh/α   predicted    -0.1138615E-03 (  95.74%)
   displ. norm   :     0.0532622 α      lambda       -0.9168153E-04
   maximum displ.:     0.0298350 α      in ANC's #8, #2, #1, ...

........................................................................
.............................. CYCLE    9 ..............................
........................................................................

 iter      E             dE          RMSdq      gap      omega  full diag
   1    -52.9393462 -0.529393E+02  0.348E-02    3.14       0.0  T
   2    -52.9393472 -0.107474E-05  0.197E-02    3.14       1.1  T
   3    -52.9393468  0.470322E-06  0.950E-03    3.14       2.2  T
   4    -52.9393475 -0.770701E-06  0.605E-03    3.14       3.5  T
   5    -52.9393477 -0.132465E-06  0.390E-03    3.14       5.5  T
   6    -52.9393477 -0.328904E-07  0.201E-03    3.14      10.6  T
   7    -52.9393477 -0.253616E-07  0.116E-03    3.14      18.4  T
   8    -52.9393477 -0.106909E-08  0.661E-04    3.14      32.3  T
   9    -52.9393477 -0.394984E-08  0.400E-04    3.14      53.3  T
     SCC iter.                  ...        0 min,  0.030 sec
     gradient                   ...        0 min,  0.006 sec
 * total energy  :   -52.4740583 Eh     change       -0.4479036E-04 Eh
   gradient norm :     0.0030410 Eh/α   predicted    -0.4597840E-04 (   2.65%)
   displ. norm   :     0.0512806 α      lambda       -0.3063400E-04
   maximum displ.:     0.0362753 α      in ANC's #2, #4, #10, ...

........................................................................
.............................. CYCLE   10 ..............................
........................................................................

 iter      E             dE          RMSdq      gap      omega  full diag
   1    -52.9399714 -0.529400E+02  0.272E-02    3.14       0.0  T
   2    -52.9399718 -0.423485E-06  0.141E-02    3.14       1.5  T
   3    -52.9399716  0.230280E-06  0.510E-03    3.14       4.2  T
   4    -52.9399719 -0.296209E-06  0.266E-03    3.14       8.0  T
   5    -52.9399719 -0.383835E-07  0.157E-03    3.14      13.6  T
   6    -52.9399719 -0.481921E-08  0.954E-04    3.14      22.4  T
   7    -52.9399720 -0.258302E-08  0.682E-04    3.14      31.3  T
     SCC iter.                  ...        0 min,  0.016 sec
     gradient                   ...        0 min,  0.005 sec
 * total energy  :   -52.4740820 Eh     change       -0.2367075E-04 Eh
   gradient norm :     0.0008024 Eh/α   predicted    -0.1535926E-04 ( -35.11%)
   displ. norm   :     0.2597857 α      lambda       -0.6671614E-04
   maximum displ.:     0.1850831 α      in ANC's #2, #4, #10, ...

........................................................................
.............................. CYCLE   11 ..............................
........................................................................

 iter      E             dE          RMSdq      gap      omega  full diag
   1    -52.9409244 -0.529409E+02  0.134E-01    3.14       0.0  T
   2    -52.9409274 -0.296946E-05  0.671E-02    3.14       1.0  T
   3    -52.9409264  0.101056E-05  0.140E-02    3.14       1.5  T
   4    -52.9409280 -0.164016E-05  0.833E-03    3.14       2.6  T
   5    -52.9409284 -0.344807E-06  0.366E-03    3.14       5.8  T
   6    -52.9409284 -0.356331E-07  0.249E-03    3.14       8.6  T
   7    -52.9409284 -0.112054E-07  0.183E-03    3.14      11.6  T
   8    -52.9409284 -0.956832E-08  0.712E-04    3.14      29.9  T
   9    -52.9409284 -0.630730E-08  0.377E-04    3.14      56.6  T
     SCC iter.                  ...        0 min,  0.016 sec
     gradient                   ...        0 min,  0.005 sec
 * total energy  :   -52.4741552 Eh     change       -0.7322977E-04 Eh
   gradient norm :     0.0048592 Eh/α   predicted    -0.3436228E-04 ( -53.08%)
   displ. norm   :     0.2011915 α      lambda       -0.6983241E-04
   maximum displ.:     0.1371933 α      in ANC's #2, #4, #1, ...

........................................................................
.............................. CYCLE   12 ..............................
........................................................................

 iter      E             dE          RMSdq      gap      omega  full diag
   1    -52.9405859 -0.529406E+02  0.108E-01    3.14       0.0  T
   2    -52.9405872 -0.137650E-05  0.534E-02    3.14       1.0  T
   3    -52.9405870  0.231039E-06  0.911E-03    3.14       2.3  T
   4    -52.9405876 -0.547312E-06  0.607E-03    3.14       3.5  T
   5    -52.9405878 -0.244058E-06  0.249E-03    3.14       8.6  T
   6    -52.9405878 -0.159469E-07  0.192E-03    3.14      11.1  T
   7    -52.9405878 -0.102636E-07  0.963E-04    3.14      22.1  T
   8    -52.9405878 -0.417852E-08  0.428E-04    3.14      49.8  T
     SCC iter.                  ...        0 min,  0.014 sec
     gradient                   ...        0 min,  0.005 sec
 * total energy  :   -52.4742174 Eh     change       -0.6223555E-04 Eh
   gradient norm :     0.0035458 Eh/α   predicted    -0.3633223E-04 ( -41.62%)
   displ. norm   :     0.4502180 α      lambda       -0.1490452E-03
   maximum displ.:     0.2959362 α      in ANC's #2, #4, #1, ...

........................................................................
.............................. CYCLE   13 ..............................
........................................................................

 iter      E             dE          RMSdq      gap      omega  full diag
   1    -52.9392314 -0.529392E+02  0.246E-01    3.14       0.0  T
   2    -52.9392384 -0.696136E-05  0.122E-01    3.14       1.0  T
   3    -52.9392375  0.861885E-06  0.207E-02    3.14       1.0  T
   4    -52.9392399 -0.242114E-05  0.137E-02    3.14       1.6  T
   5    -52.9392412 -0.125111E-05  0.548E-03    3.14       3.9  T
   6    -52.9392412 -0.747292E-07  0.425E-03    3.14       5.0  T
   7    -52.9392413 -0.475908E-07  0.193E-03    3.14      11.0  T
   8    -52.9392413 -0.220374E-07  0.894E-04    3.14      23.8  T
   9    -52.9392413 -0.516837E-08  0.619E-04    3.14      34.5  T
     SCC iter.                  ...        0 min,  0.017 sec
     gradient                   ...        0 min,  0.005 sec
 * total energy  :   -52.4743307 Eh     change       -0.1132733E-03 Eh
   gradient norm :     0.0022766 Eh/α   predicted    -0.8962915E-04 ( -20.87%)
   displ. norm   :     0.4475198 α      lambda       -0.1180472E-03
   maximum displ.:     0.2862642 α      in ANC's #2, #4, #1, ...

........................................................................
.............................. CYCLE   14 ..............................
........................................................................

 iter      E             dE          RMSdq      gap      omega  full diag
   1    -52.9379440 -0.529379E+02  0.255E-01    3.14       0.0  T
   2    -52.9379515 -0.754640E-05  0.127E-01    3.14       1.0  T
   3    -52.9379517 -0.153613E-06  0.202E-02    3.14       1.1  T
   4    -52.9379530 -0.134746E-05  0.139E-02    3.14       1.5  T
   5    -52.9379544 -0.139391E-05  0.585E-03    3.14       3.6  T
   6    -52.9379545 -0.902152E-07  0.455E-03    3.14       4.7  T
   7    -52.9379546 -0.531316E-07  0.224E-03    3.14       9.5  T
   8    -52.9379546 -0.309274E-07  0.993E-04    3.14      21.5  T
   9    -52.9379546 -0.558811E-08  0.718E-04    3.14      29.7  T
     SCC iter.                  ...        0 min,  0.046 sec
     gradient                   ...        0 min,  0.005 sec
 * total energy  :   -52.4744068 Eh     change       -0.7605886E-04 Eh
   gradient norm :     0.0038271 Eh/α   predicted    -0.7084539E-04 (  -6.85%)
   displ. norm   :     0.2253997 α      lambda       -0.9817671E-04
   maximum displ.:     0.1245917 α      in ANC's #2, #4, #1, ...

........................................................................
.............................. CYCLE   15 ..............................
........................................................................

 iter      E             dE          RMSdq      gap      omega  full diag
   1    -52.9391401 -0.529391E+02  0.140E-01    3.14       0.0  T
   2    -52.9391421 -0.201606E-05  0.710E-02    3.14       1.0  T
   3    -52.9391425 -0.395716E-06  0.114E-02    3.14       1.9  T
   4    -52.9391424  0.685915E-07  0.795E-03    3.14       2.7  T
   5    -52.9391430 -0.509170E-06  0.354E-03    3.14       6.0  T
   6    -52.9391430 -0.185715E-07  0.284E-03    3.14       7.5  T
   7    -52.9391430 -0.353968E-07  0.103E-03    3.14      20.6  T
   8    -52.9391430 -0.681966E-08  0.604E-04    3.14      35.3  T
   9    -52.9391430 -0.138534E-08  0.489E-04    3.14      43.6  T
     SCC iter.                  ...        0 min,  0.046 sec
     gradient                   ...        0 min,  0.005 sec
 * total energy  :   -52.4744833 Eh     change       -0.7650216E-04 Eh
   gradient norm :     0.0036919 Eh/α   predicted    -0.5158549E-04 ( -32.57%)
   displ. norm   :     0.2921025 α      lambda       -0.1135855E-03
   maximum displ.:     0.1509141 α      in ANC's #4, #1, #2, ...

........................................................................
.............................. CYCLE   16 ..............................
........................................................................

 iter      E             dE          RMSdq      gap      omega  full diag
   1    -52.9404010 -0.529404E+02  0.184E-01    3.14       0.0  T
   2    -52.9404045 -0.345011E-05  0.942E-02    3.14       1.0  T
   3    -52.9404052 -0.759760E-06  0.150E-02    3.14       1.4  T
   4    -52.9404045  0.767108E-06  0.107E-02    3.14       2.0  T
   5    -52.9404059 -0.146260E-05  0.470E-03    3.14       4.5  T
   6    -52.9404059 -0.342660E-07  0.343E-03    3.14       6.2  T
   7    -52.9404060 -0.203434E-07  0.165E-03    3.14      13.0  T
   8    -52.9404060 -0.290526E-07  0.706E-04    3.14      30.2  T
   9    -52.9404060 -0.955502E-09  0.549E-04    3.14      38.8  T
     SCC iter.                  ...        0 min,  0.046 sec
     gradient                   ...        0 min,  0.005 sec
 * total energy  :   -52.4745620 Eh     change       -0.7871211E-04 Eh
   gradient norm :     0.0028775 Eh/α   predicted    -0.6164237E-04 ( -21.69%)
   displ. norm   :     0.3329738 α      lambda       -0.6927569E-04
   maximum displ.:     0.1858966 α      in ANC's #4, #1, #2, ...

........................................................................
.............................. CYCLE   17 ..............................
........................................................................

 iter      E             dE          RMSdq      gap      omega  full diag
   1    -52.9396142 -0.529396E+02  0.204E-01    3.14       0.0  T
   2    -52.9396186 -0.439963E-05  0.103E-01    3.14       1.0  T
   3    -52.9396197 -0.108794E-05  0.156E-02    3.14       1.4  T
   4    -52.9396194  0.261443E-06  0.977E-03    3.14       2.2  T
   5    -52.9396202 -0.765268E-06  0.439E-03    3.14       4.9  T
   6    -52.9396202 -0.265364E-07  0.343E-03    3.14       6.2  T
   7    -52.9396202 -0.297123E-07  0.190E-03    3.14      11.2  T
   8    -52.9396203 -0.249692E-07  0.608E-04    3.14      35.1  T
   9    -52.9396203 -0.169113E-08  0.467E-04    3.14      45.6  T
     SCC iter.                  ...        0 min,  0.032 sec
     gradient                   ...        0 min,  0.005 sec
 * total energy  :   -52.4746081 Eh     change       -0.4613067E-04 Eh
   gradient norm :     0.0029439 Eh/α   predicted    -0.3847990E-04 ( -16.58%)
   displ. norm   :     0.2298831 α      lambda       -0.6686892E-04
   maximum displ.:     0.1300480 α      in ANC's #1, #3, #4, ...

........................................................................
.............................. CYCLE   18 ..............................
........................................................................

 iter      E             dE          RMSdq      gap      omega  full diag
   1    -52.9410958 -0.529411E+02  0.142E-01    3.15       0.0  T
   2    -52.9410978 -0.206837E-05  0.738E-02    3.15       1.0  T
   3    -52.9410979 -0.963911E-07  0.128E-02    3.15       1.7  T
   4    -52.9410979  0.315753E-07  0.934E-03    3.14       2.3  T
   5    -52.9410988 -0.881931E-06  0.379E-03    3.15       5.6  T
   6    -52.9410988 -0.236871E-07  0.293E-03    3.15       7.3  T
   7    -52.9410988 -0.206083E-07  0.116E-03    3.14      18.4  T
   8    -52.9410989 -0.121001E-07  0.618E-04    3.15      34.5  T
   9    -52.9410989 -0.197259E-08  0.447E-04    3.15      47.7  T
     SCC iter.                  ...        0 min,  0.028 sec
     gradient                   ...        0 min,  0.005 sec
 * total energy  :   -52.4746496 Eh     change       -0.4154186E-04 Eh
   gradient norm :     0.0023506 Eh/α   predicted    -0.3520613E-04 ( -15.25%)
   displ. norm   :     0.2405421 α      lambda       -0.4315102E-04
   maximum displ.:     0.1406579 α      in ANC's #4, #1, #3, ...

........................................................................
.............................. CYCLE   19 ..............................
........................................................................

 iter      E             dE          RMSdq      gap      omega  full diag
   1    -52.9401757 -0.529402E+02  0.143E-01    3.14       0.0  T
   2    -52.9401778 -0.211334E-05  0.723E-02    3.14       1.0  T
   3    -52.9401780 -0.128586E-06  0.116E-02    3.14       1.8  T
   4    -52.9401781 -0.178942E-06  0.804E-03    3.14       2.7  T
   5    -52.9401787 -0.544597E-06  0.304E-03    3.14       7.0  T
   6    -52.9401787 -0.913163E-08  0.238E-03    3.14       9.0  T
   7    -52.9401787 -0.263474E-07  0.768E-04    3.14      27.8  T
   8    -52.9401787 -0.295321E-08  0.386E-04    3.14      55.2  T
     SCC iter.                  ...        0 min,  0.021 sec
     gradient                   ...        0 min,  0.004 sec
 * total energy  :   -52.4746792 Eh     change       -0.2954545E-04 Eh
   gradient norm :     0.0021492 Eh/α   predicted    -0.2282665E-04 ( -22.74%)
   displ. norm   :     0.1956783 α      lambda       -0.4757434E-04
   maximum displ.:     0.1182049 α      in ANC's #3, #4, #1, ...

........................................................................
.............................. CYCLE   20 ..............................
........................................................................

 iter      E             dE          RMSdq      gap      omega  full diag
   1    -52.9408797 -0.529409E+02  0.114E-01    3.15       0.0  T
   2    -52.9408817 -0.205088E-05  0.586E-02    3.14       1.0  T
   3    -52.9408814  0.342508E-06  0.110E-02    3.15       1.9  T
   4    -52.9408822 -0.780395E-06  0.711E-03    3.14       3.0  T
   5    -52.9408824 -0.236181E-06  0.358E-03    3.14       6.0  T
   6    -52.9408825 -0.614958E-07  0.250E-03    3.14       8.5  T
   7    -52.9408825 -0.166275E-07  0.172E-03    3.14      12.4  T
   8    -52.9408825 -0.101378E-07  0.650E-04    3.14      32.8  T
   9    -52.9408825 -0.348393E-08  0.356E-04    3.14      59.8  T
     SCC iter.                  ...        0 min,  0.016 sec
     gradient                   ...        0 min,  0.004 sec
 * total energy  :   -52.4747073 Eh     change       -0.2807022E-04 Eh
   gradient norm :     0.0025402 Eh/α   predicted    -0.2469908E-04 ( -12.01%)
   displ. norm   :     0.1268428 α      lambda       -0.2492723E-04
   maximum displ.:     0.0797760 α      in ANC's #3, #4, #1, ...
 * RMSD in coord.:     0.6577001 α      energy gain  -0.1999890E-01 Eh

generating ANC from exact Hessian ...
Using Lindh-Hessian (1995)
 Shifting diagonal of input Hessian by   9.111445925338482E-003
 Lowest  eigenvalues of input Hessian
    0.000000    0.000000    0.000000    0.000000    0.000000    0.000000
    0.010000    0.010178    0.010760    0.012834    0.013769    0.013834
    0.014571    0.014871    0.015985    0.016666    0.018635    0.023271
 Highest eigenvalues
    1.763658    1.797765    1.810016    1.825139    1.945357    2.399789
 

........................................................................
.............................. CYCLE   21 ..............................
........................................................................

 iter      E             dE          RMSdq      gap      omega  full diag
   1    -52.9408154 -0.529408E+02  0.779E-02    3.14       0.0  T
   2    -52.9408162 -0.785131E-06  0.395E-02    3.14       1.0  T
   3    -52.9408156  0.604954E-06  0.841E-03    3.14       2.5  T
   4    -52.9408165 -0.887147E-06  0.506E-03    3.14       4.2  T
   5    -52.9408166 -0.119281E-06  0.236E-03    3.14       9.0  T
   6    -52.9408166 -0.128253E-07  0.176E-03    3.14      12.1  T
   7    -52.9408167 -0.741332E-08  0.102E-03    3.14      20.9  T
   8    -52.9408167 -0.539068E-08  0.432E-04    3.14      49.4  T
   9    -52.9408167 -0.132889E-08  0.297E-04    3.14      71.8  T
     SCC iter.                  ...        0 min,  0.016 sec
     gradient                   ...        0 min,  0.007 sec
 * total energy  :   -52.4747257 Eh     change       -0.1840227E-04 Eh
   gradient norm :     0.0022029 Eh/α   predicted     0.0000000E+00 (-100.00%)
   displ. norm   :     0.0288766 α      lambda       -0.1426186E-04
   maximum displ.:     0.0191017 α      in ANC's #2, #10, #11, ...

........................................................................
.............................. CYCLE   22 ..............................
........................................................................

 iter      E             dE          RMSdq      gap      omega  full diag
   1    -52.9408135 -0.529408E+02  0.181E-02    3.14       0.0  T
   2    -52.9408136 -0.501224E-07  0.102E-02    3.14       2.1  T
   3    -52.9408135  0.728764E-07  0.271E-03    3.14       7.9  T
   4    -52.9408136 -0.940347E-07  0.152E-03    3.14      14.0  T
   5    -52.9408136 -0.998323E-08  0.789E-04    3.14      27.0  T
   6    -52.9408136 -0.874543E-09  0.570E-04    3.14      37.4  T
     SCC iter.                  ...        0 min,  0.011 sec
     gradient                   ...        0 min,  0.004 sec
 * total energy  :   -52.4747386 Eh     change       -0.1293535E-04 Eh
   gradient norm :     0.0013032 Eh/α   predicted    -0.8717686E-05 ( -32.61%)
   displ. norm   :     0.1136829 α      lambda       -0.3284082E-04
   maximum displ.:     0.0731107 α      in ANC's #2, #11, #4, ...

........................................................................
.............................. CYCLE   23 ..............................
........................................................................

 iter      E             dE          RMSdq      gap      omega  full diag
   1    -52.9406713 -0.529407E+02  0.736E-02    3.14       0.0  T
   2    -52.9406721 -0.810217E-06  0.403E-02    3.14       1.0  T
   3    -52.9406716  0.561706E-06  0.101E-02    3.14       2.1  T
   4    -52.9406724 -0.877532E-06  0.646E-03    3.14       3.3  T
   5    -52.9406726 -0.171690E-06  0.337E-03    3.14       6.3  T
   6    -52.9406726 -0.312924E-07  0.241E-03    3.14       8.9  T
   7    -52.9406727 -0.185703E-07  0.130E-03    3.14      16.3  T
   8    -52.9406727 -0.597346E-08  0.537E-04    3.14      39.7  T
   9    -52.9406727 -0.815234E-09  0.412E-04    3.14      51.8  T
     SCC iter.                  ...        0 min,  0.016 sec
     gradient                   ...        0 min,  0.004 sec
 * total energy  :   -52.4747409 Eh     change       -0.2341946E-05 Eh
   gradient norm :     0.0031297 Eh/α   predicted    -0.1651569E-04 ( 605.21%)
   displ. norm   :     0.0338905 α      lambda       -0.3301341E-04
   maximum displ.:     0.0184936 α      in ANC's #2, #6, #7, ...

........................................................................
.............................. CYCLE   24 ..............................
........................................................................

 iter      E             dE          RMSdq      gap      omega  full diag
   1    -52.9406586 -0.529407E+02  0.272E-02    3.14       0.0  T
   2    -52.9406587 -0.162833E-06  0.151E-02    3.14       1.4  T
   3    -52.9406588 -0.884393E-07  0.531E-03    3.14       4.0  T
   4    -52.9406588  0.621532E-07  0.349E-03    3.14       6.1  T
   5    -52.9406589 -0.114061E-06  0.118E-03    3.14      18.1  T
   6    -52.9406589 -0.482652E-08  0.711E-04    3.14      30.0  T
   7    -52.9406589 -0.212174E-08  0.365E-04    3.14      58.5  T
     SCC iter.                  ...        0 min,  0.013 sec
     gradient                   ...        0 min,  0.004 sec
 * total energy  :   -52.4747556 Eh     change       -0.1469138E-04 Eh
   gradient norm :     0.0022610 Eh/α   predicted    -0.1652946E-04 (  12.51%)
   displ. norm   :     0.0310141 α      lambda       -0.2435474E-04
   maximum displ.:     0.0160784 α      in ANC's #7, #12, #10, ...

........................................................................
.............................. CYCLE   25 ..............................
........................................................................

 iter      E             dE          RMSdq      gap      omega  full diag
   1    -52.9407561 -0.529408E+02  0.253E-02    3.14       0.0  T
   2    -52.9407563 -0.190395E-06  0.146E-02    3.14       1.5  T
   3    -52.9407562  0.845661E-07  0.581E-03    3.14       3.7  T
   4    -52.9407563 -0.179950E-06  0.430E-03    3.14       5.0  T
   5    -52.9407564 -0.833688E-07  0.191E-03    3.14      11.1  T
   6    -52.9407564 -0.106713E-07  0.127E-03    3.14      16.8  T
   7    -52.9407565 -0.642007E-08  0.783E-04    3.14      27.2  T
   8    -52.9407565 -0.211892E-08  0.478E-04    3.14      44.6  T
     SCC iter.                  ...        0 min,  0.015 sec
     gradient                   ...        0 min,  0.004 sec
 * total energy  :   -52.4747612 Eh     change       -0.5614028E-05 Eh
   gradient norm :     0.0010945 Eh/α   predicted    -0.1218973E-04 ( 117.13%)
   displ. norm   :     0.0326342 α      lambda       -0.1535133E-04
   maximum displ.:     0.0199914 α      in ANC's #10, #2, #7, ...

........................................................................
.............................. CYCLE   26 ..............................
........................................................................

 iter      E             dE          RMSdq      gap      omega  full diag
   1    -52.9408310 -0.529408E+02  0.198E-02    3.14       0.0  T
   2    -52.9408312 -0.150662E-06  0.128E-02    3.14       1.7  T
   3    -52.9408312 -0.513052E-07  0.533E-03    3.14       4.0  T
   4    -52.9408312 -0.327994E-07  0.392E-03    3.14       5.4  T
   5    -52.9408313 -0.757522E-07  0.140E-03    3.14      15.2  T
   6    -52.9408313 -0.444822E-08  0.901E-04    3.14      23.7  T
   7    -52.9408313 -0.588447E-08  0.505E-04    3.14      42.2  T
     SCC iter.                  ...        0 min,  0.013 sec
     gradient                   ...        0 min,  0.004 sec
 * total energy  :   -52.4747636 Eh     change       -0.2398709E-05 Eh
   gradient norm :     0.0011788 Eh/α   predicted    -0.7681396E-05 ( 220.23%)
   displ. norm   :     0.0380628 α      lambda       -0.1275006E-04
   maximum displ.:     0.0230647 α      in ANC's #2, #3, #7, ...

........................................................................
.............................. CYCLE   27 ..............................
........................................................................

 iter      E             dE          RMSdq      gap      omega  full diag
   1    -52.9407538 -0.529408E+02  0.276E-02    3.14       0.0  T
   2    -52.9407540 -0.145474E-06  0.149E-02    3.14       1.4  T
   3    -52.9407540  0.700371E-08  0.450E-03    3.14       4.7  T
   4    -52.9407540 -0.625823E-07  0.350E-03    3.14       6.1  T
   5    -52.9407541 -0.610433E-07  0.160E-03    3.14      13.3  T
   6    -52.9407541 -0.533995E-08  0.113E-03    3.14      18.8  T
   7    -52.9407541 -0.583326E-08  0.546E-04    3.14      39.0  T
   8    -52.9407541 -0.971170E-09  0.331E-04    3.14      64.4  T
     SCC iter.                  ...        0 min,  0.015 sec
     gradient                   ...        0 min,  0.004 sec
 * total energy  :   -52.4747718 Eh     change       -0.8133187E-05 Eh
   gradient norm :     0.0006599 Eh/α   predicted    -0.6379625E-05 ( -21.56%)
   displ. norm   :     0.0404287 α      lambda       -0.7901078E-05
   maximum displ.:     0.0294835 α      in ANC's #2, #3, #12, ...

........................................................................
.............................. CYCLE   28 ..............................
........................................................................

 iter      E             dE          RMSdq      gap      omega  full diag
   1    -52.9406867 -0.529407E+02  0.300E-02    3.14       0.0  T
   2    -52.9406868 -0.124389E-06  0.156E-02    3.14       1.4  T
   3    -52.9406869 -0.494514E-07  0.327E-03    3.14       6.5  T
   4    -52.9406868  0.123412E-07  0.227E-03    3.14       9.4  T
   5    -52.9406869 -0.380118E-07  0.116E-03    3.14      18.4  T
   6    -52.9406869 -0.107413E-08  0.812E-04    3.14      26.2  T
   7    -52.9406869 -0.242323E-08  0.393E-04    3.14      54.3  T
     SCC iter.                  ...        0 min,  0.013 sec
     gradient                   ...        0 min,  0.004 sec
 * total energy  :   -52.4747771 Eh     change       -0.5332258E-05 Eh
   gradient norm :     0.0007007 Eh/α   predicted    -0.3956530E-05 ( -25.80%)
   displ. norm   :     0.0362340 α      lambda       -0.4772930E-05
   maximum displ.:     0.0262153 α      in ANC's #2, #3, #7, ...

........................................................................
.............................. CYCLE   29 ..............................
........................................................................

 iter      E             dE          RMSdq      gap      omega  full diag
   1    -52.9407169 -0.529407E+02  0.205E-02    3.14       0.0  T
   2    -52.9407169 -0.429404E-07  0.112E-02    3.14       1.9  T
   3    -52.9407169 -0.716663E-08  0.187E-03    3.14      11.4  T
   4    -52.9407169 -0.529646E-09  0.132E-03    3.14      16.2  T
   5    -52.9407169 -0.159248E-07  0.605E-04    3.14      35.2  T
   6    -52.9407169 -0.789584E-09  0.485E-04    3.14      43.9  T
     SCC iter.                  ...        0 min,  0.011 sec
     gradient                   ...        0 min,  0.004 sec
 * total energy  :   -52.4747821 Eh     change       -0.5011015E-05 Eh
   gradient norm :     0.0005169 Eh/α   predicted    -0.2391202E-05 ( -52.28%)
   displ. norm   :     0.0641366 α      lambda       -0.5813881E-05
   maximum displ.:     0.0455247 α      in ANC's #2, #3, #16, ...

........................................................................
.............................. CYCLE   30 ..............................
........................................................................

 iter      E             dE          RMSdq      gap      omega  full diag
   1    -52.9407152 -0.529407E+02  0.358E-02    3.14       0.0  T
   2    -52.9407153 -0.151547E-06  0.194E-02    3.14       1.1  T
   3    -52.9407154 -0.357049E-07  0.351E-03    3.14       6.1  T
   4    -52.9407154  0.709407E-08  0.249E-03    3.14       8.5  T
   5    -52.9407154 -0.584078E-07  0.121E-03    3.14      17.7  T
   6    -52.9407154 -0.399929E-08  0.894E-04    3.14      23.8  T
   7    -52.9407154 -0.143494E-08  0.405E-04    3.14      52.7  T
     SCC iter.                  ...        0 min,  0.013 sec
     gradient                   ...        0 min,  0.004 sec
 * total energy  :   -52.4747879 Eh     change       -0.5744403E-05 Eh
   gradient norm :     0.0005042 Eh/α   predicted    -0.2915219E-05 ( -49.25%)
   displ. norm   :     0.0639540 α      lambda       -0.3379417E-05
   maximum displ.:     0.0450607 α      in ANC's #2, #3, #16, ...

........................................................................
.............................. CYCLE   31 ..............................
........................................................................

 iter      E             dE          RMSdq      gap      omega  full diag
   1    -52.9406698 -0.529407E+02  0.390E-02    3.14       0.0  T
   2    -52.9406700 -0.171257E-06  0.206E-02    3.14       1.0  T
   3    -52.9406700 -0.219916E-07  0.356E-03    3.14       6.0  T
   4    -52.9406700  0.429875E-08  0.250E-03    3.14       8.5  T
   5    -52.9406701 -0.720881E-07  0.109E-03    3.14      19.6  T
   6    -52.9406701 -0.236334E-08  0.848E-04    3.14      25.1  T
   7    -52.9406701 -0.180356E-08  0.385E-04    3.14      55.3  T
     SCC iter.                  ...        0 min,  0.013 sec
     gradient                   ...        0 min,  0.004 sec
 * total energy  :   -52.4747907 Eh     change       -0.2880047E-05 Eh
   gradient norm :     0.0004709 Eh/α   predicted    -0.1693690E-05 ( -41.19%)
   displ. norm   :     0.0538312 α      lambda       -0.2392509E-05
   maximum displ.:     0.0368522 α      in ANC's #2, #3, #16, ...

   *** GEOMETRY OPTIMIZATION CONVERGED AFTER 31 ITERATIONS ***

------------------------------------------------------------------------
 total energy gain   :        -0.0200824 Eh      -12.6019 kcal/mol
 total RMSD          :         0.6574697 a0        0.3479 Å
 total power (kW/mol):        -1.7008483 (step)  -51.1324 (real)
------------------------------------------------------------------------

 ANCopt (total)                0 d,  0 h,  0 min,  1.031 sec
 optimizer setup                ...        0 min,  0.000 sec (  0.011%)
 model hessian                  ...        0 min,  0.009 sec (  0.911%)
 ANC generation                 ...        0 min,  0.002 sec (  0.226%)
 coordinate transformation      ...        0 min,  0.000 sec (  0.030%)
 single point calculation       ...        0 min,  1.003 sec ( 97.302%)
 optimization log               ...        0 min,  0.005 sec (  0.470%)
 hessian update                 ...        0 min,  0.006 sec (  0.596%)
 rational function              ...        0 min,  0.003 sec (  0.278%)

================
 final structure:
================
22
 xtb: 6.7.1 (edcfbbe)
Br          -4.89693901819370        0.83228147516825        1.74330878709860
C           -3.29624003832179        0.59795031428338        0.78673239088752
C           -2.54870648316421       -0.56569542074768        0.94983574310772
Br          -3.14484666381800       -1.90245679898858        2.12811179872282
C           -1.36423730960785       -0.73076566997643        0.23517900745726
Br          -0.39193175770866       -2.33142247596730        0.45935289382950
C           -0.90066183498318        0.25338742242741       -0.64040184931845
C            0.40303478196319        0.04294533694886       -1.35158955400210
O            1.42215808614116       -0.09562226904541       -0.37013273829191
C            2.57909324233096       -0.64074025760835       -0.80431610887108
O            2.75263880332437       -0.96038815929447       -1.95169552748267
C            3.57344749551948       -0.80000079573376        0.27231804180628
C            3.32556900422854       -0.56606474581846        1.55292634197218
C           -1.66115009290088        1.41185339684014       -0.79140450029619
Br          -1.11579928554418        2.79251020543256       -1.96044162808646
C           -2.85489721690909        1.58561849150217       -0.08961748410758
Br          -3.87220855366415        3.15051410946530       -0.31140088631586
H            0.64794771245052        0.88021229548534       -2.01110474083000
H            0.36989281415688       -0.86947930093906       -1.96470488137639
H            4.53369412947651       -1.15198037588957       -0.07553668804062
H            2.36043938964227       -0.22416194939404        1.88643570991263
H            4.07970179558183       -0.70849382815085        2.30814287222509
 
 Bond Distances (Angstroems)
 ---------------------------
Br1-C2=1.8794        C2-Br1=1.8794        C2-C3=1.3927         C2-C16=1.3922        C3-C2=1.3927         C3-Br4=1.8790        
C3-C5=1.3932         Br4-C3=1.8790        C5-C3=1.3932         C5-Br6=1.8862        C5-C7=1.3965         Br6-C5=1.8862        
C7-C5=1.3965         C7-C8=1.4999         C7-C14=1.3940        C8-C7=1.4999         C8-O9=1.4216         C8-H18=1.0936        
C8-H19=1.0998        O9-C8=1.4216         O9-C10=1.3506        C10-O9=1.3506        C10-O11=1.2036       C10-C12=1.4742       
O11-C10=1.2036       C12-C10=1.4742       C12-C13=1.3252       C12-H20=1.0803       C13-C12=1.3252       C13-H21=1.0768       
C13-H22=1.0767       C14-C7=1.3940        C14-Br15=1.8895      C14-C16=1.3956       Br15-C14=1.8895      C16-C2=1.3922        
C16-C14=1.3956       C16-Br17=1.8796      Br17-C16=1.8796      H18-C8=1.0936        H19-C8=1.0998        H20-C12=1.0803       
H21-C13=1.0768       H22-C13=1.0767       
 C  H  Rav=1.0854 sigma=0.0095  Rmin=1.0767  Rmax=1.0998     5
 C  C  Rav=1.4070 sigma=0.0481  Rmin=1.3252  Rmax=1.4999     9
 O  C  Rav=1.3253 sigma=0.0908  Rmin=1.2036  Rmax=1.4216     3
 Br C  Rav=1.8828 sigma=0.0043  Rmin=1.8790  Rmax=1.8895     5
 
 selected bond angles (degree)
 --------------------
C3-C2-Br1=120.12               C16-C2-Br1=120.13              C16-C2-C3=119.76               Br4-C3-C2=119.84               
C5-C3-C2=119.69                C5-C3-Br4=120.47               Br6-C5-C3=118.54               C7-C5-C3=121.36                
C7-C5-Br6=120.10               C8-C7-C5=119.14                C14-C7-C5=118.20               C14-C7-C8=122.64               
O9-C8-C7=108.02                H18-C8-C7=111.91               H18-C8-O9=109.29               H19-C8-C7=110.77               
H19-C8-O9=109.00               H19-C8-H18=107.80              C10-O9-C8=115.56               O11-C10-O9=122.49              
C12-C10-O9=112.74              C12-C10-O11=124.77             
 
 selected dihedral angles (degree)
 ---------------------------------
Br4-C3-C2-Br1=  0.05          Br4-C3-C2-C16=180.18          C5-C3-C2-Br1=179.93           C5-C3-C2-C16=  0.07           
Br6-C5-C3-C2=180.99           Br6-C5-C3-Br4=  0.87          C7-C5-C3-C2=  0.43            C7-C5-C3-Br4=180.31           
C8-C7-C5-C3=178.07            C8-C7-C5-Br6=357.50           C14-C7-C5-C3=359.59           C14-C7-C5-Br6=179.02          
O9-C8-C7-C5=299.92            O9-C8-C7-C14=118.33           H18-C8-C7-C5=179.56           H18-C8-C7-C14=357.97          
H19-C8-C7-C5= 59.23           H19-C8-C7-C14=237.64          C10-O9-C8-C7=162.94           C10-O9-C8-H18=284.92          
C10-O9-C8-H19= 42.51          O11-C10-O9-C8=  1.71          C12-C10-O9-C8=182.07          
           -------------------------------------------------
          |                Final Singlepoint                |
           -------------------------------------------------

          ...................................................
          :                      SETUP                      :
          :.................................................:
          :  # basis functions                 103          :
          :  # atomic orbitals                  98          :
          :  # shells                           44          :
          :  # electrons                        92          :
          :  max. iterations                   250          :
          :  Hamiltonian                  GFN2-xTB          :
          :  restarted?                      false          :
          :  GBSA solvation                  false          :
          :  PC potential                    false          :
          :  electronic temp.          300.0000000     K    :
          :  accuracy                    1.0000000          :
          :  -> integral cutoff          0.2500000E+02      :
          :  -> integral neglect         0.1000000E-07      :
          :  -> SCF convergence          0.1000000E-05 Eh   :
          :  -> wf. convergence          0.1000000E-03 e    :
          :  Broyden damping             0.4000000          :
          :  net charge                          0          :
          :  unpaired electrons                  0          :
          ...................................................

 iter      E             dE          RMSdq      gap      omega  full diag
   1    -52.9406701 -0.529407E+02  0.188E-04    3.14       0.0  T
   2    -52.9406701 -0.582148E-10  0.156E-04    3.14     136.6  T
   3    -52.9406701 -0.169365E-09  0.111E-04    3.14     191.9  T

   *** convergence criteria satisfied after 3 iterations ***

         #    Occupation            Energy/Eh            Energy/eV
      -------------------------------------------------------------
         1        2.0000           -0.8834003             -24.0385
       ...           ...                  ...                  ...
        40        2.0000           -0.4542303             -12.3602
        41        2.0000           -0.4521326             -12.3032
        42        2.0000           -0.4452420             -12.1157
        43        2.0000           -0.4404998             -11.9866
        44        2.0000           -0.4380556             -11.9201
        45        2.0000           -0.4349445             -11.8354
        46        2.0000           -0.4332658             -11.7898 (HOMO)
        47                         -0.3177850              -8.6474 (LUMO)
        48                         -0.3170122              -8.6263
        49                         -0.2979233              -8.1069
        50                         -0.2848339              -7.7507
        51                         -0.2517399              -6.8502
       ...                                ...                  ...
        98                          0.6833408              18.5946
      -------------------------------------------------------------
                  HL-Gap            0.1154808 Eh            3.1424 eV
             Fermi-level           -0.3755254 Eh          -10.2186 eV

 SCC (total)                   0 d,  0 h,  0 min,  0.014 sec
 SCC setup                      ...        0 min,  0.001 sec (  8.174%)
 Dispersion                     ...        0 min,  0.000 sec (  1.603%)
 classical contributions        ...        0 min,  0.000 sec (  0.259%)
 integral evaluation            ...        0 min,  0.002 sec ( 12.102%)
 iterations                     ...        0 min,  0.006 sec ( 41.927%)
 molecular gradient             ...        0 min,  0.004 sec ( 30.101%)
 printout                       ...        0 min,  0.001 sec (  5.675%)

         :::::::::::::::::::::::::::::::::::::::::::::::::::::
         ::                     SUMMARY                     ::
         :::::::::::::::::::::::::::::::::::::::::::::::::::::
         :: total energy             -52.474790740520 Eh    ::
         :: gradient norm              0.000471235191 Eh/a0 ::
         :: HOMO-LUMO gap              3.142391513775 eV    ::
         ::.................................................::
         :: SCC energy               -52.940452279239 Eh    ::
         :: -> isotropic ES            0.052801595833 Eh    ::
         :: -> anisotropic ES          0.007500141707 Eh    ::
         :: -> anisotropic XC          0.004643211738 Eh    ::
         :: -> dispersion             -0.034866364827 Eh    ::
         :: repulsion energy           0.465661538719 Eh    ::
         :: add. restraining           0.000000000000 Eh    ::
         :: total charge               0.000000000000 e     ::
         :::::::::::::::::::::::::::::::::::::::::::::::::::::

           -------------------------------------------------
          |                Property Printout                |
           -------------------------------------------------

    * Orbital Energies and Occupations

         #    Occupation            Energy/Eh            Energy/eV
      -------------------------------------------------------------
         1        2.0000           -0.8834003             -24.0385
       ...           ...                  ...                  ...
        34        2.0000           -0.4775973             -12.9961
        35        2.0000           -0.4677607             -12.7284
        36        2.0000           -0.4636828             -12.6174
        37        2.0000           -0.4615193             -12.5586
        38        2.0000           -0.4598034             -12.5119
        39        2.0000           -0.4572618             -12.4427
        40        2.0000           -0.4542303             -12.3602
        41        2.0000           -0.4521326             -12.3032
        42        2.0000           -0.4452420             -12.1157
        43        2.0000           -0.4404998             -11.9866
        44        2.0000           -0.4380556             -11.9201
        45        2.0000           -0.4349445             -11.8354
        46        2.0000           -0.4332658             -11.7898 (HOMO)
        47                         -0.3177850              -8.6474 (LUMO)
        48                         -0.3170122              -8.6263
        49                         -0.2979233              -8.1069
        50                         -0.2848339              -7.7507
        51                         -0.2517399              -6.8502
        52                         -0.2492661              -6.7829
        53                         -0.2342191              -6.3734
        54                         -0.2218101              -6.0358
        55                         -0.2115369              -5.7562
        56                         -0.1855739              -5.0497
        57                         -0.0247607              -0.6738
       ...                                ...                  ...
        98                          0.6833408              18.5946
      -------------------------------------------------------------
                  HL-Gap            0.1154808 Eh            3.1424 eV
             Fermi-level           -0.3755254 Eh          -10.2186 eV

     #   Z          covCN         q      C6AA      α(0)
     1  35 Br       1.496    -0.061   186.716    22.032
     2   6 C        3.072     0.058    26.630     8.461
     3   6 C        3.071     0.057    26.641     8.463
     4  35 Br       1.512    -0.063   186.770    22.035
     5   6 C        2.991     0.063    26.579     8.457
     6  35 Br       1.319    -0.079   187.217    22.062
     7   6 C        3.099    -0.005    28.019     8.675
     8   6 C        3.721     0.091    19.181     6.255
     9   8 O        1.707    -0.261    18.328     5.780
    10   6 C        2.726     0.359    20.916     7.487
    11   8 O        0.857    -0.395    21.575     6.228
    12   6 C        2.887    -0.055    29.353     8.882
    13   6 C        2.838    -0.056    29.389     8.884
    14   6 C        2.986     0.057    26.719     8.479
    15  35 Br       1.324    -0.083   187.330    22.068
    16   6 C        3.075     0.058    26.629     8.461
    17  35 Br       1.537    -0.062   186.754    22.034
    18   1 H        0.924     0.076     2.020     2.222
    19   1 H        0.923     0.080     1.975     2.198
    20   1 H        0.926     0.079     1.989     2.205
    21   1 H        0.926     0.072     2.063     2.246
    22   1 H        0.926     0.071     2.079     2.255

 Mol. C6AA /au·bohr⁶  :      18254.833834
 Mol. C8AA /au·bohr⁸  :     776538.054151
 Mol. α(0) /au        :        215.869583


Wiberg/Mayer (AO) data.
largest (>0.10) Wiberg bond orders for each atom

 ---------------------------------------------------------------------------
     #   Z sym  total        # sym  WBO       # sym  WBO       # sym  WBO
 ---------------------------------------------------------------------------
     1  35 Br   1.243 --     2 C    1.037
     2   6 C    3.955 --    16 C    1.357     3 C    1.353     1 Br   1.037
     3   6 C    3.956 --     5 C    1.357     2 C    1.353     4 Br   1.037
     4  35 Br   1.244 --     3 C    1.037
     5   6 C    3.955 --     7 C    1.361     3 C    1.357     6 Br   1.029
     6  35 Br   1.223 --     5 C    1.029
     7   6 C    3.986 --    14 C    1.372     5 C    1.361     8 C    1.008
     8   6 C    3.932 --     7 C    1.008    18 H    0.954     9 O    0.951
                            19 H    0.944
     9   8 O    2.292 --    10 C    1.086     8 C    0.951    11 O    0.163
    10   6 C    3.915 --    11 O    1.747     9 O    1.086    12 C    1.019
    11   8 O    2.053 --    10 C    1.747     9 O    0.163
    12   6 C    3.985 --    13 C    1.927    10 C    1.019    20 H    0.961
    13   6 C    3.981 --    12 C    1.927    22 H    0.974    21 H    0.971
    14   6 C    3.952 --     7 C    1.372    16 C    1.351    15 Br   1.020
    15  35 Br   1.211 --    14 C    1.020
    16   6 C    3.956 --     2 C    1.357    14 C    1.351    17 Br   1.038
    17  35 Br   1.247 --    16 C    1.038
    18   1 H    0.993 --     8 C    0.954
    19   1 H    0.992 --     8 C    0.944
    20   1 H    0.993 --    12 C    0.961
    21   1 H    0.995 --    13 C    0.971
    22   1 H    0.995 --    13 C    0.974
 ---------------------------------------------------------------------------

Topologies differ in total number of bonds
Writing topology from bond orders to xtbtopo.mol

molecular dipole:
                 x           y           z       tot (Debye)
 q only:        0.382       0.084       0.583
   full:        0.654       0.076       0.480       2.070
molecular quadrupole (traceless):
                xx          xy          yy          xz          yz          zz
 q only:        2.103       3.062      -3.538      12.851       0.204       1.435
  q+dip:        1.401       7.739      -8.270      19.814       7.885       6.869
   full:        0.780       8.099      -6.497      20.147       6.848       5.717

           -------------------------------------------------
          |                Geometry Summary                 |
           -------------------------------------------------

      molecular mass/u    :      556.6635115
   center of mass at/Å    :       -1.8440738       0.3433874       0.2316473
  moments of inertia/u·Å² :        0.2747601E+04   0.3813040E+04   0.6182353E+04
rotational constants/cm⁻¹ :        0.6135401E-02   0.4421047E-02   0.2726734E-02

 * 20 selected distances

     #   Z          #   Z                                           value/Å
     1  35 Br       2   6 C                                       1.8794114
     2   6 C        3   6 C                                       1.3926525
     3   6 C        4  35 Br                                      1.8790022
     3   6 C        5   6 C                                       1.3931798
     5   6 C        6  35 Br                                      1.8861959
     5   6 C        7   6 C                                       1.3964604
     8   6 C        9   8 O                                       1.4216438
     9   8 O       10   6 C                                       1.3506177
    10   6 C       11   8 O                                       1.2036497
    12   6 C       13   6 C                                       1.3251897
     7   6 C       14   6 C                                       1.3939828
    14   6 C       15  35 Br                                      1.8895156 (max)
     2   6 C       16   6 C                                       1.3922146
    14   6 C       16   6 C                                       1.3956117
    16   6 C       17  35 Br                                      1.8796301
     8   6 C       18   1 H                                       1.0935990
     8   6 C       19   1 H                                       1.0997853
    12   6 C       20   1 H                                       1.0802622
    13   6 C       21   1 H                                       1.0768479
    13   6 C       22   1 H                                       1.0767333 (min)

 * 4 distinct bonds (by element types)

   Z      Z             #   av. dist./Å        max./Å        min./Å
   1 H    6 C           5     1.0854455     1.0997853     1.0767333
   6 C    6 C           7     1.3841845     1.3964604     1.3251897
   6 C    8 O           3     1.3253037     1.4216438     1.2036497
   6 C   35 Br          5     1.8827510     1.8895156     1.8790022


optimized geometry written to: xtbopt.xyz


           -------------------------------------------------
          | TOTAL ENERGY              -52.474790740520 Eh   |
          | GRADIENT NORM               0.000471235191 Eh/α |
          | HOMO-LUMO GAP               3.142391513775 eV   |
           -------------------------------------------------
########################################################################
[WARNING] Runtime exception occurred
-2- restart_readRestart: Dimension missmatch in restart file.
-1- restart_readRestart: Number of electron missmatch in restart file.
########################################################################

------------------------------------------------------------------------
 * finished run on 2025/12/01 at 14:17:37.229     
------------------------------------------------------------------------
 total:
 * wall-time:     0 d,  0 h,  0 min,  1.162 sec
 *  cpu-time:     0 d,  0 h,  0 min, 26.255 sec
 * ratio c/w:    22.587 speedup
 SCF:
 * wall-time:     0 d,  0 h,  0 min,  0.097 sec
 *  cpu-time:     0 d,  0 h,  0 min,  2.219 sec
 * ratio c/w:    22.786 speedup
 ANC optimizer:
 * wall-time:     0 d,  0 h,  0 min,  1.046 sec
 *  cpu-time:     0 d,  0 h,  0 min, 23.818 sec
 * ratio c/w:    22.772 speedup

normal termination of xtb
