      -----------------------------------------------------------      
     |                   =====================                   |     
     |                           x T B                           |     
     |                   =====================                   |     
     |                         S. Grimme                         |     
     |          Mulliken Center for Theoretical Chemistry        |     
     |                    University of Bonn                     |     
      -----------------------------------------------------------      

   * xtb version 6.7.1 (edcfbbe) compiled by 'albert@albert-system' on 2024-07-22

   xtb is free software: you can redistribute it and/or modify it under
   the terms of the GNU Lesser General Public License as published by
   the Free Software Foundation, either version 3 of the License, or
   (at your option) any later version.
   
   xtb is distributed in the hope that it will be useful,
   but WITHOUT ANY WARRANTY; without even the implied warranty of
   MERCHANTABILITY or FITNESS FOR A PARTICULAR PURPOSE.  See the
   GNU Lesser General Public License for more details.
   
   Cite this work as:
   * C. Bannwarth, E. Caldeweyher, S. Ehlert, A. Hansen, P. Pracht,
     J. Seibert, S. Spicher, S. Grimme, WIREs Comput. Mol. Sci., 2020, 11,
     e01493. DOI: 10.1002/wcms.1493
   
   for GFN2-xTB:
   * C. Bannwarth, S. Ehlert and S. Grimme., J. Chem. Theory Comput., 2019,
     15, 1652-1671. DOI: 10.1021/acs.jctc.8b01176
   for GFN1-xTB:
   * S. Grimme, C. Bannwarth, P. Shushkov, J. Chem. Theory Comput., 2017,
     13, 1989-2009. DOI: 10.1021/acs.jctc.7b00118
   for GFN0-xTB:
   * P. Pracht, E. Caldeweyher, S. Ehlert, S. Grimme, ChemRxiv, 2019, preprint.
     DOI: 10.26434/chemrxiv.8326202.v1
   for GFN-FF:
   * S. Spicher and S. Grimme, Angew. Chem. Int. Ed., 2020, 59, 15665-15673.
     DOI: 10.1002/anie.202004239
   
   for ALPB and GBSA implicit solvation:
   * S. Ehlert, M. Stahn, S. Spicher, S. Grimme, J. Chem. Theory Comput.,
     2021, 17, 4250-4261. DOI: 10.1021/acs.jctc.1c00471
   
   for ddCOSMO and CPCM-X implicit solvation:
   * M. Stahn, S. Ehlert, S. Grimme, J. Phys. Chem. A,
     2023, XX, XXXX-XXXX. DOI: 10.1021/acs.jpca.3c04382
   
   for DFT-D4:
   * E. Caldeweyher, C. Bannwarth and S. Grimme, J. Chem. Phys., 2017,
     147, 034112. DOI: 10.1063/1.4993215
   * E. Caldeweyher, S. Ehlert, A. Hansen, H. Neugebauer, S. Spicher,
     C. Bannwarth and S. Grimme, J. Chem. Phys., 2019, 150, 154122.
     DOI: 10.1063/1.5090222
   * E. Caldeweyher, J.-M. Mewes, S. Ehlert and S. Grimme, Phys. Chem. Chem. Phys.
     2020, 22, 8499-8512. DOI: 10.1039/D0CP00502A
   
   for sTDA-xTB:
   * S. Grimme and C. Bannwarth, J. Chem. Phys., 2016, 145, 054103.
     DOI: 10.1063/1.4959605
   
   in the mass-spec context:
   * V. Asgeirsson, C. Bauer and S. Grimme, Chem. Sci., 2017, 8, 4879.
     DOI: 10.1039/c7sc00601b
   * J. Koopman and S. Grimme, ACS Omega 2019, 4, 12, 15120-15133.
     DOI: 10.1021/acsomega.9b02011
   
   for metadynamics refer to:
   * S. Grimme, J. Chem. Theory Comput., 2019, 155, 2847-2862
     DOI: 10.1021/acs.jctc.9b00143
   
   for SPH calculations refer to:
   * S. Spicher and S. Grimme, J. Chem. Theory Comput., 2021, 17, 1701-1714
     DOI: 10.1021/acs.jctc.0c01306
   
   for ONIOM refer to:
   * C. Plett, A. Katbashev, S. Ehlert, S. Grimme, M. Bursch,
     Phys. Chem. Chem. Phys., 2023, 25, 17860-17868. DOI: 10.1039/D3CP02178E
   
   for DIPRO refer to:
   * J. Kohn, N. Gildemeister, S. Grimme, D. Fazzi, A. Hansen,
     J. Chem. Phys., 2023, just accepted.
   
   for PTB refer to:
   * S. Grimme, M. Mueller, A. Hansen, J. Chem. Phys., 2023, 158, 124111.
     DOI: 10.1063/5.0137838
   
   with help from (in alphabetical order)
   P. Atkinson, C. Bannwarth, F. Bohle, G. Brandenburg, E. Caldeweyher
   M. Checinski, S. Dohm, S. Ehlert, S. Ehrlich, I. Gerasimov, C. Hölzer
   A. Katbashev, J. Kohn, J. Koopman, C. Lavigne, S. Lehtola, F. März, M. Müller,
   F. Musil, H. Neugebauer, J. Pisarek, C. Plett, P. Pracht, F. Pultar,
   J. Seibert, P. Shushkov, S. Spicher, M. Stahn, M. Steiner, T. Strunk,
   J. Stückrath, T. Rose, and J. Unsleber
   
 * started run on 2025/12/01 at 14:17:37.249     
   ID    Z sym.   atoms
    1   35 Br     1, 4, 6, 15, 17
    2    6 C      2, 3, 5, 7, 8, 10, 12-14, 16
    3    8 O      9, 11
    4    1 H      18-22

           -------------------------------------------------
          |                Calculation Setup                |
           -------------------------------------------------

          program call               : xtb pipeline_data/3_conformer_xyz/acrylates/rdkit/GRKDVZMVHOLESV-UHFFFAOYSA-N_conf62.xyz --opt --gfn 2-xTB --iterations 250
          coordinate file            : pipeline_data/3_conformer_xyz/acrylates/rdkit/GRKDVZMVHOLESV-UHFFFAOYSA-N_conf62.xyz
          omp threads                :                    24

########################################################################
[WARNING] Please study the warnings concerning your input carefully
-1- readin_getIntValue: could not parse '2-xTB'
########################################################################

           -------------------------------------------------
          |                 G F N 2 - x T B                 |
           -------------------------------------------------

        Reference                      10.1021/acs.jctc.8b01176
      * Hamiltonian:
        H0-scaling (s, p, d)           1.850000    2.230000    2.230000
        zeta-weighting                 0.500000
      * Dispersion:
        s8                             2.700000
        a1                             0.520000
        a2                             5.000000
        s9                             5.000000
      * Repulsion:
        kExp                           1.500000    1.000000
        rExp                           1.000000
      * Coulomb:
        alpha                          2.000000
        third order                    shell-resolved
        anisotropic                    true
        a3                             3.000000
        a5                             4.000000
        cn-shift                       1.200000
        cn-exp                         4.000000
        max-rad                        5.000000

q/qsh data taken from xtbrestart
CAMM data taken from xtbrestart

          ...................................................
          :                      SETUP                      :
          :.................................................:
          :  # basis functions                 103          :
          :  # atomic orbitals                  98          :
          :  # shells                           44          :
          :  # electrons                        92          :
          :  max. iterations                   250          :
          :  Hamiltonian                  GFN2-xTB          :
          :  restarted?                       true          :
          :  GBSA solvation                  false          :
          :  PC potential                    false          :
          :  electronic temp.          300.0000000     K    :
          :  accuracy                    1.0000000          :
          :  -> integral cutoff          0.2500000E+02      :
          :  -> integral neglect         0.1000000E-07      :
          :  -> SCF convergence          0.1000000E-05 Eh   :
          :  -> wf. convergence          0.1000000E-03 e    :
          :  Broyden damping             0.4000000          :
          :  net charge                          0          :
          :  unpaired electrons                  0          :
          ...................................................

 iter      E             dE          RMSdq      gap      omega  full diag
   1    -52.8829334 -0.528829E+02  0.100E+01    3.16       0.0  T
   2    -52.8963608 -0.134274E-01  0.531E+00    3.22       1.0  T
   3    -52.8902572  0.610365E-02  0.128E+00    3.20       1.0  T
   4    -52.9018588 -0.116016E-01  0.680E-01    3.10       1.0  T
   5    -52.9021018 -0.243012E-03  0.323E-01    3.11       1.0  T
   6    -52.9028183 -0.716572E-03  0.212E-01    3.14       1.0  T
   7    -52.9029007 -0.823045E-04  0.128E-01    3.12       1.0  T
   8    -52.9029713 -0.706230E-04  0.537E-02    3.13       1.0  T
   9    -52.9029879 -0.165902E-04  0.364E-02    3.13       1.0  T
  10    -52.9029918 -0.397307E-05  0.262E-02    3.13       1.0  T
  11    -52.9029944 -0.255635E-05  0.189E-02    3.13       1.1  T
  12    -52.9029964 -0.196434E-05  0.112E-02    3.13       1.9  T
  13    -52.9029971 -0.712917E-06  0.502E-03    3.13       4.2  T
  14    -52.9029972 -0.149567E-06  0.288E-03    3.13       7.4  T
  15    -52.9029972 -0.264614E-07  0.146E-03    3.13      14.6  T
  16    -52.9029973 -0.124250E-07  0.103E-03    3.13      20.6  T
  17    -52.9029973 -0.524407E-08  0.612E-04    3.13      34.9  T
  18    -52.9029973 -0.702983E-09  0.390E-04    3.13      54.7  T

   *** convergence criteria satisfied after 18 iterations ***

         #    Occupation            Energy/Eh            Energy/eV
      -------------------------------------------------------------
         1        2.0000           -0.8816021             -23.9896
       ...           ...                  ...                  ...
        40        2.0000           -0.4520896             -12.3020
        41        2.0000           -0.4502498             -12.2519
        42        2.0000           -0.4463963             -12.1471
        43        2.0000           -0.4395091             -11.9597
        44        2.0000           -0.4382360             -11.9250
        45        2.0000           -0.4345658             -11.8251
        46        2.0000           -0.4338123             -11.8046 (HOMO)
        47                         -0.3188067              -8.6752 (LUMO)
        48                         -0.3171303              -8.6296
        49                         -0.3062065              -8.3323
        50                         -0.2893800              -7.8744
        51                         -0.2588367              -7.0433
       ...                                ...                  ...
        98                          0.6081615              16.5489
      -------------------------------------------------------------
                  HL-Gap            0.1150056 Eh            3.1295 eV
             Fermi-level           -0.3763095 Eh          -10.2399 eV

 SCC (total)                   0 d,  0 h,  0 min,  0.071 sec
 SCC setup                      ...        0 min,  0.000 sec (  0.702%)
 Dispersion                     ...        0 min,  0.000 sec (  0.682%)
 classical contributions        ...        0 min,  0.000 sec (  0.168%)
 integral evaluation            ...        0 min,  0.009 sec ( 13.084%)
 iterations                     ...        0 min,  0.055 sec ( 77.528%)
 molecular gradient             ...        0 min,  0.005 sec (  7.467%)
 printout                       ...        0 min,  0.000 sec (  0.301%)

         :::::::::::::::::::::::::::::::::::::::::::::::::::::
         ::                     SUMMARY                     ::
         :::::::::::::::::::::::::::::::::::::::::::::::::::::
         :: total energy             -52.459798320200 Eh    ::
         :: gradient norm              0.120675202251 Eh/a0 ::
         :: HOMO-LUMO gap              3.129462804359 eV    ::
         ::.................................................::
         :: SCC energy               -52.902899611414 Eh    ::
         :: -> isotropic ES            0.056184114566 Eh    ::
         :: -> anisotropic ES          0.006388220888 Eh    ::
         :: -> anisotropic XC          0.007643214650 Eh    ::
         :: -> dispersion             -0.033729084906 Eh    ::
         :: repulsion energy           0.443101291214 Eh    ::
         :: add. restraining           0.000000000000 Eh    ::
         :: total charge               0.000000000000 e     ::
         :::::::::::::::::::::::::::::::::::::::::::::::::::::

      ----------------------------------------------------------- 
     |                   =====================                   |
     |                        A N C O P T                        |
     |                   =====================                   |
     |               Approximate Normal Coordinate               |
     |                Rational Function Optimizer                |
      ----------------------------------------------------------- 
      ----------------------------------------------------------- 
     |                   =====================                   |
     |                        A N C O P T                        |
     |                   =====================                   |
     |               Approximate Normal Coordinate               |
     |                Rational Function Optimizer                |
      ----------------------------------------------------------- 

          ...................................................
          :                      SETUP                      :
          :.................................................:
          :   optimization level            normal          :
          :   max. optcycles                   200          :
          :   ANC micro-cycles                  20          :
          :   degrees of freedom                60          :
          :.................................................:
          :   RF solver                   davidson          :
          :   write xtbopt.log                true          :
          :   linear?                        false          :
          :   energy convergence         0.5000000E-05 Eh   :
          :   grad. convergence          0.1000000E-02 Eh/α :
          :   maxmium RF displ.          1.0000000          :
          :   Hlow (freq-cutoff)         0.1000000E-01      :
          :   Hmax (freq-cutoff)         5.0000000          :
          :   S6 in model hess.         20.0000000          :
          ...................................................

generating ANC from exact Hessian ...
Using Lindh-Hessian (1995)
 Shifting diagonal of input Hessian by   9.197295695140649E-003
 Lowest  eigenvalues of input Hessian
    0.000000    0.000000    0.000000    0.000000    0.000000    0.000000
    0.010000    0.010177    0.010484    0.011644    0.012938    0.013096
    0.013836    0.014301    0.014890    0.015420    0.016410    0.021250
 Highest eigenvalues
    1.670514    1.750895    1.793628    1.822429    2.013909    2.106927
 

........................................................................
.............................. CYCLE    1 ..............................
........................................................................

 iter      E             dE          RMSdq      gap      omega  full diag
   1    -52.9029973 -0.529030E+02  0.218E-04    3.13       0.0  T
   2    -52.9029973 -0.981757E-10  0.176E-04    3.13     121.4  T
   3    -52.9029973 -0.579092E-10  0.149E-04    3.13     143.1  T
     SCC iter.                  ...        0 min,  0.012 sec
     gradient                   ...        0 min,  0.006 sec
 * total energy  :   -52.4597983 Eh     change       -0.1112696E-08 Eh
   gradient norm :     0.1206742 Eh/α   predicted     0.0000000E+00 (-100.00%)
   displ. norm   :     0.4226458 α      lambda       -0.1955772E-01
   maximum displ.:     0.2171328 α      in ANC's #15, #18, #10, ...

........................................................................
.............................. CYCLE    2 ..............................
........................................................................

 iter      E             dE          RMSdq      gap      omega  full diag
   1    -52.9295202 -0.529295E+02  0.341E-01    3.15       0.0  T
   2    -52.9297261 -0.205859E-03  0.215E-01    3.16       1.0  T
   3    -52.9296256  0.100428E-03  0.124E-01    3.15       1.0  T
   4    -52.9297848 -0.159126E-03  0.604E-02    3.16       1.0  T
   5    -52.9298028 -0.180013E-04  0.386E-02    3.16       1.0  T
   6    -52.9298063 -0.353768E-05  0.218E-02    3.16       1.0  T
   7    -52.9298073 -0.987832E-06  0.117E-02    3.16       1.8  T
   8    -52.9298076 -0.274425E-06  0.711E-03    3.16       3.0  T
   9    -52.9298080 -0.412648E-06  0.408E-03    3.16       5.2  T
  10    -52.9298080 -0.439259E-07  0.308E-03    3.16       6.9  T
  11    -52.9298081 -0.388614E-07  0.178E-03    3.16      12.0  T
  12    -52.9298081 -0.166227E-07  0.641E-04    3.16      33.3  T
  13    -52.9298081 -0.113386E-08  0.370E-04    3.16      57.7  T
     SCC iter.                  ...        0 min,  0.099 sec
     gradient                   ...        0 min,  0.008 sec
 * total energy  :   -52.4721994 Eh     change       -0.1240106E-01 Eh
   gradient norm :     0.0457361 Eh/α   predicted    -0.1155979E-01 (  -6.78%)
   displ. norm   :     0.4040900 α      lambda       -0.7051236E-02
   maximum displ.:     0.2443276 α      in ANC's #10, #19, #18, ...

........................................................................
.............................. CYCLE    3 ..............................
........................................................................

 iter      E             dE          RMSdq      gap      omega  full diag
   1    -52.9438059 -0.529438E+02  0.322E-01    3.14       0.0  T
   2    -52.9439515 -0.145567E-03  0.206E-01    3.14       1.0  T
   3    -52.9438408  0.110698E-03  0.125E-01    3.13       1.0  T
   4    -52.9440031 -0.162279E-03  0.596E-02    3.14       1.0  T
   5    -52.9440155 -0.123743E-04  0.401E-02    3.14       1.0  T
   6    -52.9440187 -0.321960E-05  0.227E-02    3.14       1.0  T
   7    -52.9440201 -0.145232E-05  0.120E-02    3.14       1.8  T
   8    -52.9440208 -0.662573E-06  0.667E-03    3.14       3.2  T
   9    -52.9440210 -0.189027E-06  0.427E-03    3.14       5.0  T
  10    -52.9440210 -0.495995E-07  0.324E-03    3.14       6.6  T
  11    -52.9440211 -0.477744E-07  0.156E-03    3.14      13.7  T
  12    -52.9440211 -0.156825E-07  0.731E-04    3.14      29.2  T
  13    -52.9440211 -0.337294E-08  0.396E-04    3.14      53.9  T
     SCC iter.                  ...        0 min,  0.022 sec
     gradient                   ...        0 min,  0.004 sec
 * total energy  :   -52.4736836 Eh     change       -0.1484202E-02 Eh
   gradient norm :     0.0336183 Eh/α   predicted    -0.4101334E-02 ( 176.33%)
   displ. norm   :     0.2563802 α      lambda       -0.3118339E-02
   maximum displ.:     0.1762530 α      in ANC's #10, #9, #4, ...

........................................................................
.............................. CYCLE    4 ..............................
........................................................................

 iter      E             dE          RMSdq      gap      omega  full diag
   1    -52.9417757 -0.529418E+02  0.174E-01    3.14       0.0  T
   2    -52.9418034 -0.277105E-04  0.108E-01    3.15       1.0  T
   3    -52.9417990  0.445720E-05  0.559E-02    3.15       1.0  T
   4    -52.9418128 -0.138702E-04  0.379E-02    3.15       1.0  T
   5    -52.9418166 -0.377620E-05  0.213E-02    3.15       1.0  T
   6    -52.9418177 -0.113640E-05  0.108E-02    3.15       2.0  T
   7    -52.9418185 -0.729675E-06  0.641E-03    3.15       3.3  T
   8    -52.9418186 -0.120134E-06  0.416E-03    3.15       5.1  T
   9    -52.9418187 -0.807524E-07  0.271E-03    3.15       7.9  T
  10    -52.9418187 -0.122500E-07  0.189E-03    3.15      11.3  T
  11    -52.9418187 -0.218871E-07  0.894E-04    3.15      23.8  T
  12    -52.9418187 -0.464698E-08  0.302E-04    3.15      70.5  T
     SCC iter.                  ...        0 min,  0.020 sec
     gradient                   ...        0 min,  0.004 sec
 * total energy  :   -52.4751328 Eh     change       -0.1449246E-02 Eh
   gradient norm :     0.0115924 Eh/α   predicted    -0.1661751E-02 (  14.66%)
   displ. norm   :     0.0992024 α      lambda       -0.4313345E-03
   maximum displ.:     0.0562466 α      in ANC's #9, #14, #5, ...

........................................................................
.............................. CYCLE    5 ..............................
........................................................................

 iter      E             dE          RMSdq      gap      omega  full diag
   1    -52.9397869 -0.529398E+02  0.860E-02    3.15       0.0  T
   2    -52.9397954 -0.845460E-05  0.521E-02    3.15       1.0  T
   3    -52.9397928  0.254279E-05  0.275E-02    3.15       1.0  T
   4    -52.9397979 -0.506573E-05  0.182E-02    3.15       1.2  T
   5    -52.9397989 -0.997006E-06  0.126E-02    3.15       1.7  T
   6    -52.9397994 -0.508869E-06  0.687E-03    3.15       3.1  T
   7    -52.9397996 -0.214829E-06  0.395E-03    3.15       5.4  T
   8    -52.9397996 -0.300994E-07  0.237E-03    3.15       9.0  T
   9    -52.9397997 -0.378676E-07  0.143E-03    3.15      14.9  T
  10    -52.9397997 -0.300615E-08  0.104E-03    3.15      20.4  T
  11    -52.9397997 -0.771326E-08  0.413E-04    3.15      51.7  T
  12    -52.9397997 -0.530406E-09  0.212E-04    3.15     100.5  T
     SCC iter.                  ...        0 min,  0.033 sec
     gradient                   ...        0 min,  0.008 sec
 * total energy  :   -52.4752674 Eh     change       -0.1346181E-03 Eh
   gradient norm :     0.0063842 Eh/α   predicted    -0.2178094E-03 (  61.80%)
   displ. norm   :     0.0798795 α      lambda       -0.1680791E-03
   maximum displ.:     0.0441600 α      in ANC's #4, #1, #10, ...

........................................................................
.............................. CYCLE    6 ..............................
........................................................................

 iter      E             dE          RMSdq      gap      omega  full diag
   1    -52.9405811 -0.529406E+02  0.467E-02    3.14       0.0  T
   2    -52.9405820 -0.879324E-06  0.275E-02    3.14       1.0  T
   3    -52.9405813  0.676204E-06  0.124E-02    3.14       1.7  T
   4    -52.9405825 -0.122032E-05  0.826E-03    3.14       2.6  T
   5    -52.9405827 -0.140490E-06  0.461E-03    3.14       4.6  T
   6    -52.9405828 -0.124523E-06  0.243E-03    3.14       8.8  T
   7    -52.9405828 -0.171827E-07  0.148E-03    3.14      14.4  T
   8    -52.9405828 -0.609687E-08  0.834E-04    3.14      25.6  T
   9    -52.9405828 -0.373675E-08  0.604E-04    3.14      35.3  T
     SCC iter.                  ...        0 min,  0.015 sec
     gradient                   ...        0 min,  0.004 sec
 * total energy  :   -52.4753284 Eh     change       -0.6093716E-04 Eh
   gradient norm :     0.0038153 Eh/α   predicted    -0.8457915E-04 (  38.80%)
   displ. norm   :     0.0887619 α      lambda       -0.1436518E-03
   maximum displ.:     0.0543864 α      in ANC's #5, #2, #6, ...

........................................................................
.............................. CYCLE    7 ..............................
........................................................................

 iter      E             dE          RMSdq      gap      omega  full diag
   1    -52.9422866 -0.529423E+02  0.537E-02    3.14       0.0  T
   2    -52.9422888 -0.220673E-05  0.341E-02    3.14       1.0  T
   3    -52.9422873  0.148794E-05  0.185E-02    3.14       1.2  T
   4    -52.9422898 -0.243788E-05  0.115E-02    3.14       1.8  T
   5    -52.9422901 -0.344204E-06  0.628E-03    3.14       3.4  T
   6    -52.9422903 -0.156081E-06  0.276E-03    3.14       7.7  T
   7    -52.9422903 -0.242219E-07  0.173E-03    3.14      12.3  T
   8    -52.9422903 -0.537464E-08  0.110E-03    3.14      19.4  T
   9    -52.9422903 -0.706687E-08  0.755E-04    3.14      28.2  T
  10    -52.9422903 -0.112407E-08  0.503E-04    3.14      42.4  T
     SCC iter.                  ...        0 min,  0.018 sec
     gradient                   ...        0 min,  0.004 sec
 * total energy  :   -52.4753256 Eh     change        0.2798607E-05 Eh
   gradient norm :     0.0046457 Eh/α   predicted    -0.7239168E-04 (*******%)
   displ. norm   :     0.0606941 α      lambda       -0.1313860E-03
   maximum displ.:     0.0345367 α      in ANC's #9, #6, #10, ...

........................................................................
.............................. CYCLE    8 ..............................
........................................................................

 iter      E             dE          RMSdq      gap      omega  full diag
   1    -52.9421587 -0.529422E+02  0.386E-02    3.15       0.0  T
   2    -52.9421593 -0.594541E-06  0.238E-02    3.15       1.0  T
   3    -52.9421595 -0.257174E-06  0.112E-02    3.15       1.9  T
   4    -52.9421596 -0.212846E-07  0.827E-03    3.15       2.6  T
   5    -52.9421599 -0.368289E-06  0.261E-03    3.15       8.2  T
   6    -52.9421600 -0.346297E-07  0.176E-03    3.15      12.1  T
   7    -52.9421600 -0.145344E-07  0.118E-03    3.15      18.0  T
   8    -52.9421600 -0.482112E-08  0.772E-04    3.15      27.6  T
   9    -52.9421600 -0.220169E-08  0.515E-04    3.15      41.4  T
     SCC iter.                  ...        0 min,  0.016 sec
     gradient                   ...        0 min,  0.004 sec
 * total energy  :   -52.4753805 Eh     change       -0.5489661E-04 Eh
   gradient norm :     0.0028175 Eh/α   predicted    -0.6593638E-04 (  20.11%)
   displ. norm   :     0.0419177 α      lambda       -0.4140880E-04
   maximum displ.:     0.0242761 α      in ANC's #1, #10, #12, ...

........................................................................
.............................. CYCLE    9 ..............................
........................................................................

 iter      E             dE          RMSdq      gap      omega  full diag
   1    -52.9413199 -0.529413E+02  0.317E-02    3.15       0.0  T
   2    -52.9413206 -0.680893E-06  0.175E-02    3.14       1.2  T
   3    -52.9413203  0.342200E-06  0.777E-03    3.14       2.7  T
   4    -52.9413208 -0.570640E-06  0.489E-03    3.14       4.4  T
   5    -52.9413209 -0.617073E-07  0.350E-03    3.14       6.1  T
   6    -52.9413210 -0.455021E-07  0.203E-03    3.14      10.5  T
   7    -52.9413210 -0.144865E-07  0.124E-03    3.14      17.2  T
   8    -52.9413210 -0.368814E-08  0.666E-04    3.14      32.0  T
   9    -52.9413210 -0.379569E-08  0.370E-04    3.14      57.6  T
     SCC iter.                  ...        0 min,  0.016 sec
     gradient                   ...        0 min,  0.005 sec
 * total energy  :   -52.4753979 Eh     change       -0.1737470E-04 Eh
   gradient norm :     0.0020042 Eh/α   predicted    -0.2074347E-04 (  19.39%)
   displ. norm   :     0.0423534 α      lambda       -0.1668278E-04
   maximum displ.:     0.0271790 α      in ANC's #1, #2, #5, ...

........................................................................
.............................. CYCLE   10 ..............................
........................................................................

 iter      E             dE          RMSdq      gap      omega  full diag
   1    -52.9415507 -0.529416E+02  0.232E-02    3.14       0.0  T
   2    -52.9415508 -0.111307E-06  0.120E-02    3.14       1.8  T
   3    -52.9415507  0.908092E-07  0.334E-03    3.14       6.4  T
   4    -52.9415508 -0.122173E-06  0.192E-03    3.14      11.1  T
   5    -52.9415509 -0.152036E-07  0.972E-04    3.14      21.9  T
   6    -52.9415509 -0.235092E-08  0.664E-04    3.14      32.1  T
     SCC iter.                  ...        0 min,  0.011 sec
     gradient                   ...        0 min,  0.004 sec
 * total energy  :   -52.4754125 Eh     change       -0.1459679E-04 Eh
   gradient norm :     0.0011794 Eh/α   predicted    -0.8356941E-05 ( -42.75%)
   displ. norm   :     0.2317493 α      lambda       -0.4649110E-04
   maximum displ.:     0.1558900 α      in ANC's #1, #2, #8, ...

........................................................................
.............................. CYCLE   11 ..............................
........................................................................

 iter      E             dE          RMSdq      gap      omega  full diag
   1    -52.9419610 -0.529420E+02  0.131E-01    3.14       0.0  T
   2    -52.9419635 -0.255957E-05  0.661E-02    3.14       1.0  T
   3    -52.9419624  0.116565E-05  0.143E-02    3.14       1.5  T
   4    -52.9419641 -0.174332E-05  0.889E-03    3.14       2.4  T
   5    -52.9419645 -0.405841E-06  0.385E-03    3.14       5.5  T
   6    -52.9419645 -0.329032E-07  0.282E-03    3.14       7.6  T
   7    -52.9419646 -0.156345E-07  0.206E-03    3.14      10.4  T
   8    -52.9419646 -0.160424E-07  0.747E-04    3.14      28.5  T
   9    -52.9419646 -0.606521E-08  0.499E-04    3.14      42.7  T
     SCC iter.                  ...        0 min,  0.016 sec
     gradient                   ...        0 min,  0.004 sec
 * total energy  :   -52.4754622 Eh     change       -0.4972940E-04 Eh
   gradient norm :     0.0023257 Eh/α   predicted    -0.2380364E-04 ( -52.13%)
   displ. norm   :     0.1979022 α      lambda       -0.4618821E-04
   maximum displ.:     0.1414304 α      in ANC's #1, #2, #8, ...

........................................................................
.............................. CYCLE   12 ..............................
........................................................................

 iter      E             dE          RMSdq      gap      omega  full diag
   1    -52.9417452 -0.529417E+02  0.113E-01    3.14       0.0  T
   2    -52.9417466 -0.142977E-05  0.571E-02    3.14       1.0  T
   3    -52.9417464  0.277679E-06  0.101E-02    3.14       2.1  T
   4    -52.9417469 -0.495379E-06  0.680E-03    3.14       3.1  T
   5    -52.9417472 -0.335755E-06  0.240E-03    3.14       8.9  T
   6    -52.9417472 -0.137991E-07  0.189E-03    3.14      11.3  T
   7    -52.9417472 -0.753234E-08  0.126E-03    3.14      16.9  T
   8    -52.9417472 -0.674761E-08  0.491E-04    3.14      43.5  T
   9    -52.9417472 -0.224627E-08  0.328E-04    3.14      64.9  T
     SCC iter.                  ...        0 min,  0.016 sec
     gradient                   ...        0 min,  0.004 sec
 * total energy  :   -52.4755019 Eh     change       -0.3966823E-04 Eh
   gradient norm :     0.0024301 Eh/α   predicted    -0.2400169E-04 ( -39.49%)
   displ. norm   :     0.1665204 α      lambda       -0.4735959E-04
   maximum displ.:     0.1180015 α      in ANC's #1, #2, #8, ...

........................................................................
.............................. CYCLE   13 ..............................
........................................................................

 iter      E             dE          RMSdq      gap      omega  full diag
   1    -52.9416919 -0.529417E+02  0.979E-02    3.14       0.0  T
   2    -52.9416929 -0.102678E-05  0.495E-02    3.14       1.0  T
   3    -52.9416928  0.959615E-07  0.842E-03    3.14       2.5  T
   4    -52.9416930 -0.216038E-06  0.584E-03    3.14       3.7  T
   5    -52.9416933 -0.290142E-06  0.213E-03    3.14      10.0  T
   6    -52.9416933 -0.996912E-08  0.171E-03    3.14      12.4  T
   7    -52.9416933 -0.732123E-08  0.962E-04    3.14      22.2  T
   8    -52.9416933 -0.519688E-08  0.434E-04    3.14      49.2  T
     SCC iter.                  ...        0 min,  0.014 sec
     gradient                   ...        0 min,  0.004 sec
 * total energy  :   -52.4755445 Eh     change       -0.4262403E-04 Eh
   gradient norm :     0.0018313 Eh/α   predicted    -0.2433776E-04 ( -42.90%)
   displ. norm   :     0.3044812 α      lambda       -0.6400853E-04
   maximum displ.:     0.2135434 α      in ANC's #1, #2, #8, ...

........................................................................
.............................. CYCLE   14 ..............................
........................................................................

 iter      E             dE          RMSdq      gap      omega  full diag
   1    -52.9417599 -0.529418E+02  0.185E-01    3.14       0.0  T
   2    -52.9417635 -0.367074E-05  0.938E-02    3.14       1.0  T
   3    -52.9417631  0.381690E-06  0.160E-02    3.14       1.3  T
   4    -52.9417640 -0.861775E-06  0.109E-02    3.14       2.0  T
   5    -52.9417650 -0.994262E-06  0.408E-03    3.14       5.2  T
   6    -52.9417650 -0.374116E-07  0.326E-03    3.14       6.5  T
   7    -52.9417651 -0.286697E-07  0.178E-03    3.14      12.0  T
   8    -52.9417651 -0.154017E-07  0.772E-04    3.14      27.6  T
   9    -52.9417651 -0.431714E-08  0.565E-04    3.14      37.7  T
     SCC iter.                  ...        0 min,  0.016 sec
     gradient                   ...        0 min,  0.004 sec
 * total energy  :   -52.4756199 Eh     change       -0.7543721E-04 Eh
   gradient norm :     0.0016941 Eh/α   predicted    -0.3332442E-04 ( -55.82%)
   displ. norm   :     0.2845792 α      lambda       -0.5065971E-04
   maximum displ.:     0.2048011 α      in ANC's #1, #2, #8, ...

........................................................................
.............................. CYCLE   15 ..............................
........................................................................

 iter      E             dE          RMSdq      gap      omega  full diag
   1    -52.9413325 -0.529413E+02  0.177E-01    3.14       0.0  T
   2    -52.9413359 -0.341914E-05  0.890E-02    3.14       1.0  T
   3    -52.9413363 -0.376174E-06  0.140E-02    3.14       1.5  T
   4    -52.9413364 -0.112130E-06  0.962E-03    3.14       2.2  T
   5    -52.9413372 -0.789293E-06  0.394E-03    3.14       5.4  T
   6    -52.9413372 -0.362894E-07  0.315E-03    3.14       6.8  T
   7    -52.9413373 -0.319271E-07  0.162E-03    3.14      13.2  T
   8    -52.9413373 -0.122792E-07  0.674E-04    3.14      31.6  T
   9    -52.9413373 -0.303069E-08  0.505E-04    3.14      42.2  T
     SCC iter.                  ...        0 min,  0.016 sec
     gradient                   ...        0 min,  0.004 sec
 * total energy  :   -52.4756711 Eh     change       -0.5120345E-04 Eh
   gradient norm :     0.0022847 Eh/α   predicted    -0.2624400E-04 ( -48.75%)
   displ. norm   :     0.1275402 α      lambda       -0.3426868E-04
   maximum displ.:     0.0972975 α      in ANC's #1, #2, #8, ...

........................................................................
.............................. CYCLE   16 ..............................
........................................................................

 iter      E             dE          RMSdq      gap      omega  full diag
   1    -52.9417013 -0.529417E+02  0.783E-02    3.14       0.0  T
   2    -52.9417020 -0.634160E-06  0.398E-02    3.14       1.0  T
   3    -52.9417021 -0.138355E-06  0.615E-03    3.14       3.5  T
   4    -52.9417020  0.806814E-07  0.420E-03    3.14       5.1  T
   5    -52.9417022 -0.182486E-06  0.182E-03    3.14      11.7  T
   6    -52.9417022 -0.810295E-08  0.144E-03    3.14      14.8  T
   7    -52.9417022 -0.618040E-08  0.600E-04    3.14      35.5  T
   8    -52.9417022 -0.242645E-08  0.303E-04    3.14      70.3  T
     SCC iter.                  ...        0 min,  0.014 sec
     gradient                   ...        0 min,  0.004 sec
 * total energy  :   -52.4756984 Eh     change       -0.2727402E-04 Eh
   gradient norm :     0.0014446 Eh/α   predicted    -0.1741579E-04 ( -36.15%)
   displ. norm   :     0.1700341 α      lambda       -0.2639807E-04
   maximum displ.:     0.1403945 α      in ANC's #1, #2, #8, ...

........................................................................
.............................. CYCLE   17 ..............................
........................................................................

 iter      E             dE          RMSdq      gap      omega  full diag
   1    -52.9426869 -0.529427E+02  0.103E-01    3.15       0.0  T
   2    -52.9426880 -0.114130E-05  0.523E-02    3.15       1.0  T
   3    -52.9426881 -0.129965E-06  0.847E-03    3.15       2.5  T
   4    -52.9426882 -0.331397E-07  0.593E-03    3.15       3.6  T
   5    -52.9426884 -0.270049E-06  0.251E-03    3.15       8.5  T
   6    -52.9426885 -0.207967E-07  0.193E-03    3.15      11.1  T
   7    -52.9426885 -0.908724E-08  0.919E-04    3.15      23.2  T
   8    -52.9426885 -0.476679E-08  0.400E-04    3.15      53.4  T
     SCC iter.                  ...        0 min,  0.015 sec
     gradient                   ...        0 min,  0.004 sec
 * total energy  :   -52.4757273 Eh     change       -0.2892546E-04 Eh
   gradient norm :     0.0010877 Eh/α   predicted    -0.1337280E-04 ( -53.77%)
   displ. norm   :     0.1070223 α      lambda       -0.1596936E-04
   maximum displ.:     0.0968809 α      in ANC's #1, #2, #4, ...

........................................................................
.............................. CYCLE   18 ..............................
........................................................................

 iter      E             dE          RMSdq      gap      omega  full diag
   1    -52.9424498 -0.529424E+02  0.637E-02    3.15       0.0  T
   2    -52.9424502 -0.434634E-06  0.323E-02    3.15       1.0  T
   3    -52.9424503 -0.660860E-07  0.509E-03    3.15       4.2  T
   4    -52.9424502  0.594275E-07  0.380E-03    3.15       5.6  T
   5    -52.9424504 -0.163036E-06  0.146E-03    3.15      14.6  T
   6    -52.9424504 -0.204583E-08  0.110E-03    3.15      19.4  T
   7    -52.9424504 -0.342572E-08  0.632E-04    3.15      33.7  T
   8    -52.9424504 -0.241714E-08  0.263E-04    3.15      81.2  T
     SCC iter.                  ...        0 min,  0.014 sec
     gradient                   ...        0 min,  0.008 sec
 * total energy  :   -52.4757481 Eh     change       -0.2077377E-04 Eh
   gradient norm :     0.0009928 Eh/α   predicted    -0.8026696E-05 ( -61.36%)
   displ. norm   :     0.0705213 α      lambda       -0.1470215E-04
   maximum displ.:     0.0634775 α      in ANC's #1, #3, #7, ...

........................................................................
.............................. CYCLE   19 ..............................
........................................................................

 iter      E             dE          RMSdq      gap      omega  full diag
   1    -52.9424806 -0.529425E+02  0.420E-02    3.14       0.0  T
   2    -52.9424808 -0.147658E-06  0.226E-02    3.15       1.0  T
   3    -52.9424808 -0.264208E-07  0.341E-03    3.14       6.2  T
   4    -52.9424808  0.801639E-08  0.215E-03    3.15       9.9  T
   5    -52.9424808 -0.414123E-07  0.874E-04    3.15      24.4  T
   6    -52.9424808 -0.124216E-08  0.706E-04    3.15      30.2  T
     SCC iter.                  ...        0 min,  0.011 sec
     gradient                   ...        0 min,  0.004 sec
 * total energy  :   -52.4757667 Eh     change       -0.1864101E-04 Eh
   gradient norm :     0.0011081 Eh/α   predicted    -0.7370017E-05 ( -60.46%)
   displ. norm   :     0.0892346 α      lambda       -0.1743655E-04
   maximum displ.:     0.0705590 α      in ANC's #1, #3, #7, ...

........................................................................
.............................. CYCLE   20 ..............................
........................................................................

 iter      E             dE          RMSdq      gap      omega  full diag
   1    -52.9424078 -0.529424E+02  0.565E-02    3.14       0.0  T
   2    -52.9424080 -0.230129E-06  0.309E-02    3.14       1.0  T
   3    -52.9424078  0.168250E-06  0.566E-03    3.14       3.8  T
   4    -52.9424080 -0.215417E-06  0.343E-03    3.14       6.2  T
   5    -52.9424081 -0.773287E-07  0.128E-03    3.14      16.6  T
   6    -52.9424081 -0.319302E-08  0.104E-03    3.14      20.5  T
   7    -52.9424081 -0.326452E-08  0.551E-04    3.14      38.7  T
   8    -52.9424081 -0.193334E-08  0.243E-04    3.14      87.6  T
     SCC iter.                  ...        0 min,  0.014 sec
     gradient                   ...        0 min,  0.004 sec
 * total energy  :   -52.4757880 Eh     change       -0.2127902E-04 Eh
   gradient norm :     0.0011053 Eh/α   predicted    -0.8751702E-05 ( -58.87%)
   displ. norm   :     0.1199223 α      lambda       -0.1917097E-04
   maximum displ.:     0.0883218 α      in ANC's #1, #3, #8, ...
 * RMSD in coord.:     0.4279045 α      energy gain  -0.1598969E-01 Eh

generating ANC from exact Hessian ...
Using Lindh-Hessian (1995)
 Shifting diagonal of input Hessian by   9.159080287987289E-003
 Lowest  eigenvalues of input Hessian
    0.000000    0.000000    0.000000    0.000000    0.000000    0.000000
    0.010000    0.010293    0.011062    0.012844    0.013579    0.013871
    0.014283    0.014911    0.016371    0.016954    0.018737    0.022084
 Highest eigenvalues
    1.739969    1.763630    1.798921    1.814835    2.027836    2.393456
 

........................................................................
.............................. CYCLE   21 ..............................
........................................................................

 iter      E             dE          RMSdq      gap      omega  full diag
   1    -52.9419731 -0.529420E+02  0.818E-02    3.14       0.0  T
   2    -52.9419737 -0.531334E-06  0.441E-02    3.14       1.0  T
   3    -52.9419735  0.187627E-06  0.770E-03    3.14       2.8  T
   4    -52.9419737 -0.252214E-06  0.488E-03    3.14       4.4  T
   5    -52.9419739 -0.168338E-06  0.170E-03    3.14      12.6  T
   6    -52.9419739 -0.120203E-07  0.128E-03    3.14      16.6  T
   7    -52.9419739 -0.391087E-08  0.656E-04    3.14      32.5  T
   8    -52.9419739 -0.147911E-08  0.210E-04    3.14     101.5  T
     SCC iter.                  ...        0 min,  0.014 sec
     gradient                   ...        0 min,  0.004 sec
 * total energy  :   -52.4758101 Eh     change       -0.2206002E-04 Eh
   gradient norm :     0.0010271 Eh/α   predicted     0.0000000E+00 (-100.00%)
   displ. norm   :     0.0306169 α      lambda       -0.6980670E-05
   maximum displ.:     0.0232687 α      in ANC's #1, #7, #2, ...

........................................................................
.............................. CYCLE   22 ..............................
........................................................................

 iter      E             dE          RMSdq      gap      omega  full diag
   1    -52.9424018 -0.529424E+02  0.220E-02    3.15       0.0  T
   2    -52.9424019 -0.930462E-07  0.116E-02    3.14       1.8  T
   3    -52.9424018  0.366987E-07  0.336E-03    3.15       6.3  T
   4    -52.9424019 -0.740138E-07  0.228E-03    3.14       9.3  T
   5    -52.9424019 -0.147965E-07  0.116E-03    3.14      18.4  T
   6    -52.9424019 -0.459136E-08  0.796E-04    3.14      26.8  T
   7    -52.9424019 -0.269779E-08  0.477E-04    3.14      44.7  T
     SCC iter.                  ...        0 min,  0.013 sec
     gradient                   ...        0 min,  0.004 sec
 * total energy  :   -52.4758149 Eh     change       -0.4794235E-05 Eh
   gradient norm :     0.0007845 Eh/α   predicted    -0.3548603E-05 ( -25.98%)
   displ. norm   :     0.0506129 α      lambda       -0.1009229E-04
   maximum displ.:     0.0362888 α      in ANC's #1, #2, #3, ...

   *** GEOMETRY OPTIMIZATION CONVERGED AFTER 22 ITERATIONS ***

------------------------------------------------------------------------
 total energy gain   :        -0.0160165 Eh      -10.0505 kcal/mol
 total RMSD          :         0.4318484 a0        0.2285 Å
 total power (kW/mol):        -1.9114287 (step)  -66.4487 (real)
------------------------------------------------------------------------

 ANCopt (total)                0 d,  0 h,  0 min,  0.633 sec
 optimizer setup                ...        0 min,  0.000 sec (  0.018%)
 model hessian                  ...        0 min,  0.008 sec (  1.251%)
 ANC generation                 ...        0 min,  0.001 sec (  0.186%)
 coordinate transformation      ...        0 min,  0.000 sec (  0.031%)
 single point calculation       ...        0 min,  0.614 sec ( 96.968%)
 optimization log               ...        0 min,  0.003 sec (  0.535%)
 hessian update                 ...        0 min,  0.003 sec (  0.474%)
 rational function              ...        0 min,  0.002 sec (  0.342%)

================
 final structure:
================
22
 xtb: 6.7.1 (edcfbbe)
Br          -5.41104505182866        1.05086644798423        0.43000463276132
C           -3.66514436892401        0.37726559208769        0.25756941294828
C           -2.74551776679359        0.54528615249592        1.28993570357558
Br          -3.25336891857350        1.44527699004941        2.85893001875919
C           -1.45387044550918        0.04295356550474        1.15046607272139
Br          -0.23337833011233        0.28509023868102        2.56565519699248
C           -1.05676169731580       -0.62958317468263       -0.00677301868936
C            0.36005337841100       -1.10675137097372       -0.11997192387325
O            1.19915032123914        0.04261382413418       -0.12038326926239
C            2.52688938162288       -0.20410974651192       -0.13200955179789
O            2.98162274898875       -1.31732898223839       -0.14361678116383
C            3.28811458403670        1.05799957093719       -0.13032349882866
C            4.61159218188960        1.05487697583185       -0.19873445214587
C           -1.98776738698516       -0.78445321528232       -1.03226142794171
Br          -1.53447621597144       -1.67579666871432       -2.63497354938039
C           -3.28669937461079       -0.29010146098344       -0.90399106209404
Br          -4.53303995022667       -0.50969711470498       -2.29359511720525
H            0.53196849129379       -1.68180588349095       -1.03420879963380
H            0.62539628727697       -1.74672018591423        0.73311562280721
H            2.69862599317314        1.96011781979157       -0.07417463792765
H            5.14794780326793        0.12151821288094       -0.25733290310964
H            5.18970933565125        1.96248441311811       -0.20332766751214
 
 Bond Distances (Angstroems)
 ---------------------------
Br1-C2=1.8793        C2-Br1=1.8793        C2-C3=1.3927         C2-C16=1.3921        C3-C2=1.3927         C3-Br4=1.8787        
C3-C5=1.3929         Br4-C3=1.8787        C5-C3=1.3929         C5-Br6=1.8844        C5-C7=1.3961         Br6-C5=1.8844        
C7-C5=1.3961         C7-C8=1.4993         C7-C14=1.3937        C8-C7=1.4993         C8-O9=1.4231         C8-H18=1.0937        
C8-H19=1.0990        O9-C8=1.4231         O9-C10=1.3505        C10-O9=1.3505        C10-O11=1.2026       C10-C12=1.4739       
O11-C10=1.2026       C12-C10=1.4739       C12-C13=1.3252       C12-H20=1.0791       C13-C12=1.3252       C13-H21=1.0781       
C13-H22=1.0761       C14-C7=1.3937        C14-Br15=1.8891      C14-C16=1.3957       Br15-C14=1.8891      C16-C2=1.3921        
C16-C14=1.3957       C16-Br17=1.8795      Br17-C16=1.8795      H18-C8=1.0937        H19-C8=1.0990        H20-C12=1.0791       
H21-C13=1.0781       H22-C13=1.0761       
 C  H  Rav=1.0852 sigma=0.0093  Rmin=1.0761  Rmax=1.0990     5
 C  C  Rav=1.4069 sigma=0.0480  Rmin=1.3252  Rmax=1.4993     9
 O  C  Rav=1.3254 sigma=0.0918  Rmin=1.2026  Rmax=1.4231     3
 Br C  Rav=1.8822 sigma=0.0040  Rmin=1.8787  Rmax=1.8891     5
 
 selected bond angles (degree)
 --------------------
C3-C2-Br1=120.14               C16-C2-Br1=120.06              C16-C2-C3=119.79               Br4-C3-C2=119.89               
C5-C3-C2=119.64                C5-C3-Br4=120.47               Br6-C5-C3=118.62               C7-C5-C3=121.36                
C7-C5-Br6=120.01               C8-C7-C5=118.99                C14-C7-C5=118.26               C14-C7-C8=122.71               
O9-C8-C7=107.47                H18-C8-C7=112.27               H18-C8-O9=109.38               H19-C8-C7=110.79               
H19-C8-O9=109.16               H19-C8-H18=107.74              C10-O9-C8=115.60               O11-C10-O9=122.75              
C12-C10-O9=110.57              C12-C10-O11=126.68             
 
 selected dihedral angles (degree)
 ---------------------------------
Br4-C3-C2-Br1=  0.09          Br4-C3-C2-C16=180.01          C5-C3-C2-Br1=180.06           C5-C3-C2-C16=  0.00           
Br6-C5-C3-C2=180.05           Br6-C5-C3-Br4=  0.03          C7-C5-C3-C2=  0.00            C7-C5-C3-Br4=179.95           
C8-C7-C5-C3=177.90            C8-C7-C5-Br6=357.83           C14-C7-C5-C3=  0.27           C14-C7-C5-Br6=180.19          
O9-C8-C7-C5=296.06            O9-C8-C7-C14=113.59           H18-C8-C7-C5=175.75           H18-C8-C7-C14=353.28          
H19-C8-C7-C5= 55.24           H19-C8-C7-C14=232.77          C10-O9-C8-C7=176.00           C10-O9-C8-H18=298.14          
C10-O9-C8-H19= 55.79          O11-C10-O9-C8=  0.12          C12-C10-O9-C8=180.04          
           -------------------------------------------------
          |                Final Singlepoint                |
           -------------------------------------------------

          ...................................................
          :                      SETUP                      :
          :.................................................:
          :  # basis functions                 103          :
          :  # atomic orbitals                  98          :
          :  # shells                           44          :
          :  # electrons                        92          :
          :  max. iterations                   250          :
          :  Hamiltonian                  GFN2-xTB          :
          :  restarted?                      false          :
          :  GBSA solvation                  false          :
          :  PC potential                    false          :
          :  electronic temp.          300.0000000     K    :
          :  accuracy                    1.0000000          :
          :  -> integral cutoff          0.2500000E+02      :
          :  -> integral neglect         0.1000000E-07      :
          :  -> SCF convergence          0.1000000E-05 Eh   :
          :  -> wf. convergence          0.1000000E-03 e    :
          :  Broyden damping             0.4000000          :
          :  net charge                          0          :
          :  unpaired electrons                  0          :
          ...................................................

 iter      E             dE          RMSdq      gap      omega  full diag
   1    -52.9424019 -0.529424E+02  0.268E-04    3.14       0.0  T
   2    -52.9424019 -0.160689E-09  0.235E-04    3.14      90.5  T
   3    -52.9424019 -0.390095E-09  0.180E-04    3.14     118.4  T

   *** convergence criteria satisfied after 3 iterations ***

         #    Occupation            Energy/Eh            Energy/eV
      -------------------------------------------------------------
         1        2.0000           -0.8827063             -24.0197
       ...           ...                  ...                  ...
        40        2.0000           -0.4533251             -12.3356
        41        2.0000           -0.4514381             -12.2843
        42        2.0000           -0.4451100             -12.1121
        43        2.0000           -0.4399086             -11.9705
        44        2.0000           -0.4373680             -11.9014
        45        2.0000           -0.4345883             -11.8258
        46        2.0000           -0.4325223             -11.7695 (HOMO)
        47                         -0.3169536              -8.6247 (LUMO)
        48                         -0.3163208              -8.6075
        49                         -0.2954159              -8.0387
        50                         -0.2841719              -7.7327
        51                         -0.2508838              -6.8269
       ...                                ...                  ...
        98                          0.6920356              18.8312
      -------------------------------------------------------------
                  HL-Gap            0.1155686 Eh            3.1448 eV
             Fermi-level           -0.3747379 Eh          -10.1971 eV

 SCC (total)                   0 d,  0 h,  0 min,  0.013 sec
 SCC setup                      ...        0 min,  0.001 sec (  6.322%)
 Dispersion                     ...        0 min,  0.000 sec (  0.822%)
 classical contributions        ...        0 min,  0.000 sec (  1.156%)
 integral evaluation            ...        0 min,  0.002 sec ( 12.375%)
 iterations                     ...        0 min,  0.006 sec ( 42.314%)
 molecular gradient             ...        0 min,  0.004 sec ( 32.415%)
 printout                       ...        0 min,  0.001 sec (  4.424%)

         :::::::::::::::::::::::::::::::::::::::::::::::::::::
         ::                     SUMMARY                     ::
         :::::::::::::::::::::::::::::::::::::::::::::::::::::
         :: total energy             -52.475814865416 Eh    ::
         :: gradient norm              0.000784870847 Eh/a0 ::
         :: HOMO-LUMO gap              3.144782782216 eV    ::
         ::.................................................::
         :: SCC energy               -52.942318677125 Eh    ::
         :: -> isotropic ES            0.052908308098 Eh    ::
         :: -> anisotropic ES          0.007115631498 Eh    ::
         :: -> anisotropic XC          0.004320588526 Eh    ::
         :: -> dispersion             -0.034201317555 Eh    ::
         :: repulsion energy           0.466503811709 Eh    ::
         :: add. restraining           0.000000000000 Eh    ::
         :: total charge               0.000000000000 e     ::
         :::::::::::::::::::::::::::::::::::::::::::::::::::::

           -------------------------------------------------
          |                Property Printout                |
           -------------------------------------------------

    * Orbital Energies and Occupations

         #    Occupation            Energy/Eh            Energy/eV
      -------------------------------------------------------------
         1        2.0000           -0.8827063             -24.0197
       ...           ...                  ...                  ...
        34        2.0000           -0.4757014             -12.9445
        35        2.0000           -0.4669614             -12.7067
        36        2.0000           -0.4630153             -12.5993
        37        2.0000           -0.4609019             -12.5418
        38        2.0000           -0.4593107             -12.4985
        39        2.0000           -0.4558133             -12.4033
        40        2.0000           -0.4533251             -12.3356
        41        2.0000           -0.4514381             -12.2843
        42        2.0000           -0.4451100             -12.1121
        43        2.0000           -0.4399086             -11.9705
        44        2.0000           -0.4373680             -11.9014
        45        2.0000           -0.4345883             -11.8258
        46        2.0000           -0.4325223             -11.7695 (HOMO)
        47                         -0.3169536              -8.6247 (LUMO)
        48                         -0.3163208              -8.6075
        49                         -0.2954159              -8.0387
        50                         -0.2841719              -7.7327
        51                         -0.2508838              -6.8269
        52                         -0.2485267              -6.7628
        53                         -0.2335101              -6.3541
        54                         -0.2209392              -6.0121
        55                         -0.2109112              -5.7392
        56                         -0.1845190              -5.0210
        57                         -0.0234460              -0.6380
       ...                                ...                  ...
        98                          0.6920356              18.8312
      -------------------------------------------------------------
                  HL-Gap            0.1155686 Eh            3.1448 eV
             Fermi-level           -0.3747379 Eh          -10.1971 eV

     #   Z          covCN         q      C6AA      α(0)
     1  35 Br       1.498    -0.061   186.717    22.032
     2   6 C        3.072     0.058    26.627     8.461
     3   6 C        3.072     0.058    26.637     8.462
     4  35 Br       1.509    -0.063   186.763    22.035
     5   6 C        2.992     0.063    26.572     8.456
     6  35 Br       1.320    -0.076   187.140    22.057
     7   6 C        3.101    -0.004    28.002     8.671
     8   6 C        3.722     0.092    19.155     6.251
     9   8 O        1.707    -0.265    18.396     5.791
    10   6 C        2.730     0.358    20.922     7.488
    11   8 O        0.856    -0.396    21.598     6.231
    12   6 C        2.888    -0.056    29.391     8.888
    13   6 C        2.843    -0.055    29.359     8.880
    14   6 C        2.986     0.057    26.704     8.477
    15  35 Br       1.320    -0.082   187.311    22.067
    16   6 C        3.076     0.058    26.631     8.461
    17  35 Br       1.537    -0.063   186.761    22.035
    18   1 H        0.924     0.077     2.014     2.220
    19   1 H        0.923     0.075     2.027     2.226
    20   1 H        0.926     0.069     2.092     2.262
    21   1 H        0.926     0.084     1.933     2.174
    22   1 H        0.926     0.072     2.069     2.249

 Mol. C6AA /au·bohr⁶  :      18256.007457
 Mol. C8AA /au·bohr⁸  :     776536.620097
 Mol. α(0) /au        :        215.874252


Wiberg/Mayer (AO) data.
largest (>0.10) Wiberg bond orders for each atom

 ---------------------------------------------------------------------------
     #   Z sym  total        # sym  WBO       # sym  WBO       # sym  WBO
 ---------------------------------------------------------------------------
     1  35 Br   1.243 --     2 C    1.037
     2   6 C    3.955 --    16 C    1.357     3 C    1.353     1 Br   1.037
     3   6 C    3.956 --     5 C    1.357     2 C    1.353     4 Br   1.037
     4  35 Br   1.243 --     3 C    1.037
     5   6 C    3.955 --     7 C    1.362     3 C    1.357     6 Br   1.029
     6  35 Br   1.219 --     5 C    1.029
     7   6 C    3.986 --    14 C    1.373     5 C    1.362     8 C    1.008
     8   6 C    3.932 --     7 C    1.008    18 H    0.955     9 O    0.949
                            19 H    0.948
     9   8 O    2.288 --    10 C    1.085     8 C    0.949    11 O    0.165
    10   6 C    3.914 --    11 O    1.747     9 O    1.085    12 C    1.018
    11   8 O    2.053 --    10 C    1.747     9 O    0.165
    12   6 C    3.985 --    13 C    1.923    10 C    1.018    20 H    0.964
    13   6 C    3.976 --    12 C    1.923    22 H    0.974    21 H    0.969
    14   6 C    3.952 --     7 C    1.373    16 C    1.351    15 Br   1.021
    15  35 Br   1.211 --    14 C    1.021
    16   6 C    3.956 --     2 C    1.357    14 C    1.351    17 Br   1.037
    17  35 Br   1.246 --    16 C    1.037
    18   1 H    0.993 --     8 C    0.955
    19   1 H    0.993 --     8 C    0.948
    20   1 H    0.995 --    12 C    0.964
    21   1 H    0.993 --    13 C    0.969
    22   1 H    0.994 --    13 C    0.974
 ---------------------------------------------------------------------------

Topologies differ in total number of bonds
Writing topology from bond orders to xtbtopo.mol

molecular dipole:
                 x           y           z       tot (Debye)
 q only:        0.539       0.441      -0.012
   full:        0.784       0.425      -0.083       2.277
molecular quadrupole (traceless):
                xx          xy          yy          xz          yz          zz
 q only:        1.395      11.336       3.139      -1.816      -3.785      -4.534
  q+dip:       -3.582      15.680      13.318      -4.675     -11.807      -9.735
   full:       -4.594      16.228      12.257      -4.242     -11.350      -7.663

           -------------------------------------------------
          |                Geometry Summary                 |
           -------------------------------------------------

      molecular mass/u    :      556.6635115
   center of mass at/Å    :       -2.0758155       0.0513574       0.1275720
  moments of inertia/u·Å² :        0.2769046E+04   0.4002634E+04   0.6447031E+04
rotational constants/cm⁻¹ :        0.6087886E-02   0.4211635E-02   0.2614790E-02

 * 20 selected distances

     #   Z          #   Z                                           value/Å
     1  35 Br       2   6 C                                       1.8792663
     2   6 C        3   6 C                                       1.3927399
     3   6 C        4  35 Br                                      1.8787336
     3   6 C        5   6 C                                       1.3928901
     5   6 C        6  35 Br                                      1.8844076
     5   6 C        7   6 C                                       1.3961389
     8   6 C        9   8 O                                       1.4230687
     9   8 O       10   6 C                                       1.3505181
    10   6 C       11   8 O                                       1.2025700
    12   6 C       13   6 C                                       1.3252483
     7   6 C       14   6 C                                       1.3936941
    14   6 C       15  35 Br                                      1.8890878 (max)
     2   6 C       16   6 C                                       1.3920569
    14   6 C       16   6 C                                       1.3957298
    16   6 C       17  35 Br                                      1.8795178
     8   6 C       18   1 H                                       1.0936507
     8   6 C       19   1 H                                       1.0989657
    12   6 C       20   1 H                                       1.0791047
    13   6 C       21   1 H                                       1.0780862
    13   6 C       22   1 H                                       1.0761004 (min)

 * 4 distinct bonds (by element types)

   Z      Z             #   av. dist./Å        max./Å        min./Å
   1 H    6 C           5     1.0851815     1.0989657     1.0761004
   6 C    6 C           7     1.3840711     1.3961389     1.3252483
   6 C    8 O           3     1.3253856     1.4230687     1.2025700
   6 C   35 Br          5     1.8822026     1.8890878     1.8787336


optimized geometry written to: xtbopt.xyz


           -------------------------------------------------
          | TOTAL ENERGY              -52.475814865416 Eh   |
          | GRADIENT NORM               0.000784870847 Eh/α |
          | HOMO-LUMO GAP               3.144782782216 eV   |
           -------------------------------------------------

------------------------------------------------------------------------
 * finished run on 2025/12/01 at 14:17:37.997     
------------------------------------------------------------------------
 total:
 * wall-time:     0 d,  0 h,  0 min,  0.747 sec
 *  cpu-time:     0 d,  0 h,  0 min, 16.670 sec
 * ratio c/w:    22.304 speedup
 SCF:
 * wall-time:     0 d,  0 h,  0 min,  0.071 sec
 *  cpu-time:     0 d,  0 h,  0 min,  1.622 sec
 * ratio c/w:    22.718 speedup
 ANC optimizer:
 * wall-time:     0 d,  0 h,  0 min,  0.647 sec
 *  cpu-time:     0 d,  0 h,  0 min, 14.786 sec
 * ratio c/w:    22.847 speedup

normal termination of xtb
