      -----------------------------------------------------------      
     |                   =====================                   |     
     |                           x T B                           |     
     |                   =====================                   |     
     |                         S. Grimme                         |     
     |          Mulliken Center for Theoretical Chemistry        |     
     |                    University of Bonn                     |     
      -----------------------------------------------------------      

   * xtb version 6.7.1 (edcfbbe) compiled by 'albert@albert-system' on 2024-07-22

   xtb is free software: you can redistribute it and/or modify it under
   the terms of the GNU Lesser General Public License as published by
   the Free Software Foundation, either version 3 of the License, or
   (at your option) any later version.
   
   xtb is distributed in the hope that it will be useful,
   but WITHOUT ANY WARRANTY; without even the implied warranty of
   MERCHANTABILITY or FITNESS FOR A PARTICULAR PURPOSE.  See the
   GNU Lesser General Public License for more details.
   
   Cite this work as:
   * C. Bannwarth, E. Caldeweyher, S. Ehlert, A. Hansen, P. Pracht,
     J. Seibert, S. Spicher, S. Grimme, WIREs Comput. Mol. Sci., 2020, 11,
     e01493. DOI: 10.1002/wcms.1493
   
   for GFN2-xTB:
   * C. Bannwarth, S. Ehlert and S. Grimme., J. Chem. Theory Comput., 2019,
     15, 1652-1671. DOI: 10.1021/acs.jctc.8b01176
   for GFN1-xTB:
   * S. Grimme, C. Bannwarth, P. Shushkov, J. Chem. Theory Comput., 2017,
     13, 1989-2009. DOI: 10.1021/acs.jctc.7b00118
   for GFN0-xTB:
   * P. Pracht, E. Caldeweyher, S. Ehlert, S. Grimme, ChemRxiv, 2019, preprint.
     DOI: 10.26434/chemrxiv.8326202.v1
   for GFN-FF:
   * S. Spicher and S. Grimme, Angew. Chem. Int. Ed., 2020, 59, 15665-15673.
     DOI: 10.1002/anie.202004239
   
   for ALPB and GBSA implicit solvation:
   * S. Ehlert, M. Stahn, S. Spicher, S. Grimme, J. Chem. Theory Comput.,
     2021, 17, 4250-4261. DOI: 10.1021/acs.jctc.1c00471
   
   for ddCOSMO and CPCM-X implicit solvation:
   * M. Stahn, S. Ehlert, S. Grimme, J. Phys. Chem. A,
     2023, XX, XXXX-XXXX. DOI: 10.1021/acs.jpca.3c04382
   
   for DFT-D4:
   * E. Caldeweyher, C. Bannwarth and S. Grimme, J. Chem. Phys., 2017,
     147, 034112. DOI: 10.1063/1.4993215
   * E. Caldeweyher, S. Ehlert, A. Hansen, H. Neugebauer, S. Spicher,
     C. Bannwarth and S. Grimme, J. Chem. Phys., 2019, 150, 154122.
     DOI: 10.1063/1.5090222
   * E. Caldeweyher, J.-M. Mewes, S. Ehlert and S. Grimme, Phys. Chem. Chem. Phys.
     2020, 22, 8499-8512. DOI: 10.1039/D0CP00502A
   
   for sTDA-xTB:
   * S. Grimme and C. Bannwarth, J. Chem. Phys., 2016, 145, 054103.
     DOI: 10.1063/1.4959605
   
   in the mass-spec context:
   * V. Asgeirsson, C. Bauer and S. Grimme, Chem. Sci., 2017, 8, 4879.
     DOI: 10.1039/c7sc00601b
   * J. Koopman and S. Grimme, ACS Omega 2019, 4, 12, 15120-15133.
     DOI: 10.1021/acsomega.9b02011
   
   for metadynamics refer to:
   * S. Grimme, J. Chem. Theory Comput., 2019, 155, 2847-2862
     DOI: 10.1021/acs.jctc.9b00143
   
   for SPH calculations refer to:
   * S. Spicher and S. Grimme, J. Chem. Theory Comput., 2021, 17, 1701-1714
     DOI: 10.1021/acs.jctc.0c01306
   
   for ONIOM refer to:
   * C. Plett, A. Katbashev, S. Ehlert, S. Grimme, M. Bursch,
     Phys. Chem. Chem. Phys., 2023, 25, 17860-17868. DOI: 10.1039/D3CP02178E
   
   for DIPRO refer to:
   * J. Kohn, N. Gildemeister, S. Grimme, D. Fazzi, A. Hansen,
     J. Chem. Phys., 2023, just accepted.
   
   for PTB refer to:
   * S. Grimme, M. Mueller, A. Hansen, J. Chem. Phys., 2023, 158, 124111.
     DOI: 10.1063/5.0137838
   
   with help from (in alphabetical order)
   P. Atkinson, C. Bannwarth, F. Bohle, G. Brandenburg, E. Caldeweyher
   M. Checinski, S. Dohm, S. Ehlert, S. Ehrlich, I. Gerasimov, C. Hölzer
   A. Katbashev, J. Kohn, J. Koopman, C. Lavigne, S. Lehtola, F. März, M. Müller,
   F. Musil, H. Neugebauer, J. Pisarek, C. Plett, P. Pracht, F. Pultar,
   J. Seibert, P. Shushkov, S. Spicher, M. Stahn, M. Steiner, T. Strunk,
   J. Stückrath, T. Rose, and J. Unsleber
   
 * started run on 2025/12/01 at 14:17:38.757     
   ID    Z sym.   atoms
    1   35 Br     1, 4, 6, 15, 17
    2    6 C      2, 3, 5, 7, 8, 10, 12-14, 16
    3    8 O      9, 11
    4    1 H      18-22

           -------------------------------------------------
          |                Calculation Setup                |
           -------------------------------------------------

          program call               : xtb pipeline_data/3_conformer_xyz/acrylates/rdkit/GRKDVZMVHOLESV-UHFFFAOYSA-N_conf204.xyz --opt --gfn 2-xTB --iterations 250
          coordinate file            : pipeline_data/3_conformer_xyz/acrylates/rdkit/GRKDVZMVHOLESV-UHFFFAOYSA-N_conf204.xyz
          omp threads                :                    24

########################################################################
[WARNING] Please study the warnings concerning your input carefully
-1- readin_getIntValue: could not parse '2-xTB'
########################################################################

           -------------------------------------------------
          |                 G F N 2 - x T B                 |
           -------------------------------------------------

        Reference                      10.1021/acs.jctc.8b01176
      * Hamiltonian:
        H0-scaling (s, p, d)           1.850000    2.230000    2.230000
        zeta-weighting                 0.500000
      * Dispersion:
        s8                             2.700000
        a1                             0.520000
        a2                             5.000000
        s9                             5.000000
      * Repulsion:
        kExp                           1.500000    1.000000
        rExp                           1.000000
      * Coulomb:
        alpha                          2.000000
        third order                    shell-resolved
        anisotropic                    true
        a3                             3.000000
        a5                             4.000000
        cn-shift                       1.200000
        cn-exp                         4.000000
        max-rad                        5.000000

q/qsh data taken from xtbrestart
CAMM data taken from xtbrestart

          ...................................................
          :                      SETUP                      :
          :.................................................:
          :  # basis functions                 103          :
          :  # atomic orbitals                  98          :
          :  # shells                           44          :
          :  # electrons                        92          :
          :  max. iterations                   250          :
          :  Hamiltonian                  GFN2-xTB          :
          :  restarted?                       true          :
          :  GBSA solvation                  false          :
          :  PC potential                    false          :
          :  electronic temp.          300.0000000     K    :
          :  accuracy                    1.0000000          :
          :  -> integral cutoff          0.2500000E+02      :
          :  -> integral neglect         0.1000000E-07      :
          :  -> SCF convergence          0.1000000E-05 Eh   :
          :  -> wf. convergence          0.1000000E-03 e    :
          :  Broyden damping             0.4000000          :
          :  net charge                          0          :
          :  unpaired electrons                  0          :
          ...................................................

 iter      E             dE          RMSdq      gap      omega  full diag
   1    -52.8779189 -0.528779E+02  0.740E+00    3.19       0.0  T
   2    -52.8943585 -0.164396E-01  0.404E+00    3.03       1.0  T
   3    -52.8844612  0.989729E-02  0.152E+00    3.38       1.0  T
   4    -52.9037639 -0.193027E-01  0.848E-01    3.04       1.0  T
   5    -52.9036615  0.102449E-03  0.409E-01    3.10       1.0  T
   6    -52.9049242 -0.126268E-02  0.254E-01    3.12       1.0  T
   7    -52.9051655 -0.241312E-03  0.135E-01    3.10       1.0  T
   8    -52.9052353 -0.698327E-04  0.708E-02    3.11       1.0  T
   9    -52.9052568 -0.215365E-04  0.517E-02    3.11       1.0  T
  10    -52.9052645 -0.768399E-05  0.341E-02    3.11       1.0  T
  11    -52.9052700 -0.548786E-05  0.208E-02    3.11       1.0  T
  12    -52.9052722 -0.213949E-05  0.112E-02    3.11       1.9  T
  13    -52.9052726 -0.451886E-06  0.611E-03    3.11       3.5  T
  14    -52.9052728 -0.232485E-06  0.347E-03    3.11       6.1  T
  15    -52.9052729 -0.432297E-07  0.205E-03    3.11      10.4  T
  16    -52.9052729 -0.750095E-08  0.130E-03    3.11      16.4  T
  17    -52.9052729 -0.106073E-07  0.842E-04    3.11      25.3  T
  18    -52.9052729 -0.266417E-08  0.383E-04    3.11      55.6  T

   *** convergence criteria satisfied after 18 iterations ***

         #    Occupation            Energy/Eh            Energy/eV
      -------------------------------------------------------------
         1        2.0000           -0.8806395             -23.9634
       ...           ...                  ...                  ...
        40        2.0000           -0.4520726             -12.3015
        41        2.0000           -0.4502233             -12.2512
        42        2.0000           -0.4461202             -12.1395
        43        2.0000           -0.4394477             -11.9580
        44        2.0000           -0.4367394             -11.8843
        45        2.0000           -0.4345636             -11.8251
        46        2.0000           -0.4341880             -11.8149 (HOMO)
        47                         -0.3197256              -8.7002 (LUMO)
        48                         -0.3160795              -8.6010
        49                         -0.3044628              -8.2849
        50                         -0.2933405              -7.9822
        51                         -0.2599033              -7.0723
       ...                                ...                  ...
        98                          0.6121330              16.6570
      -------------------------------------------------------------
                  HL-Gap            0.1144624 Eh            3.1147 eV
             Fermi-level           -0.3769568 Eh          -10.2575 eV

 SCC (total)                   0 d,  0 h,  0 min,  0.052 sec
 SCC setup                      ...        0 min,  0.000 sec (  0.923%)
 Dispersion                     ...        0 min,  0.000 sec (  0.724%)
 classical contributions        ...        0 min,  0.000 sec (  0.689%)
 integral evaluation            ...        0 min,  0.011 sec ( 21.880%)
 iterations                     ...        0 min,  0.034 sec ( 65.526%)
 molecular gradient             ...        0 min,  0.005 sec (  9.446%)
 printout                       ...        0 min,  0.000 sec (  0.728%)

         :::::::::::::::::::::::::::::::::::::::::::::::::::::
         ::                     SUMMARY                     ::
         :::::::::::::::::::::::::::::::::::::::::::::::::::::
         :: total energy             -52.457649533486 Eh    ::
         :: gradient norm              0.121940165808 Eh/a0 ::
         :: HOMO-LUMO gap              3.114680853815 eV    ::
         ::.................................................::
         :: SCC energy               -52.905215236977 Eh    ::
         :: -> isotropic ES            0.056943220208 Eh    ::
         :: -> anisotropic ES          0.005794794605 Eh    ::
         :: -> anisotropic XC          0.007931018524 Eh    ::
         :: -> dispersion             -0.033555151366 Eh    ::
         :: repulsion energy           0.447565703491 Eh    ::
         :: add. restraining           0.000000000000 Eh    ::
         :: total charge              -0.000000000000 e     ::
         :::::::::::::::::::::::::::::::::::::::::::::::::::::

      ----------------------------------------------------------- 
     |                   =====================                   |
     |                        A N C O P T                        |
     |                   =====================                   |
     |               Approximate Normal Coordinate               |
     |                Rational Function Optimizer                |
      ----------------------------------------------------------- 
      ----------------------------------------------------------- 
     |                   =====================                   |
     |                        A N C O P T                        |
     |                   =====================                   |
     |               Approximate Normal Coordinate               |
     |                Rational Function Optimizer                |
      ----------------------------------------------------------- 

          ...................................................
          :                      SETUP                      :
          :.................................................:
          :   optimization level            normal          :
          :   max. optcycles                   200          :
          :   ANC micro-cycles                  20          :
          :   degrees of freedom                60          :
          :.................................................:
          :   RF solver                   davidson          :
          :   write xtbopt.log                true          :
          :   linear?                        false          :
          :   energy convergence         0.5000000E-05 Eh   :
          :   grad. convergence          0.1000000E-02 Eh/α :
          :   maxmium RF displ.          1.0000000          :
          :   Hlow (freq-cutoff)         0.1000000E-01      :
          :   Hmax (freq-cutoff)         5.0000000          :
          :   S6 in model hess.         20.0000000          :
          ...................................................

generating ANC from exact Hessian ...
Using Lindh-Hessian (1995)
 Shifting diagonal of input Hessian by   9.275123421994186E-003
 Lowest  eigenvalues of input Hessian
    0.000000    0.000000    0.000000    0.000000    0.000000    0.000000
    0.010000    0.010141    0.010334    0.011100    0.012590    0.012881
    0.013460    0.013935    0.014326    0.014695    0.016154    0.020435
 Highest eigenvalues
    1.707855    1.765855    1.810168    1.856090    2.001605    2.107235
 

........................................................................
.............................. CYCLE    1 ..............................
........................................................................

 iter      E             dE          RMSdq      gap      omega  full diag
   1    -52.9052729 -0.529053E+02  0.214E-04    3.11       0.0  T
   2    -52.9052729 -0.134428E-09  0.161E-04    3.11     132.8  T
   3    -52.9052729 -0.115612E-09  0.132E-04    3.11     162.0  T
     SCC iter.                  ...        0 min,  0.006 sec
     gradient                   ...        0 min,  0.004 sec
 * total energy  :   -52.4576495 Eh     change       -0.8748060E-09 Eh
   gradient norm :     0.1219414 Eh/α   predicted     0.0000000E+00 (-100.00%)
   displ. norm   :     0.3798712 α      lambda       -0.1863946E-01
   maximum displ.:     0.2152216 α      in ANC's #18, #19, #15, ...

........................................................................
.............................. CYCLE    2 ..............................
........................................................................

 iter      E             dE          RMSdq      gap      omega  full diag
   1    -52.9255611 -0.529256E+02  0.281E-01    3.13       0.0  T
   2    -52.9257668 -0.205644E-03  0.190E-01    3.14       1.0  T
   3    -52.9257188  0.479958E-04  0.118E-01    3.13       1.0  T
   4    -52.9258287 -0.109914E-03  0.591E-02    3.14       1.0  T
   5    -52.9258459 -0.172440E-04  0.390E-02    3.14       1.0  T
   6    -52.9258495 -0.352405E-05  0.243E-02    3.14       1.0  T
   7    -52.9258511 -0.164246E-05  0.123E-02    3.14       1.7  T
   8    -52.9258517 -0.617577E-06  0.771E-03    3.14       2.8  T
   9    -52.9258520 -0.324170E-06  0.489E-03    3.14       4.4  T
  10    -52.9258521 -0.660349E-07  0.368E-03    3.14       5.8  T
  11    -52.9258522 -0.530601E-07  0.199E-03    3.14      10.7  T
  12    -52.9258522 -0.278509E-07  0.715E-04    3.14      29.8  T
  13    -52.9258522 -0.266085E-08  0.382E-04    3.14      55.8  T
     SCC iter.                  ...        0 min,  0.023 sec
     gradient                   ...        0 min,  0.004 sec
 * total energy  :   -52.4704447 Eh     change       -0.1279521E-01 Eh
   gradient norm :     0.0467182 Eh/α   predicted    -0.1068003E-01 ( -16.53%)
   displ. norm   :     0.4401208 α      lambda       -0.7765015E-02
   maximum displ.:     0.1810428 α      in ANC's #18, #19, #10, ...

........................................................................
.............................. CYCLE    3 ..............................
........................................................................

 iter      E             dE          RMSdq      gap      omega  full diag
   1    -52.9374672 -0.529375E+02  0.275E-01    3.13       0.0  T
   2    -52.9376186 -0.151421E-03  0.180E-01    3.14       1.0  T
   3    -52.9375424  0.762152E-04  0.112E-01    3.12       1.0  T
   4    -52.9376672 -0.124805E-03  0.514E-02    3.13       1.0  T
   5    -52.9376786 -0.113613E-04  0.328E-02    3.14       1.0  T
   6    -52.9376811 -0.247264E-05  0.199E-02    3.13       1.1  T
   7    -52.9376822 -0.112867E-05  0.866E-03    3.13       2.5  T
   8    -52.9376826 -0.394490E-06  0.463E-03    3.13       4.6  T
   9    -52.9376828 -0.170598E-06  0.250E-03    3.13       8.5  T
  10    -52.9376828 -0.205425E-07  0.183E-03    3.13      11.6  T
  11    -52.9376828 -0.105776E-07  0.128E-03    3.13      16.7  T
  12    -52.9376828 -0.767286E-08  0.601E-04    3.13      35.5  T
  13    -52.9376828 -0.226368E-08  0.336E-04    3.13      63.4  T
     SCC iter.                  ...        0 min,  0.022 sec
     gradient                   ...        0 min,  0.004 sec
 * total energy  :   -52.4732215 Eh     change       -0.2776786E-02 Eh
   gradient norm :     0.0265448 Eh/α   predicted    -0.4634587E-02 (  66.90%)
   displ. norm   :     0.3683780 α      lambda       -0.3605160E-02
   maximum displ.:     0.1952717 α      in ANC's #5, #1, #4, ...

........................................................................
.............................. CYCLE    4 ..............................
........................................................................

 iter      E             dE          RMSdq      gap      omega  full diag
   1    -52.9392136 -0.529392E+02  0.208E-01    3.13       0.0  T
   2    -52.9392384 -0.247872E-04  0.138E-01    3.14       1.0  T
   3    -52.9392256  0.127703E-04  0.720E-02    3.13       1.0  T
   4    -52.9392517 -0.260583E-04  0.464E-02    3.13       1.0  T
   5    -52.9392592 -0.751108E-05  0.181E-02    3.14       1.2  T
   6    -52.9392607 -0.149801E-05  0.847E-03    3.13       2.5  T
   7    -52.9392613 -0.597044E-06  0.404E-03    3.13       5.3  T
   8    -52.9392613 -0.162927E-07  0.235E-03    3.13       9.1  T
   9    -52.9392613 -0.531335E-07  0.136E-03    3.13      15.7  T
  10    -52.9392613 -0.392406E-08  0.952E-04    3.13      22.4  T
  11    -52.9392613 -0.368738E-08  0.502E-04    3.13      42.5  T
     SCC iter.                  ...        0 min,  0.019 sec
     gradient                   ...        0 min,  0.008 sec
 * total energy  :   -52.4737425 Eh     change       -0.5209248E-03 Eh
   gradient norm :     0.0231151 Eh/α   predicted    -0.2047196E-02 ( 292.99%)
   displ. norm   :     0.2255855 α      lambda       -0.2261124E-02
   maximum displ.:     0.1307800 α      in ANC's #4, #1, #6, ...

........................................................................
.............................. CYCLE    5 ..............................
........................................................................

 iter      E             dE          RMSdq      gap      omega  full diag
   1    -52.9377265 -0.529377E+02  0.152E-01    3.15       0.0  T
   2    -52.9377519 -0.253199E-04  0.100E-01    3.15       1.0  T
   3    -52.9377371  0.147789E-04  0.568E-02    3.15       1.0  T
   4    -52.9377614 -0.242809E-04  0.339E-02    3.15       1.0  T
   5    -52.9377645 -0.317980E-05  0.180E-02    3.15       1.2  T
   6    -52.9377655 -0.985422E-06  0.815E-03    3.15       2.6  T
   7    -52.9377661 -0.540084E-06  0.372E-03    3.15       5.7  T
   8    -52.9377661 -0.891835E-08  0.245E-03    3.15       8.7  T
   9    -52.9377661 -0.502979E-07  0.143E-03    3.15      14.9  T
  10    -52.9377661 -0.478830E-08  0.107E-03    3.15      19.9  T
  11    -52.9377661 -0.333968E-08  0.645E-04    3.15      33.1  T
  12    -52.9377661 -0.290072E-08  0.249E-04    3.15      85.8  T
     SCC iter.                  ...        0 min,  0.021 sec
     gradient                   ...        0 min,  0.004 sec
 * total energy  :   -52.4745452 Eh     change       -0.8026966E-03 Eh
   gradient norm :     0.0083965 Eh/α   predicted    -0.1188097E-02 (  48.01%)
   displ. norm   :     0.2454732 α      lambda       -0.1329665E-02
   maximum displ.:     0.1773568 α      in ANC's #10, #8, #7, ...

........................................................................
.............................. CYCLE    6 ..............................
........................................................................

 iter      E             dE          RMSdq      gap      omega  full diag
   1    -52.9376378 -0.529376E+02  0.145E-01    3.14       0.0  T
   2    -52.9376487 -0.108592E-04  0.942E-02    3.13       1.0  T
   3    -52.9376457  0.301509E-05  0.502E-02    3.14       1.0  T
   4    -52.9376571 -0.114198E-04  0.353E-02    3.13       1.0  T
   5    -52.9376604 -0.331321E-05  0.142E-02    3.13       1.5  T
   6    -52.9376619 -0.153644E-05  0.774E-03    3.13       2.8  T
   7    -52.9376621 -0.206092E-06  0.502E-03    3.13       4.2  T
   8    -52.9376622 -0.506008E-07  0.347E-03    3.13       6.1  T
   9    -52.9376622 -0.656212E-07  0.231E-03    3.13       9.2  T
  10    -52.9376623 -0.149142E-07  0.115E-03    3.13      18.6  T
  11    -52.9376623 -0.855974E-08  0.505E-04    3.13      42.2  T
  12    -52.9376623 -0.328629E-08  0.210E-04    3.13     101.3  T
     SCC iter.                  ...        0 min,  0.021 sec
     gradient                   ...        0 min,  0.004 sec
 * total energy  :   -52.4744561 Eh     change        0.8906856E-04 Eh
   gradient norm :     0.0120129 Eh/α   predicted    -0.7048945E-03 (-891.41%)
   displ. norm   :     0.1569210 α      lambda       -0.1071230E-02
   maximum displ.:     0.0838400 α      in ANC's #5, #10, #7, ...

........................................................................
.............................. CYCLE    7 ..............................
........................................................................

 iter      E             dE          RMSdq      gap      omega  full diag
   1    -52.9397983 -0.529398E+02  0.926E-02    3.14       0.0  T
   2    -52.9398060 -0.771426E-05  0.586E-02    3.14       1.0  T
   3    -52.9398019  0.405617E-05  0.343E-02    3.14       1.0  T
   4    -52.9398099 -0.796036E-05  0.225E-02    3.14       1.0  T
   5    -52.9398109 -0.997704E-06  0.129E-02    3.14       1.7  T
   6    -52.9398117 -0.847149E-06  0.607E-03    3.14       3.5  T
   7    -52.9398119 -0.176977E-06  0.377E-03    3.14       5.6  T
   8    -52.9398119 -0.186930E-07  0.258E-03    3.14       8.3  T
   9    -52.9398120 -0.450079E-07  0.162E-03    3.14      13.2  T
  10    -52.9398120 -0.740260E-08  0.104E-03    3.14      20.5  T
  11    -52.9398120 -0.565647E-08  0.412E-04    3.14      51.7  T
  12    -52.9398120 -0.988152E-09  0.205E-04    3.14     104.0  T
     SCC iter.                  ...        0 min,  0.024 sec
     gradient                   ...        0 min,  0.004 sec
 * total energy  :   -52.4750214 Eh     change       -0.5653521E-03 Eh
   gradient norm :     0.0039144 Eh/α   predicted    -0.5488115E-03 (  -2.93%)
   displ. norm   :     0.1277211 α      lambda       -0.2246268E-03
   maximum displ.:     0.0561879 α      in ANC's #3, #6, #5, ...

........................................................................
.............................. CYCLE    8 ..............................
........................................................................

 iter      E             dE          RMSdq      gap      omega  full diag
   1    -52.9405408 -0.529405E+02  0.622E-02    3.15       0.0  T
   2    -52.9405421 -0.124794E-05  0.354E-02    3.15       1.0  T
   3    -52.9405403  0.175147E-05  0.176E-02    3.15       1.2  T
   4    -52.9405432 -0.284531E-05  0.111E-02    3.15       1.9  T
   5    -52.9405433 -0.189249E-06  0.594E-03    3.15       3.6  T
   6    -52.9405436 -0.223755E-06  0.343E-03    3.15       6.2  T
   7    -52.9405436 -0.367050E-07  0.179E-03    3.15      11.9  T
   8    -52.9405436 -0.653245E-08  0.117E-03    3.15      18.2  T
   9    -52.9405436 -0.104144E-07  0.776E-04    3.15      27.5  T
  10    -52.9405436 -0.130888E-08  0.505E-04    3.15      42.2  T
     SCC iter.                  ...        0 min,  0.018 sec
     gradient                   ...        0 min,  0.004 sec
 * total energy  :   -52.4750851 Eh     change       -0.6369049E-04 Eh
   gradient norm :     0.0038578 Eh/α   predicted    -0.1141442E-03 (  79.22%)
   displ. norm   :     0.1101309 α      lambda       -0.1542531E-03
   maximum displ.:     0.0728603 α      in ANC's #3, #5, #8, ...

........................................................................
.............................. CYCLE    9 ..............................
........................................................................

 iter      E             dE          RMSdq      gap      omega  full diag
   1    -52.9406450 -0.529406E+02  0.512E-02    3.15       0.0  T
   2    -52.9406455 -0.481538E-06  0.273E-02    3.14       1.0  T
   3    -52.9406449  0.581931E-06  0.863E-03    3.15       2.5  T
   4    -52.9406458 -0.849358E-06  0.533E-03    3.14       4.0  T
   5    -52.9406458 -0.694895E-07  0.305E-03    3.14       7.0  T
   6    -52.9406459 -0.461309E-07  0.198E-03    3.15      10.8  T
   7    -52.9406459 -0.840411E-08  0.109E-03    3.14      19.5  T
   8    -52.9406459 -0.577732E-08  0.579E-04    3.14      36.8  T
   9    -52.9406459 -0.263574E-08  0.370E-04    3.14      57.6  T
     SCC iter.                  ...        0 min,  0.018 sec
     gradient                   ...        0 min,  0.005 sec
 * total energy  :   -52.4751980 Eh     change       -0.1128827E-03 Eh
   gradient norm :     0.0024227 Eh/α   predicted    -0.7806407E-04 ( -30.84%)
   displ. norm   :     0.1884095 α      lambda       -0.1398524E-03
   maximum displ.:     0.1348868 α      in ANC's #3, #5, #2, ...

........................................................................
.............................. CYCLE   10 ..............................
........................................................................

 iter      E             dE          RMSdq      gap      omega  full diag
   1    -52.9409749 -0.529410E+02  0.805E-02    3.14       0.0  T
   2    -52.9409763 -0.133659E-05  0.416E-02    3.14       1.0  T
   3    -52.9409753  0.951524E-06  0.109E-02    3.14       2.0  T
   4    -52.9409766 -0.123912E-05  0.656E-03    3.14       3.2  T
   5    -52.9409768 -0.226094E-06  0.338E-03    3.14       6.3  T
   6    -52.9409768 -0.315642E-07  0.221E-03    3.14       9.6  T
   7    -52.9409768 -0.123390E-07  0.164E-03    3.14      13.0  T
   8    -52.9409769 -0.905273E-08  0.730E-04    3.14      29.2  T
   9    -52.9409769 -0.530501E-08  0.421E-04    3.14      50.6  T
     SCC iter.                  ...        0 min,  0.021 sec
     gradient                   ...        0 min,  0.004 sec
 * total energy  :   -52.4752918 Eh     change       -0.9378532E-04 Eh
   gradient norm :     0.0021425 Eh/α   predicted    -0.7241232E-04 ( -22.79%)
   displ. norm   :     0.1639828 α      lambda       -0.7666611E-04
   maximum displ.:     0.1225584 α      in ANC's #3, #2, #5, ...

........................................................................
.............................. CYCLE   11 ..............................
........................................................................

 iter      E             dE          RMSdq      gap      omega  full diag
   1    -52.9412023 -0.529412E+02  0.730E-02    3.14       0.0  T
   2    -52.9412033 -0.100773E-05  0.370E-02    3.14       1.0  T
   3    -52.9412028  0.489835E-06  0.830E-03    3.14       2.6  T
   4    -52.9412035 -0.651923E-06  0.467E-03    3.14       4.6  T
   5    -52.9412036 -0.129928E-06  0.218E-03    3.14       9.8  T
   6    -52.9412036 -0.216569E-07  0.128E-03    3.14      16.6  T
   7    -52.9412036 -0.318298E-08  0.968E-04    3.14      22.0  T
   8    -52.9412036 -0.162759E-08  0.500E-04    3.14      42.7  T
     SCC iter.                  ...        0 min,  0.019 sec
     gradient                   ...        0 min,  0.004 sec
 * total energy  :   -52.4753501 Eh     change       -0.5831427E-04 Eh
   gradient norm :     0.0020005 Eh/α   predicted    -0.3936583E-04 ( -32.49%)
   displ. norm   :     0.1755868 α      lambda       -0.7932874E-04
   maximum displ.:     0.1339229 α      in ANC's #3, #2, #9, ...

........................................................................
.............................. CYCLE   12 ..............................
........................................................................

 iter      E             dE          RMSdq      gap      omega  full diag
   1    -52.9415383 -0.529415E+02  0.899E-02    3.14       0.0  T
   2    -52.9415397 -0.143050E-05  0.447E-02    3.14       1.0  T
   3    -52.9415395  0.230255E-06  0.850E-03    3.14       2.5  T
   4    -52.9415399 -0.481920E-06  0.542E-03    3.14       3.9  T
   5    -52.9415401 -0.154659E-06  0.284E-03    3.14       7.5  T
   6    -52.9415401 -0.360610E-07  0.181E-03    3.14      11.8  T
   7    -52.9415401 -0.624254E-08  0.131E-03    3.14      16.3  T
   8    -52.9415401 -0.535620E-08  0.566E-04    3.14      37.7  T
   9    -52.9415402 -0.362535E-08  0.312E-04    3.14      68.4  T
     SCC iter.                  ...        0 min,  0.016 sec
     gradient                   ...        0 min,  0.004 sec
 * total energy  :   -52.4754160 Eh     change       -0.6586385E-04 Eh
   gradient norm :     0.0018201 Eh/α   predicted    -0.4088902E-04 ( -37.92%)
   displ. norm   :     0.3353307 α      lambda       -0.9650429E-04
   maximum displ.:     0.2489339 α      in ANC's #3, #2, #9, ...

........................................................................
.............................. CYCLE   13 ..............................
........................................................................

 iter      E             dE          RMSdq      gap      omega  full diag
   1    -52.9417572 -0.529418E+02  0.195E-01    3.14       0.0  T
   2    -52.9417628 -0.552919E-05  0.970E-02    3.14       1.0  T
   3    -52.9417632 -0.401625E-06  0.157E-02    3.14       1.4  T
   4    -52.9417637 -0.497625E-06  0.111E-02    3.14       1.9  T
   5    -52.9417645 -0.796568E-06  0.548E-03    3.14       3.9  T
   6    -52.9417646 -0.111192E-06  0.383E-03    3.14       5.6  T
   7    -52.9417646 -0.255318E-07  0.270E-03    3.14       7.9  T
   8    -52.9417646 -0.345321E-07  0.940E-04    3.14      22.7  T
   9    -52.9417646 -0.744867E-08  0.615E-04    3.14      34.7  T
     SCC iter.                  ...        0 min,  0.033 sec
     gradient                   ...        0 min,  0.008 sec
 * total energy  :   -52.4755255 Eh     change       -0.1095128E-03 Eh
   gradient norm :     0.0029410 Eh/α   predicted    -0.5066512E-04 ( -53.74%)
   displ. norm   :     0.2147362 α      lambda       -0.7855710E-04
   maximum displ.:     0.1504425 α      in ANC's #3, #2, #9, ...

........................................................................
.............................. CYCLE   14 ..............................
........................................................................

 iter      E             dE          RMSdq      gap      omega  full diag
   1    -52.9415383 -0.529415E+02  0.130E-01    3.14       0.0  T
   2    -52.9415402 -0.185734E-05  0.648E-02    3.14       1.0  T
   3    -52.9415404 -0.237556E-06  0.100E-02    3.14       2.1  T
   4    -52.9415405 -0.601165E-07  0.718E-03    3.14       3.0  T
   5    -52.9415409 -0.427598E-06  0.319E-03    3.14       6.7  T
   6    -52.9415409 -0.243593E-07  0.255E-03    3.14       8.4  T
   7    -52.9415409 -0.248740E-07  0.989E-04    3.14      21.6  T
   8    -52.9415409 -0.478020E-08  0.577E-04    3.14      36.9  T
     SCC iter.                  ...        0 min,  0.014 sec
     gradient                   ...        0 min,  0.005 sec
 * total energy  :   -52.4755902 Eh     change       -0.6473971E-04 Eh
   gradient norm :     0.0027970 Eh/α   predicted    -0.4109308E-04 ( -36.53%)
   displ. norm   :     0.3433603 α      lambda       -0.1041414E-03
   maximum displ.:     0.2271078 α      in ANC's #3, #2, #9, ...

........................................................................
.............................. CYCLE   15 ..............................
........................................................................

 iter      E             dE          RMSdq      gap      omega  full diag
   1    -52.9413583 -0.529414E+02  0.215E-01    3.14       0.0  T
   2    -52.9413635 -0.518949E-05  0.107E-01    3.14       1.0  T
   3    -52.9413641 -0.588963E-06  0.165E-02    3.14       1.3  T
   4    -52.9413646 -0.461288E-06  0.116E-02    3.14       1.8  T
   5    -52.9413655 -0.928050E-06  0.523E-03    3.14       4.1  T
   6    -52.9413656 -0.940867E-07  0.410E-03    3.14       5.2  T
   7    -52.9413656 -0.513971E-07  0.158E-03    3.14      13.5  T
   8    -52.9413657 -0.196053E-07  0.808E-04    3.14      26.4  T
   9    -52.9413657 -0.320439E-08  0.643E-04    3.14      33.1  T
     SCC iter.                  ...        0 min,  0.015 sec
     gradient                   ...        0 min,  0.004 sec
 * total energy  :   -52.4756676 Eh     change       -0.7737118E-04 Eh
   gradient norm :     0.0025613 Eh/α   predicted    -0.5821142E-04 ( -24.76%)
   displ. norm   :     0.3407527 α      lambda       -0.7036355E-04
   maximum displ.:     0.2226440 α      in ANC's #2, #3, #1, ...

........................................................................
.............................. CYCLE   16 ..............................
........................................................................

 iter      E             dE          RMSdq      gap      omega  full diag
   1    -52.9410239 -0.529410E+02  0.203E-01    3.14       0.0  T
   2    -52.9410283 -0.442744E-05  0.102E-01    3.14       1.0  T
   3    -52.9410290 -0.710164E-06  0.155E-02    3.14       1.4  T
   4    -52.9410287  0.306390E-06  0.110E-02    3.14       1.9  T
   5    -52.9410299 -0.124087E-05  0.479E-03    3.14       4.4  T
   6    -52.9410300 -0.750312E-07  0.375E-03    3.14       5.7  T
   7    -52.9410301 -0.390530E-07  0.149E-03    3.14      14.3  T
   8    -52.9410301 -0.170592E-07  0.784E-04    3.14      27.2  T
   9    -52.9410301 -0.335480E-08  0.619E-04    3.14      34.4  T
     SCC iter.                  ...        0 min,  0.016 sec
     gradient                   ...        0 min,  0.004 sec
 * total energy  :   -52.4757124 Eh     change       -0.4483231E-04 Eh
   gradient norm :     0.0022135 Eh/α   predicted    -0.3926968E-04 ( -12.41%)
   displ. norm   :     0.1649236 α      lambda       -0.3538065E-04
   maximum displ.:     0.1162699 α      in ANC's #2, #3, #1, ...

........................................................................
.............................. CYCLE   17 ..............................
........................................................................

 iter      E             dE          RMSdq      gap      omega  full diag
   1    -52.9420823 -0.529421E+02  0.100E-01    3.15       0.0  T
   2    -52.9420836 -0.125027E-05  0.505E-02    3.15       1.0  T
   3    -52.9420836 -0.782720E-09  0.889E-03    3.15       2.4  T
   4    -52.9420839 -0.338525E-06  0.594E-03    3.15       3.6  T
   5    -52.9420840 -0.120538E-06  0.295E-03    3.15       7.2  T
   6    -52.9420841 -0.414538E-07  0.216E-03    3.15       9.9  T
   7    -52.9420841 -0.111762E-07  0.132E-03    3.15      16.1  T
   8    -52.9420841 -0.878962E-08  0.511E-04    3.15      41.7  T
   9    -52.9420841 -0.158538E-08  0.368E-04    3.15      57.9  T
     SCC iter.                  ...        0 min,  0.015 sec
     gradient                   ...        0 min,  0.004 sec
 * total energy  :   -52.4757374 Eh     change       -0.2495288E-04 Eh
   gradient norm :     0.0014159 Eh/α   predicted    -0.1817526E-04 ( -27.16%)
   displ. norm   :     0.2299848 α      lambda       -0.2808766E-04
   maximum displ.:     0.1753179 α      in ANC's #2, #1, #3, ...

........................................................................
.............................. CYCLE   18 ..............................
........................................................................

 iter      E             dE          RMSdq      gap      omega  full diag
   1    -52.9428682 -0.529429E+02  0.132E-01    3.15       0.0  T
   2    -52.9428700 -0.188326E-05  0.669E-02    3.15       1.0  T
   3    -52.9428705 -0.450832E-06  0.108E-02    3.15       2.0  T
   4    -52.9428704  0.125357E-06  0.742E-03    3.15       2.9  T
   5    -52.9428708 -0.412915E-06  0.346E-03    3.15       6.2  T
   6    -52.9428708 -0.151235E-07  0.273E-03    3.15       7.8  T
   7    -52.9428708 -0.203051E-07  0.152E-03    3.15      14.0  T
   8    -52.9428708 -0.169410E-07  0.667E-04    3.15      31.9  T
   9    -52.9428708 -0.267272E-08  0.481E-04    3.15      44.3  T
     SCC iter.                  ...        0 min,  0.016 sec
     gradient                   ...        0 min,  0.004 sec
 * total energy  :   -52.4757638 Eh     change       -0.2637244E-04 Eh
   gradient norm :     0.0019272 Eh/α   predicted    -0.1437577E-04 ( -45.49%)
   displ. norm   :     0.1756356 α      lambda       -0.2299410E-04
   maximum displ.:     0.1396584 α      in ANC's #2, #1, #9, ...

........................................................................
.............................. CYCLE   19 ..............................
........................................................................

 iter      E             dE          RMSdq      gap      omega  full diag
   1    -52.9427074 -0.529427E+02  0.104E-01    3.15       0.0  T
   2    -52.9427086 -0.117897E-05  0.528E-02    3.15       1.0  T
   3    -52.9427085  0.612102E-07  0.872E-03    3.15       2.4  T
   4    -52.9427087 -0.176501E-06  0.605E-03    3.15       3.5  T
   5    -52.9427090 -0.344880E-06  0.228E-03    3.15       9.4  T
   6    -52.9427090 -0.927575E-08  0.185E-03    3.15      11.5  T
   7    -52.9427091 -0.105567E-07  0.100E-03    3.15      21.2  T
   8    -52.9427091 -0.628626E-08  0.432E-04    3.15      49.4  T
   9    -52.9427091 -0.751186E-09  0.341E-04    3.15      62.5  T
     SCC iter.                  ...        0 min,  0.016 sec
     gradient                   ...        0 min,  0.004 sec
 * total energy  :   -52.4757900 Eh     change       -0.2622578E-04 Eh
   gradient norm :     0.0021789 Eh/α   predicted    -0.1165566E-04 ( -55.56%)
   displ. norm   :     0.2719525 α      lambda       -0.5003867E-04
   maximum displ.:     0.2094446 α      in ANC's #2, #1, #9, ...

........................................................................
.............................. CYCLE   20 ..............................
........................................................................

 iter      E             dE          RMSdq      gap      omega  full diag
   1    -52.9420340 -0.529420E+02  0.153E-01    3.14       0.0  T
   2    -52.9420364 -0.245933E-05  0.789E-02    3.15       1.0  T
   3    -52.9420362  0.255706E-06  0.137E-02    3.14       1.6  T
   4    -52.9420368 -0.633334E-06  0.912E-03    3.15       2.3  T
   5    -52.9420374 -0.588146E-06  0.350E-03    3.15       6.1  T
   6    -52.9420374 -0.394475E-07  0.282E-03    3.15       7.6  T
   7    -52.9420374 -0.239038E-07  0.161E-03    3.15      13.3  T
   8    -52.9420375 -0.137326E-07  0.656E-04    3.15      32.5  T
   9    -52.9420375 -0.236074E-08  0.500E-04    3.15      42.6  T
     SCC iter.                  ...        0 min,  0.016 sec
     gradient                   ...        0 min,  0.004 sec
 * total energy  :   -52.4758267 Eh     change       -0.3669916E-04 Eh
   gradient norm :     0.0024101 Eh/α   predicted    -0.2687059E-04 ( -26.78%)
   displ. norm   :     0.3117765 α      lambda       -0.5040219E-04
   maximum displ.:     0.2312854 α      in ANC's #2, #1, #3, ...
 * RMSD in coord.:     0.6533358 α      energy gain  -0.1817715E-01 Eh

generating ANC from exact Hessian ...
Using Lindh-Hessian (1995)
 Shifting diagonal of input Hessian by   9.160755638717353E-003
 Lowest  eigenvalues of input Hessian
    0.000000    0.000000    0.000000    0.000000    0.000000    0.000000
    0.010000    0.010285    0.011075    0.012820    0.013461    0.013793
    0.014244    0.014881    0.016267    0.016979    0.018922    0.022028
 Highest eigenvalues
    1.740693    1.762668    1.798501    1.812424    2.026561    2.394733
 

........................................................................
.............................. CYCLE   21 ..............................
........................................................................

 iter      E             dE          RMSdq      gap      omega  full diag
   1    -52.9415435 -0.529415E+02  0.182E-01    3.14       0.0  T
   2    -52.9415469 -0.342444E-05  0.928E-02    3.14       1.0  T
   3    -52.9415476 -0.627878E-06  0.141E-02    3.14       1.5  T
   4    -52.9415471  0.490431E-06  0.974E-03    3.14       2.2  T
   5    -52.9415482 -0.112108E-05  0.386E-03    3.14       5.5  T
   6    -52.9415482 -0.300588E-07  0.306E-03    3.14       7.0  T
   7    -52.9415482 -0.228521E-07  0.154E-03    3.14      13.9  T
   8    -52.9415483 -0.158059E-07  0.641E-04    3.14      33.3  T
   9    -52.9415483 -0.231015E-08  0.505E-04    3.14      42.2  T
     SCC iter.                  ...        0 min,  0.016 sec
     gradient                   ...        0 min,  0.004 sec
 * total energy  :   -52.4758607 Eh     change       -0.3400429E-04 Eh
   gradient norm :     0.0029348 Eh/α   predicted     0.0000000E+00 (-100.00%)
   displ. norm   :     0.0321997 α      lambda       -0.2993920E-04
   maximum displ.:     0.0201403 α      in ANC's #2, #8, #3, ...

........................................................................
.............................. CYCLE   22 ..............................
........................................................................

 iter      E             dE          RMSdq      gap      omega  full diag
   1    -52.9422958 -0.529423E+02  0.248E-02    3.14       0.0  T
   2    -52.9422960 -0.139558E-06  0.134E-02    3.14       1.6  T
   3    -52.9422958  0.181662E-06  0.464E-03    3.14       4.6  T
   4    -52.9422960 -0.247393E-06  0.258E-03    3.14       8.3  T
   5    -52.9422961 -0.202575E-07  0.140E-03    3.14      15.2  T
   6    -52.9422961 -0.449573E-08  0.924E-04    3.14      23.1  T
   7    -52.9422961 -0.278301E-08  0.579E-04    3.14      36.8  T
     SCC iter.                  ...        0 min,  0.012 sec
     gradient                   ...        0 min,  0.005 sec
 * total energy  :   -52.4758818 Eh     change       -0.2107993E-04 Eh
   gradient norm :     0.0014658 Eh/α   predicted    -0.1555573E-04 ( -26.21%)
   displ. norm   :     0.0942741 α      lambda       -0.3555860E-04
   maximum displ.:     0.0645131 α      in ANC's #2, #3, #19, ...

........................................................................
.............................. CYCLE   23 ..............................
........................................................................

 iter      E             dE          RMSdq      gap      omega  full diag
   1    -52.9435169 -0.529435E+02  0.617E-02    3.15       0.0  T
   2    -52.9435180 -0.103491E-05  0.346E-02    3.15       1.0  T
   3    -52.9435172  0.813353E-06  0.114E-02    3.15       1.9  T
   4    -52.9435184 -0.119294E-05  0.706E-03    3.15       3.0  T
   5    -52.9435185 -0.185737E-06  0.401E-03    3.15       5.3  T
   6    -52.9435186 -0.340119E-07  0.259E-03    3.15       8.2  T
   7    -52.9435186 -0.237255E-07  0.166E-03    3.15      12.9  T
   8    -52.9435186 -0.930316E-08  0.913E-04    3.15      23.4  T
   9    -52.9435186 -0.421909E-08  0.625E-04    3.15      34.1  T
     SCC iter.                  ...        0 min,  0.016 sec
     gradient                   ...        0 min,  0.004 sec
 * total energy  :   -52.4758868 Eh     change       -0.5071223E-05 Eh
   gradient norm :     0.0030323 Eh/α   predicted    -0.1785163E-04 ( 252.02%)
   displ. norm   :     0.0445046 α      lambda       -0.3899027E-04
   maximum displ.:     0.0245825 α      in ANC's #2, #7, #3, ...

........................................................................
.............................. CYCLE   24 ..............................
........................................................................

 iter      E             dE          RMSdq      gap      omega  full diag
   1    -52.9431910 -0.529432E+02  0.303E-02    3.15       0.0  T
   2    -52.9431912 -0.206862E-06  0.180E-02    3.15       1.2  T
   3    -52.9431913 -0.586390E-07  0.637E-03    3.14       3.3  T
   4    -52.9431913 -0.260877E-07  0.460E-03    3.15       4.6  T
   5    -52.9431914 -0.101697E-06  0.166E-03    3.15      12.8  T
   6    -52.9431914 -0.128853E-07  0.102E-03    3.15      21.0  T
   7    -52.9431914 -0.417782E-08  0.458E-04    3.15      46.6  T
   8    -52.9431914 -0.869264E-09  0.242E-04    3.15      88.0  T
     SCC iter.                  ...        0 min,  0.014 sec
     gradient                   ...        0 min,  0.004 sec
 * total energy  :   -52.4759013 Eh     change       -0.1442749E-04 Eh
   gradient norm :     0.0027473 Eh/α   predicted    -0.1953509E-04 (  35.40%)
   displ. norm   :     0.0280694 α      lambda       -0.2938365E-04
   maximum displ.:     0.0113523 α      in ANC's #10, #14, #9, ...

........................................................................
.............................. CYCLE   25 ..............................
........................................................................

 iter      E             dE          RMSdq      gap      omega  full diag
   1    -52.9422166 -0.529422E+02  0.235E-02    3.14       0.0  T
   2    -52.9422169 -0.240971E-06  0.142E-02    3.14       1.5  T
   3    -52.9422165  0.362495E-06  0.707E-03    3.14       3.0  T
   4    -52.9422170 -0.529188E-06  0.402E-03    3.14       5.3  T
   5    -52.9422171 -0.314343E-07  0.246E-03    3.14       8.7  T
   6    -52.9422171 -0.179205E-07  0.143E-03    3.14      14.9  T
   7    -52.9422171 -0.976906E-08  0.857E-04    3.14      24.9  T
   8    -52.9422171 -0.148858E-08  0.517E-04    3.14      41.2  T
     SCC iter.                  ...        0 min,  0.020 sec
     gradient                   ...        0 min,  0.005 sec
 * total energy  :   -52.4759121 Eh     change       -0.1080856E-04 Eh
   gradient norm :     0.0011057 Eh/α   predicted    -0.1470617E-04 (  36.06%)
   displ. norm   :     0.0418521 α      lambda       -0.1645302E-04
   maximum displ.:     0.0226688 α      in ANC's #3, #10, #2, ...

........................................................................
.............................. CYCLE   26 ..............................
........................................................................

 iter      E             dE          RMSdq      gap      omega  full diag
   1    -52.9417952 -0.529418E+02  0.315E-02    3.14       0.0  T
   2    -52.9417955 -0.270079E-06  0.183E-02    3.15       1.2  T
   3    -52.9417953  0.177524E-06  0.667E-03    3.14       3.2  T
   4    -52.9417956 -0.302285E-06  0.440E-03    3.15       4.8  T
   5    -52.9417957 -0.578940E-07  0.243E-03    3.15       8.8  T
   6    -52.9417957 -0.175595E-07  0.147E-03    3.15      14.5  T
   7    -52.9417957 -0.954202E-08  0.830E-04    3.15      25.7  T
   8    -52.9417957 -0.125623E-08  0.502E-04    3.15      42.5  T
     SCC iter.                  ...        0 min,  0.039 sec
     gradient                   ...        0 min,  0.005 sec
 * total energy  :   -52.4759135 Eh     change       -0.1388920E-05 Eh
   gradient norm :     0.0015698 Eh/α   predicted    -0.8234665E-05 ( 492.88%)
   displ. norm   :     0.0455294 α      lambda       -0.1766093E-04
   maximum displ.:     0.0271443 α      in ANC's #2, #3, #1, ...

........................................................................
.............................. CYCLE   27 ..............................
........................................................................

 iter      E             dE          RMSdq      gap      omega  full diag
   1    -52.9422151 -0.529422E+02  0.333E-02    3.15       0.0  T
   2    -52.9422152 -0.166115E-06  0.185E-02    3.14       1.2  T
   3    -52.9422152  0.727598E-07  0.557E-03    3.15       3.8  T
   4    -52.9422153 -0.151277E-06  0.396E-03    3.14       5.4  T
   5    -52.9422154 -0.670027E-07  0.177E-03    3.14      12.0  T
   6    -52.9422154 -0.411891E-08  0.126E-03    3.14      16.9  T
   7    -52.9422154 -0.720293E-08  0.614E-04    3.14      34.7  T
   8    -52.9422154 -0.126552E-08  0.368E-04    3.14      57.9  T
     SCC iter.                  ...        0 min,  0.015 sec
     gradient                   ...        0 min,  0.008 sec
 * total energy  :   -52.4759270 Eh     change       -0.1356659E-04 Eh
   gradient norm :     0.0007191 Eh/α   predicted    -0.8839732E-05 ( -34.84%)
   displ. norm   :     0.0728621 α      lambda       -0.1445366E-04
   maximum displ.:     0.0460272 α      in ANC's #2, #3, #1, ...

........................................................................
.............................. CYCLE   28 ..............................
........................................................................

 iter      E             dE          RMSdq      gap      omega  full diag
   1    -52.9424359 -0.529424E+02  0.550E-02    3.14       0.0  T
   2    -52.9424361 -0.267993E-06  0.302E-02    3.14       1.0  T
   3    -52.9424361  0.556279E-07  0.535E-03    3.14       4.0  T
   4    -52.9424362 -0.822920E-07  0.358E-03    3.14       6.0  T
   5    -52.9424363 -0.113664E-06  0.153E-03    3.14      13.9  T
   6    -52.9424363 -0.492230E-08  0.117E-03    3.14      18.2  T
   7    -52.9424363 -0.421077E-08  0.607E-04    3.14      35.1  T
   8    -52.9424363 -0.173210E-08  0.223E-04    3.14      95.7  T
     SCC iter.                  ...        0 min,  0.021 sec
     gradient                   ...        0 min,  0.005 sec
 * total energy  :   -52.4759366 Eh     change       -0.9618827E-05 Eh
   gradient norm :     0.0011093 Eh/α   predicted    -0.7244451E-05 ( -24.68%)
   displ. norm   :     0.0770106 α      lambda       -0.1082117E-04
   maximum displ.:     0.0509814 α      in ANC's #3, #2, #1, ...

........................................................................
.............................. CYCLE   29 ..............................
........................................................................

 iter      E             dE          RMSdq      gap      omega  full diag
   1    -52.9421183 -0.529421E+02  0.576E-02    3.14       0.0  T
   2    -52.9421185 -0.207009E-06  0.325E-02    3.14       1.0  T
   3    -52.9421184  0.992367E-07  0.499E-03    3.14       4.3  T
   4    -52.9421185 -0.134897E-06  0.310E-03    3.14       6.9  T
   5    -52.9421186 -0.742632E-07  0.120E-03    3.14      17.8  T
   6    -52.9421186 -0.538641E-08  0.930E-04    3.14      22.9  T
   7    -52.9421186 -0.232404E-08  0.442E-04    3.14      48.2  T
     SCC iter.                  ...        0 min,  0.012 sec
     gradient                   ...        0 min,  0.005 sec
 * total energy  :   -52.4759501 Eh     change       -0.1342521E-04 Eh
   gradient norm :     0.0007514 Eh/α   predicted    -0.5425845E-05 ( -59.58%)
   displ. norm   :     0.1433995 α      lambda       -0.1678541E-04
   maximum displ.:     0.0907043 α      in ANC's #3, #2, #1, ...

........................................................................
.............................. CYCLE   30 ..............................
........................................................................

 iter      E             dE          RMSdq      gap      omega  full diag
   1    -52.9419601 -0.529420E+02  0.103E-01    3.14       0.0  T
   2    -52.9419608 -0.732109E-06  0.573E-02    3.14       1.0  T
   3    -52.9419608 -0.412423E-07  0.834E-03    3.14       2.6  T
   4    -52.9419608  0.257737E-07  0.580E-03    3.15       3.7  T
   5    -52.9419612 -0.347021E-06  0.224E-03    3.14       9.5  T
   6    -52.9419612 -0.132681E-07  0.177E-03    3.14      12.0  T
   7    -52.9419612 -0.105390E-07  0.644E-04    3.14      33.1  T
   8    -52.9419612 -0.122653E-08  0.347E-04    3.14      61.4  T
     SCC iter.                  ...        0 min,  0.013 sec
     gradient                   ...        0 min,  0.005 sec
 * total energy  :   -52.4759681 Eh     change       -0.1799643E-04 Eh
   gradient norm :     0.0007135 Eh/α   predicted    -0.8471003E-05 ( -52.93%)
   displ. norm   :     0.1660372 α      lambda       -0.1201495E-04
   maximum displ.:     0.1045616 α      in ANC's #3, #2, #1, ...

........................................................................
.............................. CYCLE   31 ..............................
........................................................................

 iter      E             dE          RMSdq      gap      omega  full diag
   1    -52.9416797 -0.529417E+02  0.119E-01    3.14       0.0  T
   2    -52.9416806 -0.908800E-06  0.666E-02    3.14       1.0  T
   3    -52.9416806 -0.377214E-07  0.915E-03    3.14       2.3  T
   4    -52.9416805  0.989785E-07  0.643E-03    3.14       3.3  T
   5    -52.9416810 -0.509995E-06  0.232E-03    3.14       9.2  T
   6    -52.9416810 -0.111071E-07  0.185E-03    3.14      11.5  T
   7    -52.9416810 -0.104531E-07  0.878E-04    3.14      24.3  T
   8    -52.9416811 -0.297740E-08  0.369E-04    3.14      57.8  T
     SCC iter.                  ...        0 min,  0.017 sec
     gradient                   ...        0 min,  0.005 sec
 * total energy  :   -52.4759783 Eh     change       -0.1026311E-04 Eh
   gradient norm :     0.0013684 Eh/α   predicted    -0.6082061E-05 ( -40.74%)
   displ. norm   :     0.1639851 α      lambda       -0.1093793E-04
   maximum displ.:     0.1036928 α      in ANC's #3, #2, #1, ...

........................................................................
.............................. CYCLE   32 ..............................
........................................................................

 iter      E             dE          RMSdq      gap      omega  full diag
   1    -52.9413440 -0.529413E+02  0.118E-01    3.14       0.0  T
   2    -52.9413450 -0.910999E-06  0.663E-02    3.14       1.0  T
   3    -52.9413449  0.740130E-07  0.930E-03    3.14       2.3  T
   4    -52.9413449 -0.206315E-07  0.658E-03    3.14       3.2  T
   5    -52.9413454 -0.499009E-06  0.226E-03    3.14       9.4  T
   6    -52.9413454 -0.104144E-07  0.179E-03    3.14      11.9  T
   7    -52.9413454 -0.760500E-08  0.104E-03    3.14      20.6  T
   8    -52.9413454 -0.487318E-08  0.383E-04    3.14      55.7  T
   9    -52.9413454 -0.501750E-09  0.266E-04    3.14      80.2  T
     SCC iter.                  ...        0 min,  0.017 sec
     gradient                   ...        0 min,  0.004 sec
 * total energy  :   -52.4759850 Eh     change       -0.6628759E-05 Eh
   gradient norm :     0.0017658 Eh/α   predicted    -0.5536511E-05 ( -16.48%)
   displ. norm   :     0.0311745 α      lambda       -0.7442217E-05
   maximum displ.:     0.0227823 α      in ANC's #1, #3, #5, ...

........................................................................
.............................. CYCLE   33 ..............................
........................................................................

 iter      E             dE          RMSdq      gap      omega  full diag
   1    -52.9425072 -0.529425E+02  0.255E-02    3.15       0.0  T
   2    -52.9425074 -0.223500E-06  0.138E-02    3.14       1.5  T
   3    -52.9425072  0.238976E-06  0.447E-03    3.15       4.8  T
   4    -52.9425075 -0.289123E-06  0.198E-03    3.14      10.7  T
   5    -52.9425075 -0.205392E-07  0.109E-03    3.14      19.5  T
   6    -52.9425075 -0.485669E-08  0.611E-04    3.14      34.9  T
   7    -52.9425075 -0.691621E-09  0.462E-04    3.14      46.1  T
     SCC iter.                  ...        0 min,  0.031 sec
     gradient                   ...        0 min,  0.004 sec
 * total energy  :   -52.4759903 Eh     change       -0.5293743E-05 Eh
   gradient norm :     0.0009701 Eh/α   predicted    -0.3724082E-05 ( -29.65%)
   displ. norm   :     0.0468379 α      lambda       -0.3872232E-05
   maximum displ.:     0.0333729 α      in ANC's #3, #1, #9, ...

........................................................................
.............................. CYCLE   34 ..............................
........................................................................

 iter      E             dE          RMSdq      gap      omega  full diag
   1    -52.9424588 -0.529425E+02  0.360E-02    3.15       0.0  T
   2    -52.9424589 -0.101878E-06  0.204E-02    3.15       1.0  T
   3    -52.9424589 -0.727282E-08  0.249E-03    3.15       8.6  T
   4    -52.9424589  0.544390E-08  0.163E-03    3.15      13.1  T
   5    -52.9424590 -0.347638E-07  0.705E-04    3.15      30.2  T
   6    -52.9424590 -0.223258E-08  0.521E-04    3.15      40.9  T
     SCC iter.                  ...        0 min,  0.028 sec
     gradient                   ...        0 min,  0.005 sec
 * total energy  :   -52.4759949 Eh     change       -0.4659395E-05 Eh
   gradient norm :     0.0004548 Eh/α   predicted    -0.1940696E-05 ( -58.35%)
   displ. norm   :     0.1048451 α      lambda       -0.7141045E-05
   maximum displ.:     0.0760816 α      in ANC's #3, #1, #9, ...

   *** GEOMETRY OPTIMIZATION CONVERGED AFTER 34 ITERATIONS ***

------------------------------------------------------------------------
 total energy gain   :        -0.0183454 Eh      -11.5119 kcal/mol
 total RMSD          :         0.6781307 a0        0.3589 Å
 total power (kW/mol):        -1.4166408 (step)  -51.8725 (real)
------------------------------------------------------------------------

 ANCopt (total)                0 d,  0 h,  0 min,  0.929 sec
 optimizer setup                ...        0 min,  0.000 sec (  0.011%)
 model hessian                  ...        0 min,  0.006 sec (  0.635%)
 ANC generation                 ...        0 min,  0.001 sec (  0.148%)
 coordinate transformation      ...        0 min,  0.000 sec (  0.035%)
 single point calculation       ...        0 min,  0.902 sec ( 97.090%)
 optimization log               ...        0 min,  0.009 sec (  0.929%)
 hessian update                 ...        0 min,  0.005 sec (  0.561%)
 rational function              ...        0 min,  0.003 sec (  0.351%)

================
 final structure:
================
22
 xtb: 6.7.1 (edcfbbe)
Br          -5.16596246596439        0.12643007011607        1.99130102788313
C           -3.54205694935352        0.20456691066580        1.04917522122307
C           -2.43086120086403        0.81693978703632        1.62288753253230
Br          -2.55930661744847        1.56377747990913        3.34209277457259
C           -1.23283742571703        0.87521088871117        0.91436438828520
Br           0.24492275679330        1.73335034074369        1.70986747568366
C           -1.11714562295875        0.32572183603116       -0.36405607176562
C            0.20257041912412        0.39366159989597       -1.07230821539672
O            1.16056148855237       -0.32361591034288       -0.30395574899058
C            2.45281418420926       -0.10008634122521       -0.62964790288579
O            2.78053194498938        0.64603493648217       -1.51415301394118
C            3.35256487536938       -0.88117276312115        0.23713026877411
C            4.66651864043542       -0.83204253941548        0.07072660220352
C           -2.23760412931505       -0.28898444738884       -0.92060906174271
Br          -2.17258598105591       -1.06030730933175       -2.64417700151530
C           -3.44616822268243       -0.34681282251028       -0.22565061572992
Br          -4.95094671061780       -1.16780286078902       -0.99646218430904
H            0.15030813162641       -0.03804293944532       -2.07573654093346
H            0.53561757290655        1.43694755408966       -1.17260792943193
H            2.87222274582022       -1.47755898311868        0.99704231390114
H            5.34627554607758       -1.38961514719029        0.69090936187448
H            5.09056902007324       -0.21660033980204       -0.70613168028833
 
 Bond Distances (Angstroems)
 ---------------------------
Br1-C2=1.8790        C2-Br1=1.8790        C2-C3=1.3924         C2-C16=1.3923        C3-C2=1.3924         C3-Br4=1.8788        
C3-C5=1.3931         Br4-C3=1.8788        C5-C3=1.3931         C5-Br6=1.8849        C5-C7=1.3963         Br6-C5=1.8849        
C7-C5=1.3963         C7-C8=1.4993         C7-C14=1.3939        C8-C7=1.4993         C8-O9=1.4222         C8-H18=1.0936        
C8-H19=1.0997        O9-C8=1.4222         O9-C10=1.3513        C10-O9=1.3513        C10-O11=1.2027       C10-C12=1.4734       
O11-C10=1.2027       C12-C10=1.4734       C12-C13=1.3254       C12-H20=1.0788       C13-C12=1.3254       C13-H21=1.0759       
C13-H22=1.0780       C14-C7=1.3939        C14-Br15=1.8894      C14-C16=1.3953       Br15-C14=1.8894      C16-C2=1.3923        
C16-C14=1.3953       C16-Br17=1.8795      Br17-C16=1.8795      H18-C8=1.0936        H19-C8=1.0997        H20-C12=1.0788       
H21-C13=1.0759       H22-C13=1.0780       
 C  H  Rav=1.0852 sigma=0.0096  Rmin=1.0759  Rmax=1.0997     5
 C  C  Rav=1.4068 sigma=0.0479  Rmin=1.3254  Rmax=1.4993     9
 O  C  Rav=1.3254 sigma=0.0915  Rmin=1.2027  Rmax=1.4222     3
 Br C  Rav=1.8823 sigma=0.0042  Rmin=1.8788  Rmax=1.8894     5
 
 selected bond angles (degree)
 --------------------
C3-C2-Br1=120.09               C16-C2-Br1=120.14              C16-C2-C3=119.77               Br4-C3-C2=119.82               
C5-C3-C2=119.68                C5-C3-Br4=120.50               Br6-C5-C3=118.59               C7-C5-C3=121.36                
C7-C5-Br6=120.04               C8-C7-C5=119.18                C14-C7-C5=118.20               C14-C7-C8=122.61               
O9-C8-C7=108.35                H18-C8-C7=111.93               H18-C8-O9=109.20               H19-C8-C7=110.65               
H19-C8-O9=108.89               H19-C8-H18=107.78              C10-O9-C8=115.50               O11-C10-O9=122.72              
C12-C10-O9=110.76              C12-C10-O11=126.52             
 
 selected dihedral angles (degree)
 ---------------------------------
Br4-C3-C2-Br1=  0.04          Br4-C3-C2-C16=179.91          C5-C3-C2-Br1=180.28           C5-C3-C2-C16=  0.15           
Br6-C5-C3-C2=179.12           Br6-C5-C3-Br4=359.36          C7-C5-C3-C2=359.74            C7-C5-C3-Br4=179.98           
C8-C7-C5-C3=181.12            C8-C7-C5-Br6=  1.75           C14-C7-C5-C3=359.96           C14-C7-C5-Br6=180.59          
O9-C8-C7-C5= 61.62            O9-C8-C7-C14=242.83           H18-C8-C7-C5=182.08           H18-C8-C7-C14=  3.30          
H19-C8-C7-C5=302.31           H19-C8-C7-C14=123.52          C10-O9-C8-C7=194.98           C10-O9-C8-H18= 72.82          
C10-O9-C8-H19=315.39          O11-C10-O9-C8=359.50          C12-C10-O9-C8=179.39          
           -------------------------------------------------
          |                Final Singlepoint                |
           -------------------------------------------------

          ...................................................
          :                      SETUP                      :
          :.................................................:
          :  # basis functions                 103          :
          :  # atomic orbitals                  98          :
          :  # shells                           44          :
          :  # electrons                        92          :
          :  max. iterations                   250          :
          :  Hamiltonian                  GFN2-xTB          :
          :  restarted?                      false          :
          :  GBSA solvation                  false          :
          :  PC potential                    false          :
          :  electronic temp.          300.0000000     K    :
          :  accuracy                    1.0000000          :
          :  -> integral cutoff          0.2500000E+02      :
          :  -> integral neglect         0.1000000E-07      :
          :  -> SCF convergence          0.1000000E-05 Eh   :
          :  -> wf. convergence          0.1000000E-03 e    :
          :  Broyden damping             0.4000000          :
          :  net charge                          0          :
          :  unpaired electrons                  0          :
          ...................................................

 iter      E             dE          RMSdq      gap      omega  full diag
   1    -52.9424590 -0.529425E+02  0.299E-04    3.15       0.0  T
   2    -52.9424590 -0.258574E-09  0.253E-04    3.15      84.1  T
   3    -52.9424590 -0.201055E-09  0.208E-04    3.15     102.3  T

   *** convergence criteria satisfied after 3 iterations ***

         #    Occupation            Energy/Eh            Energy/eV
      -------------------------------------------------------------
         1        2.0000           -0.8825872             -24.0164
       ...           ...                  ...                  ...
        40        2.0000           -0.4532594             -12.3338
        41        2.0000           -0.4512726             -12.2798
        42        2.0000           -0.4445694             -12.0973
        43        2.0000           -0.4400500             -11.9744
        44        2.0000           -0.4372128             -11.8972
        45        2.0000           -0.4345839             -11.8256
        46        2.0000           -0.4323294             -11.7643 (HOMO)
        47                         -0.3167436              -8.6190 (LUMO)
        48                         -0.3159988              -8.5988
        49                         -0.2956416              -8.0448
        50                         -0.2839263              -7.7260
        51                         -0.2508257              -6.8253
       ...                                ...                  ...
        98                          0.6910446              18.8043
      -------------------------------------------------------------
                  HL-Gap            0.1155858 Eh            3.1452 eV
             Fermi-level           -0.3745365 Eh          -10.1917 eV

 SCC (total)                   0 d,  0 h,  0 min,  0.021 sec
 SCC setup                      ...        0 min,  0.000 sec (  0.380%)
 Dispersion                     ...        0 min,  0.000 sec (  0.285%)
 classical contributions        ...        0 min,  0.000 sec (  0.048%)
 integral evaluation            ...        0 min,  0.002 sec (  8.158%)
 iterations                     ...        0 min,  0.007 sec ( 33.308%)
 molecular gradient             ...        0 min,  0.005 sec ( 22.661%)
 printout                       ...        0 min,  0.007 sec ( 35.036%)

         :::::::::::::::::::::::::::::::::::::::::::::::::::::
         ::                     SUMMARY                     ::
         :::::::::::::::::::::::::::::::::::::::::::::::::::::
         :: total energy             -52.475994913874 Eh    ::
         :: gradient norm              0.000455321960 Eh/a0 ::
         :: HOMO-LUMO gap              3.145248650063 eV    ::
         ::.................................................::
         :: SCC energy               -52.942395238699 Eh    ::
         :: -> isotropic ES            0.052849059395 Eh    ::
         :: -> anisotropic ES          0.007068192774 Eh    ::
         :: -> anisotropic XC          0.004352153221 Eh    ::
         :: -> dispersion             -0.034332447541 Eh    ::
         :: repulsion energy           0.466400324826 Eh    ::
         :: add. restraining           0.000000000000 Eh    ::
         :: total charge              -0.000000000000 e     ::
         :::::::::::::::::::::::::::::::::::::::::::::::::::::

           -------------------------------------------------
          |                Property Printout                |
           -------------------------------------------------

    * Orbital Energies and Occupations

         #    Occupation            Energy/Eh            Energy/eV
      -------------------------------------------------------------
         1        2.0000           -0.8825872             -24.0164
       ...           ...                  ...                  ...
        34        2.0000           -0.4766777             -12.9711
        35        2.0000           -0.4668442             -12.7035
        36        2.0000           -0.4627930             -12.5932
        37        2.0000           -0.4606661             -12.5354
        38        2.0000           -0.4587274             -12.4826
        39        2.0000           -0.4557147             -12.4006
        40        2.0000           -0.4532594             -12.3338
        41        2.0000           -0.4512726             -12.2798
        42        2.0000           -0.4445694             -12.0973
        43        2.0000           -0.4400500             -11.9744
        44        2.0000           -0.4372128             -11.8972
        45        2.0000           -0.4345839             -11.8256
        46        2.0000           -0.4323294             -11.7643 (HOMO)
        47                         -0.3167436              -8.6190 (LUMO)
        48                         -0.3159988              -8.5988
        49                         -0.2956416              -8.0448
        50                         -0.2839263              -7.7260
        51                         -0.2508257              -6.8253
        52                         -0.2482837              -6.7561
        53                         -0.2332479              -6.3470
        54                         -0.2208319              -6.0091
        55                         -0.2105503              -5.7294
        56                         -0.1845104              -5.0208
        57                         -0.0236629              -0.6439
       ...                                ...                  ...
        98                          0.6910446              18.8043
      -------------------------------------------------------------
                  HL-Gap            0.1155858 Eh            3.1452 eV
             Fermi-level           -0.3745365 Eh          -10.1917 eV

     #   Z          covCN         q      C6AA      α(0)
     1  35 Br       1.498    -0.061   186.722    22.032
     2   6 C        3.073     0.058    26.629     8.461
     3   6 C        3.072     0.058    26.636     8.462
     4  35 Br       1.512    -0.063   186.769    22.035
     5   6 C        2.991     0.063    26.573     8.456
     6  35 Br       1.319    -0.078   187.174    22.059
     7   6 C        3.100    -0.005    28.013     8.673
     8   6 C        3.722     0.091    19.172     6.253
     9   8 O        1.707    -0.264    18.380     5.788
    10   6 C        2.730     0.358    20.918     7.488
    11   8 O        0.856    -0.396    21.600     6.231
    12   6 C        2.888    -0.056    29.387     8.888
    13   6 C        2.843    -0.055    29.356     8.879
    14   6 C        2.987     0.057    26.716     8.479
    15  35 Br       1.324    -0.083   187.338    22.069
    16   6 C        3.076     0.058    26.630     8.461
    17  35 Br       1.537    -0.063   186.765    22.035
    18   1 H        0.924     0.075     2.028     2.227
    19   1 H        0.923     0.079     1.987     2.205
    20   1 H        0.926     0.070     2.089     2.260
    21   1 H        0.926     0.072     2.066     2.248
    22   1 H        0.926     0.085     1.930     2.172

 Mol. C6AA /au·bohr⁶  :      18253.828900
 Mol. C8AA /au·bohr⁸  :     776516.204087
 Mol. α(0) /au        :        215.862226


Wiberg/Mayer (AO) data.
largest (>0.10) Wiberg bond orders for each atom

 ---------------------------------------------------------------------------
     #   Z sym  total        # sym  WBO       # sym  WBO       # sym  WBO
 ---------------------------------------------------------------------------
     1  35 Br   1.243 --     2 C    1.037
     2   6 C    3.955 --    16 C    1.356     3 C    1.353     1 Br   1.037
     3   6 C    3.956 --     5 C    1.357     2 C    1.353     4 Br   1.037
     4  35 Br   1.243 --     3 C    1.037
     5   6 C    3.955 --     7 C    1.361     3 C    1.357     6 Br   1.029
     6  35 Br   1.221 --     5 C    1.029
     7   6 C    3.986 --    14 C    1.372     5 C    1.361     8 C    1.008
     8   6 C    3.932 --     7 C    1.008    18 H    0.954     9 O    0.951
                            19 H    0.945
     9   8 O    2.290 --    10 C    1.084     8 C    0.951    11 O    0.165
    10   6 C    3.914 --    11 O    1.747     9 O    1.084    12 C    1.019
    11   8 O    2.054 --    10 C    1.747     9 O    0.165
    12   6 C    3.985 --    13 C    1.922    10 C    1.019    20 H    0.964
    13   6 C    3.976 --    12 C    1.922    21 H    0.974    22 H    0.969
    14   6 C    3.952 --     7 C    1.372    16 C    1.352    15 Br   1.020
    15  35 Br   1.210 --    14 C    1.020
    16   6 C    3.956 --     2 C    1.356    14 C    1.352    17 Br   1.037
    17  35 Br   1.246 --    16 C    1.037
    18   1 H    0.994 --     8 C    0.954
    19   1 H    0.992 --     8 C    0.945
    20   1 H    0.995 --    12 C    0.964
    21   1 H    0.994 --    13 C    0.974
    22   1 H    0.993 --    13 C    0.969
 ---------------------------------------------------------------------------

Topologies differ in total number of bonds
Writing topology from bond orders to xtbtopo.mol

molecular dipole:
                 x           y           z       tot (Debye)
 q only:        0.611      -0.355       0.218
   full:        0.845      -0.435       0.123       2.435
molecular quadrupole (traceless):
                xx          xy          yy          xz          yz          zz
 q only:        3.010      -8.514       2.095       6.452      -3.471      -5.105
  q+dip:       -2.576     -13.729      11.313       7.515     -12.241      -8.738
   full:       -3.304     -13.622      11.581       8.372     -10.606      -8.278

           -------------------------------------------------
          |                Geometry Summary                 |
           -------------------------------------------------

      molecular mass/u    :      556.6635115
   center of mass at/Å    :       -2.0295250       0.1814140       0.4467687
  moments of inertia/u·Å² :        0.2710245E+04   0.4038308E+04   0.6480276E+04
rotational constants/cm⁻¹ :        0.6219966E-02   0.4174429E-02   0.2601376E-02

 * 20 selected distances

     #   Z          #   Z                                           value/Å
     1  35 Br       2   6 C                                       1.8790360
     2   6 C        3   6 C                                       1.3924449
     3   6 C        4  35 Br                                      1.8788113
     3   6 C        5   6 C                                       1.3930764
     5   6 C        6  35 Br                                      1.8849415
     5   6 C        7   6 C                                       1.3963102
     8   6 C        9   8 O                                       1.4221814
     9   8 O       10   6 C                                       1.3512802
    10   6 C       11   8 O                                       1.2026826
    12   6 C       13   6 C                                       1.3253599
     7   6 C       14   6 C                                       1.3939307
    14   6 C       15  35 Br                                      1.8894056 (max)
     2   6 C       16   6 C                                       1.3922627
    14   6 C       16   6 C                                       1.3953275
    16   6 C       17  35 Br                                      1.8795037
     8   6 C       18   1 H                                       1.0936036
     8   6 C       19   1 H                                       1.0997392
    12   6 C       20   1 H                                       1.0788288
    13   6 C       21   1 H                                       1.0759106 (min)
    13   6 C       22   1 H                                       1.0780060

 * 4 distinct bonds (by element types)

   Z      Z             #   av. dist./Å        max./Å        min./Å
   1 H    6 C           5     1.0852176     1.0997392     1.0759106
   6 C    6 C           7     1.3841017     1.3963102     1.3253599
   6 C    8 O           3     1.3253814     1.4221814     1.2026826
   6 C   35 Br          5     1.8823396     1.8894056     1.8788113


optimized geometry written to: xtbopt.xyz


           -------------------------------------------------
          | TOTAL ENERGY              -52.475994913874 Eh   |
          | GRADIENT NORM               0.000455321960 Eh/α |
          | HOMO-LUMO GAP               3.145248650063 eV   |
           -------------------------------------------------

------------------------------------------------------------------------
 * finished run on 2025/12/01 at 14:17:39.790     
------------------------------------------------------------------------
 total:
 * wall-time:     0 d,  0 h,  0 min,  1.033 sec
 *  cpu-time:     0 d,  0 h,  0 min, 23.095 sec
 * ratio c/w:    22.356 speedup
 SCF:
 * wall-time:     0 d,  0 h,  0 min,  0.052 sec
 *  cpu-time:     0 d,  0 h,  0 min,  1.164 sec
 * ratio c/w:    22.379 speedup
 ANC optimizer:
 * wall-time:     0 d,  0 h,  0 min,  0.951 sec
 *  cpu-time:     0 d,  0 h,  0 min, 21.676 sec
 * ratio c/w:    22.804 speedup

normal termination of xtb
