      -----------------------------------------------------------      
     |                   =====================                   |     
     |                           x T B                           |     
     |                   =====================                   |     
     |                         S. Grimme                         |     
     |          Mulliken Center for Theoretical Chemistry        |     
     |                    University of Bonn                     |     
      -----------------------------------------------------------      

   * xtb version 6.7.1 (edcfbbe) compiled by 'albert@albert-system' on 2024-07-22

   xtb is free software: you can redistribute it and/or modify it under
   the terms of the GNU Lesser General Public License as published by
   the Free Software Foundation, either version 3 of the License, or
   (at your option) any later version.
   
   xtb is distributed in the hope that it will be useful,
   but WITHOUT ANY WARRANTY; without even the implied warranty of
   MERCHANTABILITY or FITNESS FOR A PARTICULAR PURPOSE.  See the
   GNU Lesser General Public License for more details.
   
   Cite this work as:
   * C. Bannwarth, E. Caldeweyher, S. Ehlert, A. Hansen, P. Pracht,
     J. Seibert, S. Spicher, S. Grimme, WIREs Comput. Mol. Sci., 2020, 11,
     e01493. DOI: 10.1002/wcms.1493
   
   for GFN2-xTB:
   * C. Bannwarth, S. Ehlert and S. Grimme., J. Chem. Theory Comput., 2019,
     15, 1652-1671. DOI: 10.1021/acs.jctc.8b01176
   for GFN1-xTB:
   * S. Grimme, C. Bannwarth, P. Shushkov, J. Chem. Theory Comput., 2017,
     13, 1989-2009. DOI: 10.1021/acs.jctc.7b00118
   for GFN0-xTB:
   * P. Pracht, E. Caldeweyher, S. Ehlert, S. Grimme, ChemRxiv, 2019, preprint.
     DOI: 10.26434/chemrxiv.8326202.v1
   for GFN-FF:
   * S. Spicher and S. Grimme, Angew. Chem. Int. Ed., 2020, 59, 15665-15673.
     DOI: 10.1002/anie.202004239
   
   for ALPB and GBSA implicit solvation:
   * S. Ehlert, M. Stahn, S. Spicher, S. Grimme, J. Chem. Theory Comput.,
     2021, 17, 4250-4261. DOI: 10.1021/acs.jctc.1c00471
   
   for ddCOSMO and CPCM-X implicit solvation:
   * M. Stahn, S. Ehlert, S. Grimme, J. Phys. Chem. A,
     2023, XX, XXXX-XXXX. DOI: 10.1021/acs.jpca.3c04382
   
   for DFT-D4:
   * E. Caldeweyher, C. Bannwarth and S. Grimme, J. Chem. Phys., 2017,
     147, 034112. DOI: 10.1063/1.4993215
   * E. Caldeweyher, S. Ehlert, A. Hansen, H. Neugebauer, S. Spicher,
     C. Bannwarth and S. Grimme, J. Chem. Phys., 2019, 150, 154122.
     DOI: 10.1063/1.5090222
   * E. Caldeweyher, J.-M. Mewes, S. Ehlert and S. Grimme, Phys. Chem. Chem. Phys.
     2020, 22, 8499-8512. DOI: 10.1039/D0CP00502A
   
   for sTDA-xTB:
   * S. Grimme and C. Bannwarth, J. Chem. Phys., 2016, 145, 054103.
     DOI: 10.1063/1.4959605
   
   in the mass-spec context:
   * V. Asgeirsson, C. Bauer and S. Grimme, Chem. Sci., 2017, 8, 4879.
     DOI: 10.1039/c7sc00601b
   * J. Koopman and S. Grimme, ACS Omega 2019, 4, 12, 15120-15133.
     DOI: 10.1021/acsomega.9b02011
   
   for metadynamics refer to:
   * S. Grimme, J. Chem. Theory Comput., 2019, 155, 2847-2862
     DOI: 10.1021/acs.jctc.9b00143
   
   for SPH calculations refer to:
   * S. Spicher and S. Grimme, J. Chem. Theory Comput., 2021, 17, 1701-1714
     DOI: 10.1021/acs.jctc.0c01306
   
   for ONIOM refer to:
   * C. Plett, A. Katbashev, S. Ehlert, S. Grimme, M. Bursch,
     Phys. Chem. Chem. Phys., 2023, 25, 17860-17868. DOI: 10.1039/D3CP02178E
   
   for DIPRO refer to:
   * J. Kohn, N. Gildemeister, S. Grimme, D. Fazzi, A. Hansen,
     J. Chem. Phys., 2023, just accepted.
   
   for PTB refer to:
   * S. Grimme, M. Mueller, A. Hansen, J. Chem. Phys., 2023, 158, 124111.
     DOI: 10.1063/5.0137838
   
   with help from (in alphabetical order)
   P. Atkinson, C. Bannwarth, F. Bohle, G. Brandenburg, E. Caldeweyher
   M. Checinski, S. Dohm, S. Ehlert, S. Ehrlich, I. Gerasimov, C. Hölzer
   A. Katbashev, J. Kohn, J. Koopman, C. Lavigne, S. Lehtola, F. März, M. Müller,
   F. Musil, H. Neugebauer, J. Pisarek, C. Plett, P. Pracht, F. Pultar,
   J. Seibert, P. Shushkov, S. Spicher, M. Stahn, M. Steiner, T. Strunk,
   J. Stückrath, T. Rose, and J. Unsleber
   
 * started run on 2025/12/01 at 14:17:40.763     
   ID    Z sym.   atoms
    1    6 C      1, 2, 4, 6, 8, 9
    2    8 O      3, 5, 7
    3    1 H      10-19

           -------------------------------------------------
          |                Calculation Setup                |
           -------------------------------------------------

          program call               : xtb pipeline_data/3_conformer_xyz/acrylates/rdkit/GWZMWHWAWHPNHN-YFKPBYRVSA-N_conf55.xyz --opt --gfn 2-xTB --iterations 250
          coordinate file            : pipeline_data/3_conformer_xyz/acrylates/rdkit/GWZMWHWAWHPNHN-YFKPBYRVSA-N_conf55.xyz
          omp threads                :                    24

########################################################################
[WARNING] Please study the warnings concerning your input carefully
-1- readin_getIntValue: could not parse '2-xTB'
########################################################################

           -------------------------------------------------
          |                 G F N 2 - x T B                 |
           -------------------------------------------------

        Reference                      10.1021/acs.jctc.8b01176
      * Hamiltonian:
        H0-scaling (s, p, d)           1.850000    2.230000    2.230000
        zeta-weighting                 0.500000
      * Dispersion:
        s8                             2.700000
        a1                             0.520000
        a2                             5.000000
        s9                             5.000000
      * Repulsion:
        kExp                           1.500000    1.000000
        rExp                           1.000000
      * Coulomb:
        alpha                          2.000000
        third order                    shell-resolved
        anisotropic                    true
        a3                             3.000000
        a5                             4.000000
        cn-shift                       1.200000
        cn-exp                         4.000000
        max-rad                        5.000000

q/qsh data taken from xtbrestart
CAMM data taken from xtbrestart

          ...................................................
          :                      SETUP                      :
          :.................................................:
          :  # basis functions                  46          :
          :  # atomic orbitals                  46          :
          :  # shells                           28          :
          :  # electrons                        52          :
          :  max. iterations                   250          :
          :  Hamiltonian                  GFN2-xTB          :
          :  restarted?                       true          :
          :  GBSA solvation                  false          :
          :  PC potential                    false          :
          :  electronic temp.          300.0000000     K    :
          :  accuracy                    1.0000000          :
          :  -> integral cutoff          0.2500000E+02      :
          :  -> integral neglect         0.1000000E-07      :
          :  -> SCF convergence          0.1000000E-05 Eh   :
          :  -> wf. convergence          0.1000000E-03 e    :
          :  Broyden damping             0.4000000          :
          :  net charge                          0          :
          :  unpaired electrons                  0          :
          ...................................................

 iter      E             dE          RMSdq      gap      omega  full diag
   1    -30.3913010 -0.303913E+02  0.448E+00    3.50       0.0  T
   2    -30.3982121 -0.691109E-02  0.266E+00    3.28       1.0  T
   3    -30.3978366  0.375495E-03  0.495E-01    3.48       1.0  T
   4    -30.3996929 -0.185631E-02  0.254E-01    3.36       1.0  T
   5    -30.4001981 -0.505221E-03  0.125E-01    3.39       1.0  T
   6    -30.4002253 -0.271449E-04  0.446E-02    3.40       1.0  T
   7    -30.4002442 -0.189573E-04  0.112E-02    3.39       2.1  T
   8    -30.4002445 -0.227986E-06  0.542E-03    3.39       4.2  T
   9    -30.4002445 -0.640621E-07  0.154E-03    3.39      14.9  T
  10    -30.4002445 -0.407407E-08  0.511E-04    3.39      44.9  T
  11    -30.4002445 -0.806480E-09  0.159E-04    3.39     144.6  T

   *** convergence criteria satisfied after 11 iterations ***

         #    Occupation            Energy/Eh            Energy/eV
      -------------------------------------------------------------
         1        2.0000           -0.7353082             -20.0088
       ...           ...                  ...                  ...
        20        2.0000           -0.4624819             -12.5848
        21        2.0000           -0.4602638             -12.5244
        22        2.0000           -0.4575452             -12.4504
        23        2.0000           -0.4422601             -12.0345
        24        2.0000           -0.4372137             -11.8972
        25        2.0000           -0.4248657             -11.5612
        26        2.0000           -0.4153899             -11.3033 (HOMO)
        27                         -0.2906373              -7.9086 (LUMO)
        28                         -0.1773517              -4.8260
        29                         -0.0438348              -1.1928
        30                          0.0288040               0.7838
        31                          0.0779803               2.1220
       ...                                ...                  ...
        46                          0.6051608              16.4673
      -------------------------------------------------------------
                  HL-Gap            0.1247526 Eh            3.3947 eV
             Fermi-level           -0.3530136 Eh           -9.6060 eV

 SCC (total)                   0 d,  0 h,  0 min,  0.022 sec
 SCC setup                      ...        0 min,  0.000 sec (  2.000%)
 Dispersion                     ...        0 min,  0.000 sec (  2.103%)
 classical contributions        ...        0 min,  0.000 sec (  0.543%)
 integral evaluation            ...        0 min,  0.001 sec (  6.121%)
 iterations                     ...        0 min,  0.018 sec ( 80.649%)
 molecular gradient             ...        0 min,  0.002 sec (  7.779%)
 printout                       ...        0 min,  0.000 sec (  0.611%)

         :::::::::::::::::::::::::::::::::::::::::::::::::::::
         ::                     SUMMARY                     ::
         :::::::::::::::::::::::::::::::::::::::::::::::::::::
         :: total energy             -30.098268478901 Eh    ::
         :: gradient norm              0.132534054020 Eh/a0 ::
         :: HOMO-LUMO gap              3.394691900477 eV    ::
         ::.................................................::
         :: SCC energy               -30.400262341453 Eh    ::
         :: -> isotropic ES            0.072770411927 Eh    ::
         :: -> anisotropic ES          0.000960962639 Eh    ::
         :: -> anisotropic XC          0.006131223060 Eh    ::
         :: -> dispersion             -0.011427207040 Eh    ::
         :: repulsion energy           0.301993862552 Eh    ::
         :: add. restraining           0.000000000000 Eh    ::
         :: total charge               0.000000000000 e     ::
         :::::::::::::::::::::::::::::::::::::::::::::::::::::

      ----------------------------------------------------------- 
     |                   =====================                   |
     |                        A N C O P T                        |
     |                   =====================                   |
     |               Approximate Normal Coordinate               |
     |                Rational Function Optimizer                |
      ----------------------------------------------------------- 
      ----------------------------------------------------------- 
     |                   =====================                   |
     |                        A N C O P T                        |
     |                   =====================                   |
     |               Approximate Normal Coordinate               |
     |                Rational Function Optimizer                |
      ----------------------------------------------------------- 

          ...................................................
          :                      SETUP                      :
          :.................................................:
          :   optimization level            normal          :
          :   max. optcycles                   200          :
          :   ANC micro-cycles                  20          :
          :   degrees of freedom                51          :
          :.................................................:
          :   RF solver                   davidson          :
          :   write xtbopt.log                true          :
          :   linear?                        false          :
          :   energy convergence         0.5000000E-05 Eh   :
          :   grad. convergence          0.1000000E-02 Eh/α :
          :   maxmium RF displ.          1.0000000          :
          :   Hlow (freq-cutoff)         0.1000000E-01      :
          :   Hmax (freq-cutoff)         5.0000000          :
          :   S6 in model hess.         20.0000000          :
          ...................................................

generating ANC from exact Hessian ...
Using Lindh-Hessian (1995)
 Shifting diagonal of input Hessian by   8.661370483177194E-003
 Lowest  eigenvalues of input Hessian
    0.000000    0.000000    0.000000    0.000000    0.000000    0.000000
    0.010000    0.010432    0.011715    0.014864    0.018969    0.019918
    0.021353    0.024801    0.028320    0.034793    0.040857    0.042563
 Highest eigenvalues
    1.334637    1.410094    1.535908    1.705357    1.981323    2.086414
 

........................................................................
.............................. CYCLE    1 ..............................
........................................................................

 iter      E             dE          RMSdq      gap      omega  full diag
   1    -30.4002445 -0.304002E+02  0.428E-05    3.39       0.0  T
   2    -30.4002445 -0.221334E-11  0.265E-05    3.39     865.2  T
   3    -30.4002445  0.182254E-11  0.189E-05    3.39    1217.0  T
     SCC iter.                  ...        0 min,  0.003 sec
     gradient                   ...        0 min,  0.001 sec
 * total energy  :   -30.0982685 Eh     change       -0.3856471E-10 Eh
   gradient norm :     0.1325334 Eh/α   predicted     0.0000000E+00 (-100.00%)
   displ. norm   :     0.2649446 α      lambda       -0.1757353E-01
   maximum displ.:     0.1523037 α      in ANC's #12, #31, #17, ...

........................................................................
.............................. CYCLE    2 ..............................
........................................................................

 iter      E             dE          RMSdq      gap      omega  full diag
   1    -30.4306054 -0.304306E+02  0.242E-01    3.56       0.0  T
   2    -30.4308863 -0.280907E-03  0.158E-01    3.62       1.0  T
   3    -30.4308949 -0.858431E-05  0.982E-02    3.62       1.0  T
   4    -30.4309382 -0.433744E-04  0.405E-02    3.63       1.0  T
   5    -30.4309556 -0.174000E-04  0.931E-03    3.62       2.5  T
   6    -30.4309562 -0.563515E-06  0.459E-03    3.62       5.0  T
   7    -30.4309563 -0.634832E-07  0.152E-03    3.62      15.1  T
   8    -30.4309563 -0.308656E-08  0.493E-04    3.62      46.5  T
   9    -30.4309563 -0.536961E-09  0.162E-04    3.62     141.2  T
     SCC iter.                  ...        0 min,  0.008 sec
     gradient                   ...        0 min,  0.001 sec
 * total energy  :   -30.1104282 Eh     change       -0.1215975E-01 Eh
   gradient norm :     0.0497587 Eh/α   predicted    -0.9407086E-02 ( -22.64%)
   displ. norm   :     0.2739147 α      lambda       -0.5093051E-02
   maximum displ.:     0.1491081 α      in ANC's #12, #8, #3, ...

........................................................................
.............................. CYCLE    3 ..............................
........................................................................

 iter      E             dE          RMSdq      gap      omega  full diag
   1    -30.4453484 -0.304453E+02  0.176E-01    3.72       0.0  T
   2    -30.4454638 -0.115343E-03  0.109E-01    3.77       1.0  T
   3    -30.4454528  0.109443E-04  0.688E-02    3.76       1.0  T
   4    -30.4454832 -0.303611E-04  0.265E-02    3.77       1.0  T
   5    -30.4454899 -0.676105E-05  0.506E-03    3.77       4.5  T
   6    -30.4454901 -0.128612E-06  0.237E-03    3.77       9.7  T
   7    -30.4454901 -0.255231E-07  0.768E-04    3.77      29.9  T
   8    -30.4454901 -0.845201E-09  0.287E-04    3.77      79.9  T
     SCC iter.                  ...        0 min,  0.007 sec
     gradient                   ...        0 min,  0.001 sec
 * total energy  :   -30.1132465 Eh     change       -0.2818281E-02 Eh
   gradient norm :     0.0131724 Eh/α   predicted    -0.2738360E-02 (  -2.84%)
   displ. norm   :     0.1869842 α      lambda       -0.7534415E-03
   maximum displ.:     0.1258016 α      in ANC's #3, #8, #4, ...

........................................................................
.............................. CYCLE    4 ..............................
........................................................................

 iter      E             dE          RMSdq      gap      omega  full diag
   1    -30.4446476 -0.304446E+02  0.736E-02    3.77       0.0  T
   2    -30.4446509 -0.326700E-05  0.446E-02    3.77       1.0  T
   3    -30.4446462  0.468136E-05  0.218E-02    3.77       1.1  T
   4    -30.4446517 -0.544562E-05  0.525E-03    3.77       4.4  T
   5    -30.4446520 -0.346681E-06  0.157E-03    3.77      14.6  T
   6    -30.4446520 -0.599673E-08  0.767E-04    3.77      29.9  T
   7    -30.4446520 -0.157098E-08  0.218E-04    3.77     105.3  T
     SCC iter.                  ...        0 min,  0.006 sec
     gradient                   ...        0 min,  0.002 sec
 * total energy  :   -30.1137949 Eh     change       -0.5483950E-03 Eh
   gradient norm :     0.0087572 Eh/α   predicted    -0.3899219E-03 ( -28.90%)
   displ. norm   :     0.3260530 α      lambda       -0.8336272E-03
   maximum displ.:     0.2324534 α      in ANC's #3, #8, #4, ...

........................................................................
.............................. CYCLE    5 ..............................
........................................................................

 iter      E             dE          RMSdq      gap      omega  full diag
   1    -30.4418261 -0.304418E+02  0.114E-01    3.76       0.0  T
   2    -30.4418315 -0.537000E-05  0.696E-02    3.77       1.0  T
   3    -30.4418250  0.645211E-05  0.250E-02    3.77       1.0  T
   4    -30.4418327 -0.766108E-05  0.721E-03    3.77       3.2  T
   5    -30.4418333 -0.593214E-06  0.250E-03    3.77       9.2  T
   6    -30.4418333 -0.167170E-07  0.106E-03    3.77      21.5  T
   7    -30.4418333 -0.315818E-08  0.349E-04    3.77      65.8  T
   8    -30.4418333 -0.265825E-09  0.103E-04    3.77     222.4  T
     SCC iter.                  ...        0 min,  0.007 sec
     gradient                   ...        0 min,  0.001 sec
 * total energy  :   -30.1142345 Eh     change       -0.4396112E-03 Eh
   gradient norm :     0.0115082 Eh/α   predicted    -0.4611202E-03 (   4.89%)
   displ. norm   :     0.1558152 α      lambda       -0.3517471E-03
   maximum displ.:     0.1226943 α      in ANC's #3, #4, #1, ...

........................................................................
.............................. CYCLE    6 ..............................
........................................................................

 iter      E             dE          RMSdq      gap      omega  full diag
   1    -30.4430651 -0.304431E+02  0.644E-02    3.77       0.0  T
   2    -30.4430659 -0.811544E-06  0.390E-02    3.77       1.0  T
   3    -30.4430659 -0.507683E-07  0.347E-03    3.76       6.6  T
   4    -30.4430660 -0.111988E-06  0.131E-03    3.77      17.6  T
   5    -30.4430661 -0.235568E-08  0.597E-04    3.77      38.4  T
   6    -30.4430661 -0.605667E-10  0.136E-04    3.77     168.8  T
     SCC iter.                  ...        0 min,  0.005 sec
     gradient                   ...        0 min,  0.002 sec
 * total energy  :   -30.1144727 Eh     change       -0.2382082E-03 Eh
   gradient norm :     0.0085089 Eh/α   predicted    -0.1801444E-03 ( -24.38%)
   displ. norm   :     0.1633303 α      lambda       -0.2856086E-03
   maximum displ.:     0.1349576 α      in ANC's #3, #4, #1, ...

........................................................................
.............................. CYCLE    7 ..............................
........................................................................

 iter      E             dE          RMSdq      gap      omega  full diag
   1    -30.4459543 -0.304460E+02  0.542E-02    3.76       0.0  T
   2    -30.4459560 -0.172752E-05  0.326E-02    3.76       1.0  T
   3    -30.4459559  0.924877E-07  0.654E-03    3.76       3.5  T
   4    -30.4459561 -0.206424E-06  0.294E-03    3.76       7.8  T
   5    -30.4459562 -0.108952E-06  0.132E-03    3.76      17.4  T
   6    -30.4459562 -0.859601E-08  0.514E-04    3.76      44.6  T
   7    -30.4459562 -0.393836E-09  0.143E-04    3.76     160.0  T
     SCC iter.                  ...        0 min,  0.006 sec
     gradient                   ...        0 min,  0.001 sec
 * total energy  :   -30.1146609 Eh     change       -0.1881427E-03 Eh
   gradient norm :     0.0047509 Eh/α   predicted    -0.1466168E-03 ( -22.07%)
   displ. norm   :     0.1975544 α      lambda       -0.1739675E-03
   maximum displ.:     0.1514711 α      in ANC's #3, #4, #5, ...

........................................................................
.............................. CYCLE    8 ..............................
........................................................................

 iter      E             dE          RMSdq      gap      omega  full diag
   1    -30.4459606 -0.304460E+02  0.607E-02    3.75       0.0  T
   2    -30.4459620 -0.132286E-05  0.369E-02    3.75       1.0  T
   3    -30.4459621 -0.107964E-06  0.464E-03    3.75       4.9  T
   4    -30.4459621 -0.776991E-07  0.224E-03    3.75      10.2  T
   5    -30.4459622 -0.425793E-07  0.108E-03    3.75      21.2  T
   6    -30.4459622 -0.518494E-08  0.365E-04    3.75      62.9  T
   7    -30.4459622 -0.703420E-09  0.956E-05    3.75     239.9  T
     SCC iter.                  ...        0 min,  0.006 sec
     gradient                   ...        0 min,  0.002 sec
 * total energy  :   -30.1147784 Eh     change       -0.1175720E-03 Eh
   gradient norm :     0.0044560 Eh/α   predicted    -0.9038713E-04 ( -23.12%)
   displ. norm   :     0.1487019 α      lambda       -0.1078040E-03
   maximum displ.:     0.1154418 α      in ANC's #3, #5, #4, ...

........................................................................
.............................. CYCLE    9 ..............................
........................................................................

 iter      E             dE          RMSdq      gap      omega  full diag
   1    -30.4465339 -0.304465E+02  0.446E-02    3.74       0.0  T
   2    -30.4465345 -0.534937E-06  0.269E-02    3.75       1.0  T
   3    -30.4465344  0.863858E-07  0.465E-03    3.74       4.9  T
   4    -30.4465346 -0.177206E-06  0.210E-03    3.74      10.9  T
   5    -30.4465346 -0.487455E-07  0.885E-04    3.74      25.9  T
   6    -30.4465346 -0.257479E-08  0.301E-04    3.74      76.1  T
     SCC iter.                  ...        0 min,  0.005 sec
     gradient                   ...        0 min,  0.001 sec
 * total energy  :   -30.1148519 Eh     change       -0.7348344E-04 Eh
   gradient norm :     0.0028849 Eh/α   predicted    -0.5509628E-04 ( -25.02%)
   displ. norm   :     0.0866362 α      lambda       -0.4902906E-04
   maximum displ.:     0.0573161 α      in ANC's #3, #5, #4, ...

........................................................................
.............................. CYCLE   10 ..............................
........................................................................

 iter      E             dE          RMSdq      gap      omega  full diag
   1    -30.4467678 -0.304468E+02  0.294E-02    3.74       0.0  T
   2    -30.4467679 -0.160976E-06  0.177E-02    3.74       1.3  T
   3    -30.4467677  0.258210E-06  0.466E-03    3.74       4.9  T
   4    -30.4467680 -0.302602E-06  0.123E-03    3.74      18.7  T
   5    -30.4467680 -0.172342E-07  0.511E-04    3.74      44.9  T
   6    -30.4467680 -0.556227E-09  0.126E-04    3.74     181.5  T
     SCC iter.                  ...        0 min,  0.005 sec
     gradient                   ...        0 min,  0.001 sec
 * total energy  :   -30.1148863 Eh     change       -0.3439615E-04 Eh
   gradient norm :     0.0020497 Eh/α   predicted    -0.2471479E-04 ( -28.15%)
   displ. norm   :     0.0660959 α      lambda       -0.3097442E-04
   maximum displ.:     0.0456959 α      in ANC's #5, #3, #4, ...

........................................................................
.............................. CYCLE   11 ..............................
........................................................................

 iter      E             dE          RMSdq      gap      omega  full diag
   1    -30.4469124 -0.304469E+02  0.229E-02    3.74       0.0  T
   2    -30.4469126 -0.148672E-06  0.137E-02    3.74       1.7  T
   3    -30.4469124  0.142559E-06  0.346E-03    3.74       6.6  T
   4    -30.4469126 -0.152113E-06  0.119E-03    3.74      19.4  T
   5    -30.4469126 -0.211253E-07  0.327E-04    3.74      70.2  T
   6    -30.4469126 -0.347907E-09  0.132E-04    3.74     174.0  T
     SCC iter.                  ...        0 min,  0.005 sec
     gradient                   ...        0 min,  0.001 sec
 * total energy  :   -30.1149091 Eh     change       -0.2275535E-04 Eh
   gradient norm :     0.0019310 Eh/α   predicted    -0.1555608E-04 ( -31.64%)
   displ. norm   :     0.1383113 α      lambda       -0.3291295E-04
   maximum displ.:     0.0973486 α      in ANC's #5, #4, #1, ...

........................................................................
.............................. CYCLE   12 ..............................
........................................................................

 iter      E             dE          RMSdq      gap      omega  full diag
   1    -30.4461708 -0.304462E+02  0.425E-02    3.74       0.0  T
   2    -30.4461713 -0.457074E-06  0.254E-02    3.74       1.0  T
   3    -30.4461711  0.172947E-06  0.426E-03    3.75       5.4  T
   4    -30.4461713 -0.196323E-06  0.186E-03    3.75      12.3  T
   5    -30.4461713 -0.487928E-07  0.618E-04    3.75      37.1  T
   6    -30.4461713 -0.194520E-08  0.258E-04    3.75      88.9  T
     SCC iter.                  ...        0 min,  0.005 sec
     gradient                   ...        0 min,  0.001 sec
 * total energy  :   -30.1149365 Eh     change       -0.2740668E-04 Eh
   gradient norm :     0.0032554 Eh/α   predicted    -0.1659806E-04 ( -39.44%)
   displ. norm   :     0.0847341 α      lambda       -0.4346360E-04
   maximum displ.:     0.0526201 α      in ANC's #1, #3, #5, ...

........................................................................
.............................. CYCLE   13 ..............................
........................................................................

 iter      E             dE          RMSdq      gap      omega  full diag
   1    -30.4473450 -0.304473E+02  0.299E-02    3.75       0.0  T
   2    -30.4473457 -0.666234E-06  0.172E-02    3.75       1.3  T
   3    -30.4473457 -0.813268E-08  0.413E-03    3.75       5.6  T
   4    -30.4473457 -0.309610E-07  0.152E-03    3.75      15.1  T
   5    -30.4473457 -0.230939E-07  0.664E-04    3.75      34.6  T
   6    -30.4473457 -0.119514E-08  0.308E-04    3.75      74.5  T
     SCC iter.                  ...        0 min,  0.005 sec
     gradient                   ...        0 min,  0.001 sec
 * total energy  :   -30.1149536 Eh     change       -0.1716457E-04 Eh
   gradient norm :     0.0036588 Eh/α   predicted    -0.2188869E-04 (  27.52%)
   displ. norm   :     0.0702727 α      lambda       -0.3565753E-04
   maximum displ.:     0.0396000 α      in ANC's #5, #4, #1, ...

........................................................................
.............................. CYCLE   14 ..............................
........................................................................

 iter      E             dE          RMSdq      gap      omega  full diag
   1    -30.4467333 -0.304467E+02  0.226E-02    3.75       0.0  T
   2    -30.4467334 -0.142991E-06  0.134E-02    3.75       1.7  T
   3    -30.4467333  0.148543E-06  0.367E-03    3.75       6.3  T
   4    -30.4467334 -0.164925E-06  0.111E-03    3.75      20.6  T
   5    -30.4467335 -0.165696E-07  0.374E-04    3.75      61.4  T
   6    -30.4467335 -0.197868E-09  0.139E-04    3.75     165.0  T
     SCC iter.                  ...        0 min,  0.005 sec
     gradient                   ...        0 min,  0.002 sec
 * total energy  :   -30.1149799 Eh     change       -0.2629626E-04 Eh
   gradient norm :     0.0024655 Eh/α   predicted    -0.1794221E-04 ( -31.77%)
   displ. norm   :     0.0853732 α      lambda       -0.3019901E-04
   maximum displ.:     0.0514321 α      in ANC's #1, #4, #5, ...

........................................................................
.............................. CYCLE   15 ..............................
........................................................................

 iter      E             dE          RMSdq      gap      omega  full diag
   1    -30.4462038 -0.304462E+02  0.262E-02    3.75       0.0  T
   2    -30.4462041 -0.237346E-06  0.157E-02    3.75       1.5  T
   3    -30.4462038  0.295490E-06  0.513E-03    3.75       4.5  T
   4    -30.4462041 -0.340810E-06  0.153E-03    3.75      15.0  T
   5    -30.4462042 -0.302218E-07  0.557E-04    3.75      41.2  T
   6    -30.4462042 -0.534463E-09  0.205E-04    3.75     112.1  T
     SCC iter.                  ...        0 min,  0.005 sec
     gradient                   ...        0 min,  0.001 sec
 * total energy  :   -30.1149949 Eh     change       -0.1497018E-04 Eh
   gradient norm :     0.0018118 Eh/α   predicted    -0.1521421E-04 (   1.63%)
   displ. norm   :     0.0353642 α      lambda       -0.8043507E-05
   maximum displ.:     0.0248946 α      in ANC's #1, #4, #8, ...

........................................................................
.............................. CYCLE   16 ..............................
........................................................................

 iter      E             dE          RMSdq      gap      omega  full diag
   1    -30.4467539 -0.304468E+02  0.128E-02    3.75       0.0  T
   2    -30.4467541 -0.135517E-06  0.752E-03    3.75       3.0  T
   3    -30.4467540  0.444414E-07  0.258E-03    3.75       8.9  T
   4    -30.4467541 -0.503100E-07  0.110E-03    3.75      20.8  T
   5    -30.4467541 -0.161484E-07  0.300E-04    3.75      76.5  T
   6    -30.4467541 -0.529372E-09  0.113E-04    3.75     202.8  T
     SCC iter.                  ...        0 min,  0.005 sec
     gradient                   ...        0 min,  0.001 sec
 * total energy  :   -30.1150017 Eh     change       -0.6736705E-05 Eh
   gradient norm :     0.0014623 Eh/α   predicted    -0.4028951E-05 ( -40.19%)
   displ. norm   :     0.0351715 α      lambda       -0.5170110E-05
   maximum displ.:     0.0241825 α      in ANC's #1, #4, #3, ...

........................................................................
.............................. CYCLE   17 ..............................
........................................................................

 iter      E             dE          RMSdq      gap      omega  full diag
   1    -30.4470225 -0.304470E+02  0.114E-02    3.75       0.0  T
   2    -30.4470225 -0.806579E-07  0.658E-03    3.75       3.5  T
   3    -30.4470225  0.226727E-08  0.145E-03    3.75      15.9  T
   4    -30.4470225 -0.798315E-08  0.421E-04    3.75      54.5  T
   5    -30.4470225 -0.157372E-08  0.223E-04    3.75     103.0  T
     SCC iter.                  ...        0 min,  0.004 sec
     gradient                   ...        0 min,  0.001 sec
 * total energy  :   -30.1150070 Eh     change       -0.5299237E-05 Eh
   gradient norm :     0.0010842 Eh/α   predicted    -0.2590147E-05 ( -51.12%)
   displ. norm   :     0.1026889 α      lambda       -0.7521515E-05
   maximum displ.:     0.0628800 α      in ANC's #1, #4, #3, ...

........................................................................
.............................. CYCLE   18 ..............................
........................................................................

 iter      E             dE          RMSdq      gap      omega  full diag
   1    -30.4467876 -0.304468E+02  0.284E-02    3.75       0.0  T
   2    -30.4467877 -0.104144E-06  0.169E-02    3.75       1.4  T
   3    -30.4467877  0.301965E-08  0.154E-03    3.75      14.9  T
   4    -30.4467877 -0.186936E-07  0.622E-04    3.75      36.9  T
   5    -30.4467877 -0.219097E-08  0.366E-04    3.75      62.7  T
     SCC iter.                  ...        0 min,  0.004 sec
     gradient                   ...        0 min,  0.001 sec
 * total energy  :   -30.1150140 Eh     change       -0.7079991E-05 Eh
   gradient norm :     0.0014546 Eh/α   predicted    -0.3779725E-05 ( -46.61%)
   displ. norm   :     0.0610830 α      lambda       -0.5572665E-05
   maximum displ.:     0.0415334 α      in ANC's #1, #3, #4, ...

........................................................................
.............................. CYCLE   19 ..............................
........................................................................

 iter      E             dE          RMSdq      gap      omega  full diag
   1    -30.4469468 -0.304469E+02  0.212E-02    3.74       0.0  T
   2    -30.4469468 -0.653671E-07  0.125E-02    3.75       1.8  T
   3    -30.4469468  0.274092E-07  0.175E-03    3.75      13.1  T
   4    -30.4469468 -0.342955E-07  0.768E-04    3.75      29.9  T
   5    -30.4469468 -0.702456E-08  0.285E-04    3.75      80.6  T
     SCC iter.                  ...        0 min,  0.008 sec
     gradient                   ...        0 min,  0.001 sec
 * total energy  :   -30.1150197 Eh     change       -0.5682970E-05 Eh
   gradient norm :     0.0013701 Eh/α   predicted    -0.2793147E-05 ( -50.85%)
   displ. norm   :     0.1095101 α      lambda       -0.6703728E-05
   maximum displ.:     0.0814906 α      in ANC's #1, #4, #3, ...

........................................................................
.............................. CYCLE   20 ..............................
........................................................................

 iter      E             dE          RMSdq      gap      omega  full diag
   1    -30.4468576 -0.304469E+02  0.349E-02    3.75       0.0  T
   2    -30.4468577 -0.803803E-07  0.207E-02    3.75       1.1  T
   3    -30.4468577  0.478219E-07  0.232E-03    3.75       9.9  T
   4    -30.4468577 -0.752627E-07  0.933E-04    3.75      24.6  T
   5    -30.4468577 -0.678146E-08  0.450E-04    3.75      51.0  T
     SCC iter.                  ...        0 min,  0.008 sec
     gradient                   ...        0 min,  0.002 sec
 * total energy  :   -30.1150247 Eh     change       -0.4973892E-05 Eh
   gradient norm :     0.0011223 Eh/α   predicted    -0.3372273E-05 ( -32.20%)
   displ. norm   :     0.0234792 α      lambda       -0.2613988E-05
   maximum displ.:     0.0159484 α      in ANC's #1, #5, #2, ...
 * RMSD in coord.:     0.4185097 α      energy gain  -0.1675621E-01 Eh

generating ANC from exact Hessian ...
Using Lindh-Hessian (1995)
 Shifting diagonal of input Hessian by   8.681452168949229E-003
 Lowest  eigenvalues of input Hessian
    0.000000    0.000000    0.000000    0.000000    0.000000    0.000000
    0.010000    0.010849    0.011848    0.014938    0.019757    0.020002
    0.022499    0.025294    0.028664    0.037251    0.039537    0.046331
 Highest eigenvalues
    1.312365    1.450024    1.520447    1.756134    2.028310    2.391063
 

........................................................................
.............................. CYCLE   21 ..............................
........................................................................

 iter      E             dE          RMSdq      gap      omega  full diag
   1    -30.4470590 -0.304471E+02  0.123E-02    3.75       0.0  T
   2    -30.4470590 -0.116153E-07  0.722E-03    3.75       3.2  T
   3    -30.4470590  0.980399E-08  0.966E-04    3.75      23.8  T
   4    -30.4470590 -0.139110E-07  0.332E-04    3.75      69.1  T
     SCC iter.                  ...        0 min,  0.004 sec
     gradient                   ...        0 min,  0.001 sec
 * total energy  :   -30.1150270 Eh     change       -0.2264945E-05 Eh
   gradient norm :     0.0008035 Eh/α   predicted     0.0000000E+00 (-100.00%)
   displ. norm   :     0.0109820 α      lambda       -0.1440445E-05
   maximum displ.:     0.0072190 α      in ANC's #1, #2, #3, ...

   *** GEOMETRY OPTIMIZATION CONVERGED AFTER 21 ITERATIONS ***

------------------------------------------------------------------------
 total energy gain   :        -0.0167585 Eh      -10.5161 kcal/mol
 total RMSD          :         0.4185097 a0        0.2215 Å
 total power (kW/mol):        -2.0952080 (step) -220.5505 (real)
------------------------------------------------------------------------

 ANCopt (total)                0 d,  0 h,  0 min,  0.200 sec
 optimizer setup                ...        0 min,  0.000 sec (  0.069%)
 model hessian                  ...        0 min,  0.009 sec (  4.326%)
 ANC generation                 ...        0 min,  0.001 sec (  0.451%)
 coordinate transformation      ...        0 min,  0.000 sec (  0.082%)
 single point calculation       ...        0 min,  0.172 sec ( 86.345%)
 optimization log               ...        0 min,  0.003 sec (  1.360%)
 hessian update                 ...        0 min,  0.012 sec (  5.878%)
 rational function              ...        0 min,  0.002 sec (  1.037%)

================
 final structure:
================
19
 xtb: 6.7.1 (edcfbbe)
C           -2.27950957740632        0.99041462664202       -0.79815602328829
C           -1.93675168730689       -0.47044812773604       -0.53616546791051
O           -3.08917408355844       -1.09874442818776       -0.02378949700858
C           -0.77156458467137       -0.58980646419028        0.45589933921161
O            0.40395066849027       -0.08532863470511       -0.16438892329654
C            1.53265892663347       -0.15293587117789        0.55980201634133
O            1.58430712075660       -0.62007815349635        1.66970134300926
C            2.67161784367673        0.41492632831075       -0.19230730622360
C            3.88382917663730        0.47260454960243        0.33868532769482
H           -2.63618092675551        1.44896576265473        0.11965912186659
H           -1.39770128124083        1.51609209925397       -1.14989852253106
H           -3.06444443438681        1.05452254039194       -1.54575543445390
H           -1.62789477244651       -0.94831748779214       -1.48020911741974
H           -2.90841188537493       -2.03240475195279        0.13233509764128
H           -0.60613274704657       -1.63680069966209        0.74291173636710
H           -0.98142248743781       -0.01981198661999        1.36806176417316
H            2.44114581311472        0.77316161648820       -1.18391003968497
H            4.72638954274536        0.88387218365683       -0.18988756139564
H            4.05529037557739        0.10011689851953        1.33562814690760
 
 Bond Distances (Angstroems)
 ---------------------------
C1-C2=1.5232         C1-H10=1.0862        C1-H11=1.0852        C1-H12=1.0859        C2-C1=1.5232         C2-O3=1.4090         
C2-C4=1.5350         C2-H13=1.1023        O3-C2=1.4090         O3-H14=0.9637        C4-C2=1.5350         C4-O5=1.4217         
C4-H15=1.0982        C4-H16=1.0959        O5-C4=1.4217         O5-C6=1.3428         C6-O5=1.3428         C6-O7=1.2053         
C6-C8=1.4783         O7-C6=1.2053         C8-C6=1.4783         C8-C9=1.3247         C8-H17=1.0792        C9-C8=1.3247         
C9-H18=1.0763        C9-H19=1.0780        H10-C1=1.0862        H11-C1=1.0852        H12-C1=1.0859        H13-C2=1.1023        
H14-O3=0.9637        H15-C4=1.0982        H16-C4=1.0959        H17-C8=1.0792        H18-C9=1.0763        H19-C9=1.0780        
 C  H  Rav=1.0875 sigma=0.0088  Rmin=1.0763  Rmax=1.1023     9
 C  C  Rav=1.4653 sigma=0.0839  Rmin=1.3247  Rmax=1.5350     4
 O  H  Rav=0.9637 sigma=0.0000  Rmin=0.9637  Rmax=0.9637     1
 O  C  Rav=1.3447 sigma=0.0859  Rmin=1.2053  Rmax=1.4217     4
 
 selected bond angles (degree)
 --------------------
H10-C1-C2=109.48               H11-C1-C2=109.72               H11-C1-H10=109.65              H12-C1-C2=109.74               
H12-C1-H10=108.63              H12-C1-H11=109.61              O3-C2-C1=107.83                C4-C2-C1=110.89                
C4-C2-O3=110.56                H13-C2-C1=109.36               H13-C2-O3=110.32               H13-C2-C4=107.89               
H14-O3-C2=109.72               O5-C4-C2=108.55                H15-C4-C2=110.94               H15-C4-O5=109.13               
H16-C4-C2=110.62               H16-C4-O5=109.69               H16-C4-H15=107.89              C6-O5-C4=116.22                
O7-C6-O5=123.52                C8-C6-O5=110.73                C8-C6-O7=125.76                C9-C8-C6=121.19                
H17-C8-C6=115.50               H17-C8-C9=123.32               H18-C9-C8=122.42               H19-C9-C8=120.08               
H19-C9-H18=117.50              
 
 selected dihedral angles (degree)
 ---------------------------------
O3-C2-C1-H10= 56.94           O3-C2-C1-H11=177.31           O3-C2-C1-H12=297.80           C4-C2-C1-H10=295.77           
C4-C2-C1-H11= 56.14           C4-C2-C1-H12=176.63           H13-C2-C1-H10=176.92          H13-C2-C1-H11=297.29          
H13-C2-C1-H12= 57.78          H14-O3-C2-C1=178.64           H14-O3-C2-C4=300.02           H14-O3-C2-H13= 59.27          
O5-C4-C2-C1=292.76            O5-C4-C2-O3=173.22            O5-C4-C2-H13= 52.50           H15-C4-C2-C1=172.86           
H15-C4-C2-O3= 53.31           H15-C4-C2-H13=292.59          H16-C4-C2-C1= 53.16           H16-C4-C2-O3=293.61           
H16-C4-C2-H13=172.90          C6-O5-C4-C2=181.88            C6-O5-C4-H15=302.91           C6-O5-C4-H16= 60.91           
O7-C6-O5-C4=  0.71            C8-C6-O5-C4=180.60            C9-C8-C6-O5=178.89            C9-C8-C6-O7=358.77            
H17-C8-C6-O5=359.07           H17-C8-C6-O7=178.96           H18-C9-C8-C6=180.15           H18-C9-C8-H17=359.95          
H19-C9-C8-C6=  0.12           H19-C9-C8-H17=179.92          
           -------------------------------------------------
          |                Final Singlepoint                |
           -------------------------------------------------

          ...................................................
          :                      SETUP                      :
          :.................................................:
          :  # basis functions                  46          :
          :  # atomic orbitals                  46          :
          :  # shells                           28          :
          :  # electrons                        52          :
          :  max. iterations                   250          :
          :  Hamiltonian                  GFN2-xTB          :
          :  restarted?                      false          :
          :  GBSA solvation                  false          :
          :  PC potential                    false          :
          :  electronic temp.          300.0000000     K    :
          :  accuracy                    1.0000000          :
          :  -> integral cutoff          0.2500000E+02      :
          :  -> integral neglect         0.1000000E-07      :
          :  -> SCF convergence          0.1000000E-05 Eh   :
          :  -> wf. convergence          0.1000000E-03 e    :
          :  Broyden damping             0.4000000          :
          :  net charge                          0          :
          :  unpaired electrons                  0          :
          ...................................................

 iter      E             dE          RMSdq      gap      omega  full diag
   1    -30.4470590 -0.304471E+02  0.156E-04    3.75       0.0  T
   2    -30.4470590 -0.287272E-10  0.992E-05    3.75     231.3  T
   3    -30.4470590  0.107114E-10  0.603E-05    3.75     380.5  T

   *** convergence criteria satisfied after 3 iterations ***

         #    Occupation            Energy/Eh            Energy/eV
      -------------------------------------------------------------
         1        2.0000           -0.7475065             -20.3407
       ...           ...                  ...                  ...
        20        2.0000           -0.4676997             -12.7268
        21        2.0000           -0.4659963             -12.6804
        22        2.0000           -0.4602673             -12.5245
        23        2.0000           -0.4463328             -12.1453
        24        2.0000           -0.4426746             -12.0458
        25        2.0000           -0.4239084             -11.5351
        26        2.0000           -0.4181721             -11.3790 (HOMO)
        27                         -0.2804650              -7.6318 (LUMO)
        28                         -0.1702761              -4.6334
        29                         -0.0135328              -0.3682
        30                          0.0594558               1.6179
        31                          0.0759055               2.0655
       ...                                ...                  ...
        46                          0.7032137              19.1354
      -------------------------------------------------------------
                  HL-Gap            0.1377071 Eh            3.7472 eV
             Fermi-level           -0.3493186 Eh           -9.5054 eV

 SCC (total)                   0 d,  0 h,  0 min,  0.005 sec
 SCC setup                      ...        0 min,  0.001 sec ( 19.771%)
 Dispersion                     ...        0 min,  0.000 sec (  1.688%)
 classical contributions        ...        0 min,  0.000 sec (  3.123%)
 integral evaluation            ...        0 min,  0.000 sec (  6.907%)
 iterations                     ...        0 min,  0.002 sec ( 40.431%)
 molecular gradient             ...        0 min,  0.001 sec ( 25.864%)
 printout                       ...        0 min,  0.000 sec (  1.786%)

         :::::::::::::::::::::::::::::::::::::::::::::::::::::
         ::                     SUMMARY                     ::
         :::::::::::::::::::::::::::::::::::::::::::::::::::::
         :: total energy             -30.115026954347 Eh    ::
         :: gradient norm              0.000802620889 Eh/a0 ::
         :: HOMO-LUMO gap              3.747201310963 eV    ::
         ::.................................................::
         :: SCC energy               -30.447069798450 Eh    ::
         :: -> isotropic ES            0.068688806111 Eh    ::
         :: -> anisotropic ES          0.001427845735 Eh    ::
         :: -> anisotropic XC          0.005648141261 Eh    ::
         :: -> dispersion             -0.011559157856 Eh    ::
         :: repulsion energy           0.332042844103 Eh    ::
         :: add. restraining           0.000000000000 Eh    ::
         :: total charge              -0.000000000000 e     ::
         :::::::::::::::::::::::::::::::::::::::::::::::::::::

           -------------------------------------------------
          |                Property Printout                |
           -------------------------------------------------

    * Orbital Energies and Occupations

         #    Occupation            Energy/Eh            Energy/eV
      -------------------------------------------------------------
         1        2.0000           -0.7475065             -20.3407
       ...           ...                  ...                  ...
        14        2.0000           -0.5316580             -14.4672
        15        2.0000           -0.5195142             -14.1367
        16        2.0000           -0.5119110             -13.9298
        17        2.0000           -0.5040449             -13.7158
        18        2.0000           -0.4907042             -13.3527
        19        2.0000           -0.4722501             -12.8506
        20        2.0000           -0.4676997             -12.7268
        21        2.0000           -0.4659963             -12.6804
        22        2.0000           -0.4602673             -12.5245
        23        2.0000           -0.4463328             -12.1453
        24        2.0000           -0.4426746             -12.0458
        25        2.0000           -0.4239084             -11.5351
        26        2.0000           -0.4181721             -11.3790 (HOMO)
        27                         -0.2804650              -7.6318 (LUMO)
        28                         -0.1702761              -4.6334
        29                         -0.0135328              -0.3682
        30                          0.0594558               1.6179
        31                          0.0759055               2.0655
        32                          0.1056693               2.8754
        33                          0.1235155               3.3610
        34                          0.1275355               3.4704
        35                          0.1313951               3.5754
        36                          0.1488741               4.0511
        37                          0.1770563               4.8179
       ...                                ...                  ...
        46                          0.7032137              19.1354
      -------------------------------------------------------------
                  HL-Gap            0.1377071 Eh            3.7472 eV
             Fermi-level           -0.3493186 Eh           -9.5054 eV

     #   Z          covCN         q      C6AA      α(0)
     1   6 C        3.754    -0.117    22.791     6.807
     2   6 C        3.723     0.118    18.758     6.185
     3   8 O        1.656    -0.437    21.575     6.270
     4   6 C        3.706     0.069    19.561     6.323
     5   8 O        1.706    -0.270    18.474     5.803
     6   6 C        2.729     0.356    20.955     7.494
     7   8 O        0.856    -0.409    21.853     6.268
     8   6 C        2.887    -0.059    29.454     8.898
     9   6 C        2.842    -0.059    29.452     8.894
    10   1 H        0.925     0.060     2.201     2.320
    11   1 H        0.925     0.054     2.273     2.357
    12   1 H        0.925     0.060     2.203     2.321
    13   1 H        0.923     0.028     2.621     2.532
    14   1 H        0.805     0.288     0.757     1.367
    15   1 H        0.923     0.046     2.373     2.409
    16   1 H        0.924     0.060     2.194     2.316
    17   1 H        0.926     0.065     2.141     2.288
    18   1 H        0.926     0.065     2.140     2.287
    19   1 H        0.926     0.080     1.975     2.198

 Mol. C6AA /au·bohr⁶  :       3217.367889
 Mol. C8AA /au·bohr⁸  :      70718.982511
 Mol. α(0) /au        :         85.337412


Wiberg/Mayer (AO) data.
largest (>0.10) Wiberg bond orders for each atom

 ---------------------------------------------------------------------------
     #   Z sym  total        # sym  WBO       # sym  WBO       # sym  WBO
 ---------------------------------------------------------------------------
     1   6 C    3.991 --     2 C    1.006    12 H    0.984    10 H    0.984
                            11 H    0.984
     2   6 C    3.955 --     1 C    1.006     3 O    0.993     4 C    0.978
                            13 H    0.961
     3   8 O    1.964 --     2 C    0.993    14 H    0.900
     4   6 C    3.928 --     2 C    0.978    15 H    0.966    16 H    0.965
                             5 O    0.948
     5   8 O    2.300 --     6 C    1.113     4 C    0.948     7 O    0.172
     6   6 C    3.918 --     7 O    1.731     5 O    1.113     8 C    1.012
     7   8 O    2.037 --     6 C    1.731     5 O    0.172
     8   6 C    3.988 --     9 C    1.931     6 C    1.012    17 H    0.964
     9   6 C    3.981 --     8 C    1.931    18 H    0.975    19 H    0.970
    10   1 H    0.996 --     1 C    0.984
    11   1 H    0.997 --     1 C    0.984
    12   1 H    0.996 --     1 C    0.984
    13   1 H    0.999 --     2 C    0.961
    14   1 H    0.917 --     3 O    0.900
    15   1 H    0.998 --     4 C    0.966
    16   1 H    0.996 --     4 C    0.965
    17   1 H    0.996 --     8 C    0.964
    18   1 H    0.995 --     9 C    0.975
    19   1 H    0.994 --     9 C    0.970
 ---------------------------------------------------------------------------

Topologies differ in total number of bonds
Writing topology from bond orders to xtbtopo.mol

molecular dipole:
                 x           y           z       tot (Debye)
 q only:        0.273       0.182      -0.737
   full:        0.441       0.005      -0.815       2.355
molecular quadrupole (traceless):
                xx          xy          yy          xz          yz          zz
 q only:        2.578       4.073       2.445      -2.990       0.746      -5.023
  q+dip:       -0.820       4.906       4.489      -3.486       1.527      -3.670
   full:       -0.901       4.867       5.689      -3.958       1.928      -4.788

           -------------------------------------------------
          |                Geometry Summary                 |
           -------------------------------------------------

      molecular mass/u    :      130.1420377
   center of mass at/Å    :        0.1352937      -0.1516244       0.1519030
  moments of inertia/u·Å² :        0.1121966E+03   0.7195238E+03   0.7937537E+03
rotational constants/cm⁻¹ :        0.1502509E+00   0.2342887E-01   0.2123786E-01

 * 17 selected distances

     #   Z          #   Z                                           value/Å
     1   6 C        2   6 C                                       1.5232342
     2   6 C        3   8 O                                       1.4090291
     2   6 C        4   6 C                                       1.5349594 (max)
     4   6 C        5   8 O                                       1.4216511
     5   8 O        6   6 C                                       1.3427606
     6   6 C        7   8 O                                       1.2053075
     8   6 C        9   6 C                                       1.3246647
     1   6 C       10   1 H                                       1.0862175
     1   6 C       11   1 H                                       1.0851938
     1   6 C       12   1 H                                       1.0858810
     2   6 C       13   1 H                                       1.1022569
     3   8 O       14   1 H                                       0.9637280 (min)
     4   6 C       15   1 H                                       1.0981534
     4   6 C       16   1 H                                       1.0958898
     8   6 C       17   1 H                                       1.0792248
     9   6 C       18   1 H                                       1.0763078
     9   6 C       19   1 H                                       1.0779801

 * 4 distinct bonds (by element types)

   Z      Z             #   av. dist./Å        max./Å        min./Å
   1 H    6 C           9     1.0874561     1.1022569     1.0763078
   6 C    6 C           3     1.4609528     1.5349594     1.3246647
   1 H    8 O           1     0.9637280     0.9637280     0.9637280
   6 C    8 O           4     1.3446871     1.4216511     1.2053075


optimized geometry written to: xtbopt.xyz


           -------------------------------------------------
          | TOTAL ENERGY              -30.115026954347 Eh   |
          | GRADIENT NORM               0.000802620889 Eh/α |
          | HOMO-LUMO GAP               3.747201310963 eV   |
           -------------------------------------------------

------------------------------------------------------------------------
 * finished run on 2025/12/01 at 14:17:41.031     
------------------------------------------------------------------------
 total:
 * wall-time:     0 d,  0 h,  0 min,  0.267 sec
 *  cpu-time:     0 d,  0 h,  0 min,  5.438 sec
 * ratio c/w:    20.333 speedup
 SCF:
 * wall-time:     0 d,  0 h,  0 min,  0.022 sec
 *  cpu-time:     0 d,  0 h,  0 min,  0.491 sec
 * ratio c/w:    21.877 speedup
 ANC optimizer:
 * wall-time:     0 d,  0 h,  0 min,  0.206 sec
 *  cpu-time:     0 d,  0 h,  0 min,  4.650 sec
 * ratio c/w:    22.611 speedup

normal termination of xtb
