      -----------------------------------------------------------      
     |                   =====================                   |     
     |                           x T B                           |     
     |                   =====================                   |     
     |                         S. Grimme                         |     
     |          Mulliken Center for Theoretical Chemistry        |     
     |                    University of Bonn                     |     
      -----------------------------------------------------------      

   * xtb version 6.7.1 (edcfbbe) compiled by 'albert@albert-system' on 2024-07-22

   xtb is free software: you can redistribute it and/or modify it under
   the terms of the GNU Lesser General Public License as published by
   the Free Software Foundation, either version 3 of the License, or
   (at your option) any later version.
   
   xtb is distributed in the hope that it will be useful,
   but WITHOUT ANY WARRANTY; without even the implied warranty of
   MERCHANTABILITY or FITNESS FOR A PARTICULAR PURPOSE.  See the
   GNU Lesser General Public License for more details.
   
   Cite this work as:
   * C. Bannwarth, E. Caldeweyher, S. Ehlert, A. Hansen, P. Pracht,
     J. Seibert, S. Spicher, S. Grimme, WIREs Comput. Mol. Sci., 2020, 11,
     e01493. DOI: 10.1002/wcms.1493
   
   for GFN2-xTB:
   * C. Bannwarth, S. Ehlert and S. Grimme., J. Chem. Theory Comput., 2019,
     15, 1652-1671. DOI: 10.1021/acs.jctc.8b01176
   for GFN1-xTB:
   * S. Grimme, C. Bannwarth, P. Shushkov, J. Chem. Theory Comput., 2017,
     13, 1989-2009. DOI: 10.1021/acs.jctc.7b00118
   for GFN0-xTB:
   * P. Pracht, E. Caldeweyher, S. Ehlert, S. Grimme, ChemRxiv, 2019, preprint.
     DOI: 10.26434/chemrxiv.8326202.v1
   for GFN-FF:
   * S. Spicher and S. Grimme, Angew. Chem. Int. Ed., 2020, 59, 15665-15673.
     DOI: 10.1002/anie.202004239
   
   for ALPB and GBSA implicit solvation:
   * S. Ehlert, M. Stahn, S. Spicher, S. Grimme, J. Chem. Theory Comput.,
     2021, 17, 4250-4261. DOI: 10.1021/acs.jctc.1c00471
   
   for ddCOSMO and CPCM-X implicit solvation:
   * M. Stahn, S. Ehlert, S. Grimme, J. Phys. Chem. A,
     2023, XX, XXXX-XXXX. DOI: 10.1021/acs.jpca.3c04382
   
   for DFT-D4:
   * E. Caldeweyher, C. Bannwarth and S. Grimme, J. Chem. Phys., 2017,
     147, 034112. DOI: 10.1063/1.4993215
   * E. Caldeweyher, S. Ehlert, A. Hansen, H. Neugebauer, S. Spicher,
     C. Bannwarth and S. Grimme, J. Chem. Phys., 2019, 150, 154122.
     DOI: 10.1063/1.5090222
   * E. Caldeweyher, J.-M. Mewes, S. Ehlert and S. Grimme, Phys. Chem. Chem. Phys.
     2020, 22, 8499-8512. DOI: 10.1039/D0CP00502A
   
   for sTDA-xTB:
   * S. Grimme and C. Bannwarth, J. Chem. Phys., 2016, 145, 054103.
     DOI: 10.1063/1.4959605
   
   in the mass-spec context:
   * V. Asgeirsson, C. Bauer and S. Grimme, Chem. Sci., 2017, 8, 4879.
     DOI: 10.1039/c7sc00601b
   * J. Koopman and S. Grimme, ACS Omega 2019, 4, 12, 15120-15133.
     DOI: 10.1021/acsomega.9b02011
   
   for metadynamics refer to:
   * S. Grimme, J. Chem. Theory Comput., 2019, 155, 2847-2862
     DOI: 10.1021/acs.jctc.9b00143
   
   for SPH calculations refer to:
   * S. Spicher and S. Grimme, J. Chem. Theory Comput., 2021, 17, 1701-1714
     DOI: 10.1021/acs.jctc.0c01306
   
   for ONIOM refer to:
   * C. Plett, A. Katbashev, S. Ehlert, S. Grimme, M. Bursch,
     Phys. Chem. Chem. Phys., 2023, 25, 17860-17868. DOI: 10.1039/D3CP02178E
   
   for DIPRO refer to:
   * J. Kohn, N. Gildemeister, S. Grimme, D. Fazzi, A. Hansen,
     J. Chem. Phys., 2023, just accepted.
   
   for PTB refer to:
   * S. Grimme, M. Mueller, A. Hansen, J. Chem. Phys., 2023, 158, 124111.
     DOI: 10.1063/5.0137838
   
   with help from (in alphabetical order)
   P. Atkinson, C. Bannwarth, F. Bohle, G. Brandenburg, E. Caldeweyher
   M. Checinski, S. Dohm, S. Ehlert, S. Ehrlich, I. Gerasimov, C. Hölzer
   A. Katbashev, J. Kohn, J. Koopman, C. Lavigne, S. Lehtola, F. März, M. Müller,
   F. Musil, H. Neugebauer, J. Pisarek, C. Plett, P. Pracht, F. Pultar,
   J. Seibert, P. Shushkov, S. Spicher, M. Stahn, M. Steiner, T. Strunk,
   J. Stückrath, T. Rose, and J. Unsleber
   
 * started run on 2025/12/01 at 14:17:41.250     
   ID    Z sym.   atoms
    1    6 C      1, 2, 4, 6, 8, 9
    2    8 O      3, 5, 7
    3    1 H      10-19

           -------------------------------------------------
          |                Calculation Setup                |
           -------------------------------------------------

          program call               : xtb pipeline_data/3_conformer_xyz/acrylates/rdkit/GWZMWHWAWHPNHN-YFKPBYRVSA-N_conf125.xyz --opt --gfn 2-xTB --iterations 250
          coordinate file            : pipeline_data/3_conformer_xyz/acrylates/rdkit/GWZMWHWAWHPNHN-YFKPBYRVSA-N_conf125.xyz
          omp threads                :                    24

########################################################################
[WARNING] Please study the warnings concerning your input carefully
-1- readin_getIntValue: could not parse '2-xTB'
########################################################################

           -------------------------------------------------
          |                 G F N 2 - x T B                 |
           -------------------------------------------------

        Reference                      10.1021/acs.jctc.8b01176
      * Hamiltonian:
        H0-scaling (s, p, d)           1.850000    2.230000    2.230000
        zeta-weighting                 0.500000
      * Dispersion:
        s8                             2.700000
        a1                             0.520000
        a2                             5.000000
        s9                             5.000000
      * Repulsion:
        kExp                           1.500000    1.000000
        rExp                           1.000000
      * Coulomb:
        alpha                          2.000000
        third order                    shell-resolved
        anisotropic                    true
        a3                             3.000000
        a5                             4.000000
        cn-shift                       1.200000
        cn-exp                         4.000000
        max-rad                        5.000000

q/qsh data taken from xtbrestart
CAMM data taken from xtbrestart

          ...................................................
          :                      SETUP                      :
          :.................................................:
          :  # basis functions                  46          :
          :  # atomic orbitals                  46          :
          :  # shells                           28          :
          :  # electrons                        52          :
          :  max. iterations                   250          :
          :  Hamiltonian                  GFN2-xTB          :
          :  restarted?                       true          :
          :  GBSA solvation                  false          :
          :  PC potential                    false          :
          :  electronic temp.          300.0000000     K    :
          :  accuracy                    1.0000000          :
          :  -> integral cutoff          0.2500000E+02      :
          :  -> integral neglect         0.1000000E-07      :
          :  -> SCF convergence          0.1000000E-05 Eh   :
          :  -> wf. convergence          0.1000000E-03 e    :
          :  Broyden damping             0.4000000          :
          :  net charge                          0          :
          :  unpaired electrons                  0          :
          ...................................................

 iter      E             dE          RMSdq      gap      omega  full diag
   1    -30.3870746 -0.303871E+02  0.402E+00    3.10       0.0  T
   2    -30.3919979 -0.492333E-02  0.241E+00    3.33       1.0  T
   3    -30.3804620  0.115359E-01  0.966E-01    3.18       1.0  T
   4    -30.3948978 -0.144358E-01  0.250E-01    3.40       1.0  T
   5    -30.3951900 -0.292265E-03  0.110E-01    3.40       1.0  T
   6    -30.3951976 -0.760409E-05  0.327E-02    3.38       1.0  T
   7    -30.3952073 -0.964806E-05  0.133E-02    3.39       1.7  T
   8    -30.3952079 -0.633749E-06  0.473E-03    3.39       4.8  T
   9    -30.3952080 -0.382068E-07  0.167E-03    3.39      13.7  T
  10    -30.3952080 -0.526671E-08  0.498E-04    3.39      46.1  T
  11    -30.3952080 -0.268734E-09  0.175E-04    3.39     131.2  T

   *** convergence criteria satisfied after 11 iterations ***

         #    Occupation            Energy/Eh            Energy/eV
      -------------------------------------------------------------
         1        2.0000           -0.7253182             -19.7369
       ...           ...                  ...                  ...
        20        2.0000           -0.4662851             -12.6883
        21        2.0000           -0.4654097             -12.6644
        22        2.0000           -0.4470669             -12.1653
        23        2.0000           -0.4418833             -12.0243
        24        2.0000           -0.4337651             -11.8033
        25        2.0000           -0.4188878             -11.3985
        26        2.0000           -0.4122132             -11.2169 (HOMO)
        27                         -0.2876848              -7.8283 (LUMO)
        28                         -0.1750135              -4.7624
        29                         -0.0407528              -1.1089
        30                          0.0089358               0.2432
        31                          0.0858267               2.3355
       ...                                ...                  ...
        46                          0.6143854              16.7183
      -------------------------------------------------------------
                  HL-Gap            0.1245284 Eh            3.3886 eV
             Fermi-level           -0.3499490 Eh           -9.5226 eV

 SCC (total)                   0 d,  0 h,  0 min,  0.018 sec
 SCC setup                      ...        0 min,  0.000 sec (  1.452%)
 Dispersion                     ...        0 min,  0.000 sec (  1.693%)
 classical contributions        ...        0 min,  0.000 sec (  0.628%)
 integral evaluation            ...        0 min,  0.001 sec (  4.115%)
 iterations                     ...        0 min,  0.015 sec ( 79.286%)
 molecular gradient             ...        0 min,  0.002 sec ( 12.022%)
 printout                       ...        0 min,  0.000 sec (  0.651%)

         :::::::::::::::::::::::::::::::::::::::::::::::::::::
         ::                     SUMMARY                     ::
         :::::::::::::::::::::::::::::::::::::::::::::::::::::
         :: total energy             -30.090966066115 Eh    ::
         :: gradient norm              0.135278896963 Eh/a0 ::
         :: HOMO-LUMO gap              3.388590893357 eV    ::
         ::.................................................::
         :: SCC energy               -30.395145651293 Eh    ::
         :: -> isotropic ES            0.072442401259 Eh    ::
         :: -> anisotropic ES          0.001665600459 Eh    ::
         :: -> anisotropic XC          0.005159538120 Eh    ::
         :: -> dispersion             -0.011698800009 Eh    ::
         :: repulsion energy           0.304179585178 Eh    ::
         :: add. restraining           0.000000000000 Eh    ::
         :: total charge               0.000000000000 e     ::
         :::::::::::::::::::::::::::::::::::::::::::::::::::::

      ----------------------------------------------------------- 
     |                   =====================                   |
     |                        A N C O P T                        |
     |                   =====================                   |
     |               Approximate Normal Coordinate               |
     |                Rational Function Optimizer                |
      ----------------------------------------------------------- 
      ----------------------------------------------------------- 
     |                   =====================                   |
     |                        A N C O P T                        |
     |                   =====================                   |
     |               Approximate Normal Coordinate               |
     |                Rational Function Optimizer                |
      ----------------------------------------------------------- 

          ...................................................
          :                      SETUP                      :
          :.................................................:
          :   optimization level            normal          :
          :   max. optcycles                   200          :
          :   ANC micro-cycles                  20          :
          :   degrees of freedom                51          :
          :.................................................:
          :   RF solver                   davidson          :
          :   write xtbopt.log                true          :
          :   linear?                        false          :
          :   energy convergence         0.5000000E-05 Eh   :
          :   grad. convergence          0.1000000E-02 Eh/α :
          :   maxmium RF displ.          1.0000000          :
          :   Hlow (freq-cutoff)         0.1000000E-01      :
          :   Hmax (freq-cutoff)         5.0000000          :
          :   S6 in model hess.         20.0000000          :
          ...................................................

generating ANC from exact Hessian ...
Using Lindh-Hessian (1995)
 Shifting diagonal of input Hessian by   8.961448901474746E-003
 Lowest  eigenvalues of input Hessian
    0.000000    0.000000    0.000000    0.000000    0.000000    0.000000
    0.010000    0.010981    0.011588    0.015009    0.017996    0.021896
    0.024877    0.026511    0.027191    0.031962    0.036939    0.050948
 Highest eigenvalues
    1.317939    1.498484    1.593423    1.775879    1.879415    2.140101
 

........................................................................
.............................. CYCLE    1 ..............................
........................................................................

 iter      E             dE          RMSdq      gap      omega  full diag
   1    -30.3952080 -0.303952E+02  0.467E-05    3.39       0.0  T
   2    -30.3952080 -0.256861E-11  0.285E-05    3.39     803.8  T
   3    -30.3952080 -0.280664E-12  0.116E-05    3.39    1981.6  T
     SCC iter.                  ...        0 min,  0.003 sec
     gradient                   ...        0 min,  0.001 sec
 * total energy  :   -30.0909661 Eh     change       -0.6606271E-10 Eh
   gradient norm :     0.1352801 Eh/α   predicted     0.0000000E+00 (-100.00%)
   displ. norm   :     0.3359135 α      lambda       -0.2034880E-01
   maximum displ.:     0.2286044 α      in ANC's #11, #15, #7, ...

........................................................................
.............................. CYCLE    2 ..............................
........................................................................

 iter      E             dE          RMSdq      gap      omega  full diag
   1    -30.4249685 -0.304250E+02  0.305E-01    3.55       0.0  T
   2    -30.4252361 -0.267614E-03  0.197E-01    3.59       1.0  T
   3    -30.4252159  0.201969E-04  0.850E-02    3.60       1.0  T
   4    -30.4252549 -0.390471E-04  0.364E-02    3.60       1.0  T
   5    -30.4252710 -0.160557E-04  0.121E-02    3.60       1.9  T
   6    -30.4252724 -0.145469E-05  0.492E-03    3.60       4.7  T
   7    -30.4252725 -0.896675E-07  0.183E-03    3.60      12.5  T
   8    -30.4252725 -0.413739E-08  0.680E-04    3.60      33.7  T
   9    -30.4252725 -0.106963E-08  0.191E-04    3.60     120.1  T
     SCC iter.                  ...        0 min,  0.009 sec
     gradient                   ...        0 min,  0.002 sec
 * total energy  :   -30.1052251 Eh     change       -0.1425906E-01 Eh
   gradient norm :     0.0531842 Eh/α   predicted    -0.1133017E-01 ( -20.54%)
   displ. norm   :     0.3227098 α      lambda       -0.6703691E-02
   maximum displ.:     0.2391832 α      in ANC's #11, #7, #3, ...

........................................................................
.............................. CYCLE    3 ..............................
........................................................................

 iter      E             dE          RMSdq      gap      omega  full diag
   1    -30.4400821 -0.304401E+02  0.225E-01    3.70       0.0  T
   2    -30.4402080 -0.125901E-03  0.144E-01    3.72       1.0  T
   3    -30.4401998  0.817610E-05  0.583E-02    3.73       1.0  T
   4    -30.4402170 -0.171377E-04  0.232E-02    3.73       1.0  T
   5    -30.4402229 -0.590229E-05  0.954E-03    3.73       2.4  T
   6    -30.4402240 -0.109697E-05  0.294E-03    3.73       7.8  T
   7    -30.4402240 -0.213346E-07  0.110E-03    3.73      20.9  T
   8    -30.4402240 -0.168913E-08  0.465E-04    3.73      49.3  T
   9    -30.4402240 -0.539167E-09  0.110E-04    3.73     208.1  T
     SCC iter.                  ...        0 min,  0.009 sec
     gradient                   ...        0 min,  0.001 sec
 * total energy  :   -30.1090804 Eh     change       -0.3855265E-02 Eh
   gradient norm :     0.0179271 Eh/α   predicted    -0.3700913E-02 (  -4.00%)
   displ. norm   :     0.1993318 α      lambda       -0.1054044E-02
   maximum displ.:     0.1087021 α      in ANC's #7, #11, #2, ...

........................................................................
.............................. CYCLE    4 ..............................
........................................................................

 iter      E             dE          RMSdq      gap      omega  full diag
   1    -30.4398188 -0.304398E+02  0.895E-02    3.74       0.0  T
   2    -30.4398423 -0.235857E-04  0.546E-02    3.73       1.0  T
   3    -30.4398427 -0.391791E-06  0.224E-02    3.74       1.0  T
   4    -30.4398431 -0.376789E-06  0.435E-03    3.73       5.3  T
   5    -30.4398433 -0.171441E-06  0.196E-03    3.74      11.7  T
   6    -30.4398433 -0.178006E-07  0.117E-03    3.74      19.6  T
   7    -30.4398433 -0.882763E-08  0.362E-04    3.74      63.4  T
   8    -30.4398433 -0.625928E-09  0.112E-04    3.74     204.0  T
     SCC iter.                  ...        0 min,  0.009 sec
     gradient                   ...        0 min,  0.001 sec
 * total energy  :   -30.1098434 Eh     change       -0.7630178E-03 Eh
   gradient norm :     0.0120865 Eh/α   predicted    -0.5479754E-03 ( -28.18%)
   displ. norm   :     0.2778256 α      lambda       -0.8962508E-03
   maximum displ.:     0.1495642 α      in ANC's #7, #5, #2, ...

........................................................................
.............................. CYCLE    5 ..............................
........................................................................

 iter      E             dE          RMSdq      gap      omega  full diag
   1    -30.4386786 -0.304387E+02  0.116E-01    3.74       0.0  T
   2    -30.4387071 -0.285006E-04  0.696E-02    3.72       1.0  T
   3    -30.4387073 -0.246817E-06  0.252E-02    3.73       1.0  T
   4    -30.4387079 -0.598898E-06  0.535E-03    3.73       4.3  T
   5    -30.4387083 -0.337370E-06  0.269E-03    3.73       8.5  T
   6    -30.4387083 -0.505661E-07  0.139E-03    3.73      16.5  T
   7    -30.4387083 -0.696349E-08  0.350E-04    3.73      65.5  T
   8    -30.4387083 -0.359801E-09  0.106E-04    3.73     216.5  T
     SCC iter.                  ...        0 min,  0.007 sec
     gradient                   ...        0 min,  0.002 sec
 * total energy  :   -30.1103840 Eh     change       -0.5406339E-03 Eh
   gradient norm :     0.0154963 Eh/α   predicted    -0.4827563E-03 ( -10.71%)
   displ. norm   :     0.1927460 α      lambda       -0.4970939E-03
   maximum displ.:     0.1037089 α      in ANC's #5, #7, #2, ...

........................................................................
.............................. CYCLE    6 ..............................
........................................................................

 iter      E             dE          RMSdq      gap      omega  full diag
   1    -30.4396913 -0.304397E+02  0.787E-02    3.73       0.0  T
   2    -30.4396934 -0.202109E-05  0.474E-02    3.72       1.0  T
   3    -30.4396924  0.988080E-06  0.103E-02    3.72       2.2  T
   4    -30.4396936 -0.117754E-05  0.438E-03    3.72       5.2  T
   5    -30.4396938 -0.249413E-06  0.163E-03    3.72      14.1  T
   6    -30.4396938 -0.434579E-08  0.588E-04    3.72      39.0  T
   7    -30.4396938 -0.130606E-08  0.171E-04    3.72     134.1  T
     SCC iter.                  ...        0 min,  0.007 sec
     gradient                   ...        0 min,  0.002 sec
 * total energy  :   -30.1107264 Eh     change       -0.3423423E-03 Eh
   gradient norm :     0.0137884 Eh/α   predicted    -0.2577847E-03 ( -24.70%)
   displ. norm   :     0.2311259 α      lambda       -0.5111471E-03
   maximum displ.:     0.1380461 α      in ANC's #5, #2, #7, ...

........................................................................
.............................. CYCLE    7 ..............................
........................................................................

 iter      E             dE          RMSdq      gap      omega  full diag
   1    -30.4412068 -0.304412E+02  0.957E-02    3.71       0.0  T
   2    -30.4412094 -0.256611E-05  0.575E-02    3.72       1.0  T
   3    -30.4412082  0.118169E-05  0.119E-02    3.71       1.9  T
   4    -30.4412097 -0.151581E-05  0.493E-03    3.71       4.6  T
   5    -30.4412100 -0.282413E-06  0.209E-03    3.71      11.0  T
   6    -30.4412100 -0.130316E-07  0.744E-04    3.71      30.8  T
   7    -30.4412100 -0.129441E-08  0.183E-04    3.71     125.1  T
     SCC iter.                  ...        0 min,  0.007 sec
     gradient                   ...        0 min,  0.002 sec
 * total energy  :   -30.1111092 Eh     change       -0.3828152E-03 Eh
   gradient norm :     0.0112216 Eh/α   predicted    -0.2692486E-03 ( -29.67%)
   displ. norm   :     0.3092731 α      lambda       -0.5198055E-03
   maximum displ.:     0.1882890 α      in ANC's #5, #2, #7, ...

........................................................................
.............................. CYCLE    8 ..............................
........................................................................

 iter      E             dE          RMSdq      gap      omega  full diag
   1    -30.4407768 -0.304408E+02  0.138E-01    3.71       0.0  T
   2    -30.4407882 -0.114085E-04  0.826E-02    3.72       1.0  T
   3    -30.4407857  0.256214E-05  0.203E-02    3.71       1.1  T
   4    -30.4407881 -0.244750E-05  0.101E-02    3.72       2.3  T
   5    -30.4407896 -0.146879E-05  0.291E-03    3.71       7.9  T
   6    -30.4407896 -0.167631E-07  0.128E-03    3.71      17.9  T
   7    -30.4407896 -0.559154E-08  0.292E-04    3.71      78.6  T
   8    -30.4407896 -0.392330E-09  0.988E-05    3.71     232.3  T
     SCC iter.                  ...        0 min,  0.008 sec
     gradient                   ...        0 min,  0.002 sec
 * total energy  :   -30.1114415 Eh     change       -0.3323047E-03 Eh
   gradient norm :     0.0136937 Eh/α   predicted    -0.2847645E-03 ( -14.31%)
   displ. norm   :     0.2569188 α      lambda       -0.5840797E-03
   maximum displ.:     0.1710779 α      in ANC's #5, #2, #1, ...

........................................................................
.............................. CYCLE    9 ..............................
........................................................................

 iter      E             dE          RMSdq      gap      omega  full diag
   1    -30.4437546 -0.304438E+02  0.140E-01    3.71       0.0  T
   2    -30.4437767 -0.220790E-04  0.816E-02    3.72       1.0  T
   3    -30.4437767  0.636177E-07  0.217E-02    3.71       1.1  T
   4    -30.4437779 -0.122379E-05  0.596E-03    3.72       3.9  T
   5    -30.4437782 -0.294935E-06  0.309E-03    3.72       7.4  T
   6    -30.4437782 -0.437989E-07  0.171E-03    3.72      13.4  T
   7    -30.4437782 -0.174119E-07  0.451E-04    3.72      50.9  T
   8    -30.4437782 -0.708567E-09  0.132E-04    3.72     173.7  T
     SCC iter.                  ...        0 min,  0.008 sec
     gradient                   ...        0 min,  0.002 sec
 * total energy  :   -30.1116258 Eh     change       -0.1842563E-03 Eh
   gradient norm :     0.0116586 Eh/α   predicted    -0.3113485E-03 (  68.98%)
   displ. norm   :     0.2094727 α      lambda       -0.3277718E-03
   maximum displ.:     0.1170765 α      in ANC's #5, #2, #7, ...

........................................................................
.............................. CYCLE   10 ..............................
........................................................................

 iter      E             dE          RMSdq      gap      omega  full diag
   1    -30.4403654 -0.304404E+02  0.106E-01    3.72       0.0  T
   2    -30.4403673 -0.189198E-05  0.634E-02    3.72       1.0  T
   3    -30.4403665  0.864147E-06  0.109E-02    3.72       2.1  T
   4    -30.4403679 -0.140874E-05  0.448E-03    3.72       5.1  T
   5    -30.4403681 -0.169423E-06  0.208E-03    3.72      11.0  T
   6    -30.4403681 -0.119469E-07  0.657E-04    3.72      34.9  T
   7    -30.4403681 -0.887372E-09  0.160E-04    3.72     143.8  T
     SCC iter.                  ...        0 min,  0.007 sec
     gradient                   ...        0 min,  0.002 sec
 * total energy  :   -30.1117667 Eh     change       -0.1409199E-03 Eh
   gradient norm :     0.0095385 Eh/α   predicted    -0.1710790E-03 (  21.40%)
   displ. norm   :     0.0897413 α      lambda       -0.1499038E-03
   maximum displ.:     0.0628091 α      in ANC's #5, #4, #7, ...

........................................................................
.............................. CYCLE   11 ..............................
........................................................................

 iter      E             dE          RMSdq      gap      omega  full diag
   1    -30.4443853 -0.304444E+02  0.477E-02    3.73       0.0  T
   2    -30.4443885 -0.327422E-05  0.280E-02    3.73       1.0  T
   3    -30.4443882  0.328548E-06  0.103E-02    3.74       2.2  T
   4    -30.4443887 -0.464594E-06  0.394E-03    3.74       5.8  T
   5    -30.4443889 -0.204394E-06  0.139E-03    3.73      16.5  T
   6    -30.4443889 -0.173901E-07  0.583E-04    3.73      39.4  T
   7    -30.4443889 -0.638046E-09  0.190E-04    3.73     120.5  T
     SCC iter.                  ...        0 min,  0.007 sec
     gradient                   ...        0 min,  0.001 sec
 * total energy  :   -30.1118194 Eh     change       -0.5272662E-04 Eh
   gradient norm :     0.0071053 Eh/α   predicted    -0.7556627E-04 (  43.32%)
   displ. norm   :     0.0749846 α      lambda       -0.1039263E-03
   maximum displ.:     0.0409011 α      in ANC's #3, #1, #5, ...

........................................................................
.............................. CYCLE   12 ..............................
........................................................................

 iter      E             dE          RMSdq      gap      omega  full diag
   1    -30.4440410 -0.304440E+02  0.472E-02    3.74       0.0  T
   2    -30.4440424 -0.132293E-05  0.275E-02    3.74       1.0  T
   3    -30.4440423  0.128326E-07  0.481E-03    3.74       4.8  T
   4    -30.4440424 -0.628945E-07  0.206E-03    3.74      11.1  T
   5    -30.4440425 -0.537113E-07  0.864E-04    3.74      26.6  T
   6    -30.4440425 -0.364426E-08  0.387E-04    3.74      59.3  T
     SCC iter.                  ...        0 min,  0.006 sec
     gradient                   ...        0 min,  0.001 sec
 * total energy  :   -30.1118800 Eh     change       -0.6054591E-04 Eh
   gradient norm :     0.0027223 Eh/α   predicted    -0.5226685E-04 ( -13.67%)
   displ. norm   :     0.1349286 α      lambda       -0.6795487E-04
   maximum displ.:     0.0636555 α      in ANC's #5, #2, #1, ...

........................................................................
.............................. CYCLE   13 ..............................
........................................................................

 iter      E             dE          RMSdq      gap      omega  full diag
   1    -30.4426413 -0.304426E+02  0.864E-02    3.73       0.0  T
   2    -30.4426417 -0.420140E-06  0.515E-02    3.74       1.0  T
   3    -30.4426413  0.412208E-06  0.688E-03    3.73       3.3  T
   4    -30.4426419 -0.633082E-06  0.222E-03    3.73      10.3  T
   5    -30.4426419 -0.179632E-07  0.128E-03    3.73      18.0  T
   6    -30.4426419 -0.683782E-08  0.175E-04    3.73     131.2  T
   7    -30.4426419 -0.108095E-09  0.680E-05    3.73     337.3  T
     SCC iter.                  ...        0 min,  0.006 sec
     gradient                   ...        0 min,  0.001 sec
 * total energy  :   -30.1119256 Eh     change       -0.4563425E-04 Eh
   gradient norm :     0.0032600 Eh/α   predicted    -0.3459686E-04 ( -24.19%)
   displ. norm   :     0.0971116 α      lambda       -0.4432542E-04
   maximum displ.:     0.0503288 α      in ANC's #3, #1, #4, ...

........................................................................
.............................. CYCLE   14 ..............................
........................................................................

 iter      E             dE          RMSdq      gap      omega  full diag
   1    -30.4427007 -0.304427E+02  0.663E-02    3.74       0.0  T
   2    -30.4427009 -0.262853E-06  0.395E-02    3.74       1.0  T
   3    -30.4426995  0.138418E-05  0.992E-03    3.73       2.3  T
   4    -30.4427011 -0.160041E-05  0.157E-03    3.74      14.6  T
   5    -30.4427011 -0.435142E-08  0.773E-04    3.74      29.7  T
   6    -30.4427011 -0.346258E-09  0.139E-04    3.74     164.8  T
     SCC iter.                  ...        0 min,  0.005 sec
     gradient                   ...        0 min,  0.001 sec
 * total energy  :   -30.1119558 Eh     change       -0.3016921E-04 Eh
   gradient norm :     0.0026848 Eh/α   predicted    -0.2237767E-04 ( -25.83%)
   displ. norm   :     0.0646500 α      lambda       -0.2677418E-04
   maximum displ.:     0.0449404 α      in ANC's #3, #1, #4, ...

........................................................................
.............................. CYCLE   15 ..............................
........................................................................

 iter      E             dE          RMSdq      gap      omega  full diag
   1    -30.4434260 -0.304434E+02  0.376E-02    3.74       0.0  T
   2    -30.4434262 -0.190983E-06  0.223E-02    3.74       1.0  T
   3    -30.4434256  0.517836E-06  0.621E-03    3.73       3.7  T
   4    -30.4434262 -0.598019E-06  0.136E-03    3.74      16.9  T
   5    -30.4434263 -0.142333E-07  0.600E-04    3.73      38.2  T
   6    -30.4434263 -0.423810E-09  0.184E-04    3.74     124.5  T
     SCC iter.                  ...        0 min,  0.005 sec
     gradient                   ...        0 min,  0.001 sec
 * total energy  :   -30.1119711 Eh     change       -0.1531934E-04 Eh
   gradient norm :     0.0019218 Eh/α   predicted    -0.1344397E-04 ( -12.24%)
   displ. norm   :     0.0789029 α      lambda       -0.1508768E-04
   maximum displ.:     0.0570993 α      in ANC's #3, #1, #8, ...

........................................................................
.............................. CYCLE   16 ..............................
........................................................................

 iter      E             dE          RMSdq      gap      omega  full diag
   1    -30.4441179 -0.304441E+02  0.373E-02    3.74       0.0  T
   2    -30.4441190 -0.105865E-05  0.228E-02    3.74       1.0  T
   3    -30.4441173  0.168539E-05  0.125E-02    3.74       1.8  T
   4    -30.4441193 -0.197711E-05  0.248E-03    3.74       9.3  T
   5    -30.4441193 -0.771036E-07  0.656E-04    3.74      35.0  T
   6    -30.4441193 -0.363308E-09  0.341E-04    3.74      67.2  T
     SCC iter.                  ...        0 min,  0.005 sec
     gradient                   ...        0 min,  0.002 sec
 * total energy  :   -30.1119734 Eh     change       -0.2321205E-05 Eh
   gradient norm :     0.0036988 Eh/α   predicted    -0.7566644E-05 ( 225.98%)
   displ. norm   :     0.0128720 α      lambda       -0.1206859E-04
   maximum displ.:     0.0065839 α      in ANC's #4, #6, #2, ...

........................................................................
.............................. CYCLE   17 ..............................
........................................................................

 iter      E             dE          RMSdq      gap      omega  full diag
   1    -30.4438628 -0.304439E+02  0.125E-02    3.74       0.0  T
   2    -30.4438629 -0.148873E-06  0.750E-03    3.74       3.1  T
   3    -30.4438628  0.123583E-06  0.351E-03    3.74       6.5  T
   4    -30.4438630 -0.137474E-06  0.101E-03    3.74      22.7  T
   5    -30.4438630 -0.151111E-07  0.180E-04    3.74     127.7  T
   6    -30.4438630 -0.165628E-09  0.104E-04    3.74     220.6  T
     SCC iter.                  ...        0 min,  0.005 sec
     gradient                   ...        0 min,  0.001 sec
 * total energy  :   -30.1119820 Eh     change       -0.8570992E-05 Eh
   gradient norm :     0.0016871 Eh/α   predicted    -0.6037282E-05 ( -29.56%)
   displ. norm   :     0.0413842 α      lambda       -0.7582263E-05
   maximum displ.:     0.0225759 α      in ANC's #4, #2, #9, ...

........................................................................
.............................. CYCLE   18 ..............................
........................................................................

 iter      E             dE          RMSdq      gap      omega  full diag
   1    -30.4437479 -0.304437E+02  0.327E-02    3.74       0.0  T
   2    -30.4437481 -0.190856E-06  0.194E-02    3.73       1.2  T
   3    -30.4437473  0.733012E-06  0.713E-03    3.74       3.2  T
   4    -30.4437481 -0.815520E-06  0.932E-04    3.73      24.6  T
   5    -30.4437481 -0.980746E-08  0.353E-04    3.73      65.0  T
     SCC iter.                  ...        0 min,  0.004 sec
     gradient                   ...        0 min,  0.002 sec
 * total energy  :   -30.1119870 Eh     change       -0.4994138E-05 Eh
   gradient norm :     0.0010148 Eh/α   predicted    -0.3801526E-05 ( -23.88%)
   displ. norm   :     0.0273619 α      lambda       -0.3643590E-05
   maximum displ.:     0.0129766 α      in ANC's #3, #1, #4, ...

........................................................................
.............................. CYCLE   19 ..............................
........................................................................

 iter      E             dE          RMSdq      gap      omega  full diag
   1    -30.4434791 -0.304435E+02  0.125E-02    3.73       0.0  T
   2    -30.4434791 -0.216309E-07  0.766E-03    3.73       3.0  T
   3    -30.4434791 -0.590450E-09  0.957E-04    3.73      24.0  T
   4    -30.4434792 -0.938862E-08  0.469E-04    3.73      48.9  T
     SCC iter.                  ...        0 min,  0.003 sec
     gradient                   ...        0 min,  0.001 sec
 * total energy  :   -30.1119907 Eh     change       -0.3693491E-05 Eh
   gradient norm :     0.0012793 Eh/α   predicted    -0.1825739E-05 ( -50.57%)
   displ. norm   :     0.0273619 α      lambda        0.0000000E+00
   maximum displ.:     0.0129766 α      in ANC's #3, #1, #4, ...

........................................................................
.............................. CYCLE   20 ..............................
........................................................................

 iter      E             dE          RMSdq      gap      omega  full diag
   1    -30.4431829 -0.304432E+02  0.126E-02    3.73       0.0  T
   2    -30.4431830 -0.225535E-07  0.772E-03    3.73       3.0  T
   3    -30.4431829  0.788921E-08  0.122E-03    3.73      18.8  T
   4    -30.4431830 -0.192768E-07  0.475E-04    3.73      48.3  T
   5    -30.4431830 -0.118704E-08  0.208E-04    3.73     110.3  T
     SCC iter.                  ...        0 min,  0.004 sec
     gradient                   ...        0 min,  0.001 sec
 * total energy  :   -30.1119905 Eh     change        0.1306950E-06 Eh
   gradient norm :     0.0024987 Eh/α   predicted     0.2701056E-08 ( -97.93%)
   displ. norm   :     0.0271288 α      lambda       -0.7491787E-05
   maximum displ.:     0.0145575 α      in ANC's #4, #3, #7, ...
 * RMSD in coord.:     0.4787367 α      energy gain  -0.2102446E-01 Eh

generating ANC from exact Hessian ...
Using Lindh-Hessian (1995)
 Shifting diagonal of input Hessian by   8.776068910829656E-003
 Lowest  eigenvalues of input Hessian
    0.000000    0.000000    0.000000    0.000000    0.000000    0.000000
    0.010000    0.011136    0.011313    0.015315    0.018359    0.021117
    0.024705    0.027400    0.028164    0.033941    0.038498    0.050305
 Highest eigenvalues
    1.317031    1.476323    1.504018    1.824152    1.955202    2.398886
 

........................................................................
.............................. CYCLE   21 ..............................
........................................................................

 iter      E             dE          RMSdq      gap      omega  full diag
   1    -30.4434232 -0.304434E+02  0.202E-02    3.73       0.0  T
   2    -30.4434232 -0.404090E-07  0.119E-02    3.73       1.9  T
   3    -30.4434232 -0.689307E-08  0.690E-04    3.73      33.3  T
   4    -30.4434232 -0.133226E-08  0.440E-04    3.73      52.2  T
     SCC iter.                  ...        0 min,  0.003 sec
     gradient                   ...        0 min,  0.001 sec
 * total energy  :   -30.1119962 Eh     change       -0.5696825E-05 Eh
   gradient norm :     0.0013133 Eh/α   predicted     0.0000000E+00 (-100.00%)
   displ. norm   :     0.0130381 α      lambda       -0.3095739E-05
   maximum displ.:     0.0073532 α      in ANC's #2, #8, #9, ...

........................................................................
.............................. CYCLE   22 ..............................
........................................................................

 iter      E             dE          RMSdq      gap      omega  full diag
   1    -30.4436375 -0.304436E+02  0.101E-02    3.73       0.0  T
   2    -30.4436375 -0.263088E-07  0.598E-03    3.73       3.8  T
   3    -30.4436375  0.348796E-07  0.170E-03    3.73      13.5  T
   4    -30.4436375 -0.420458E-07  0.514E-04    3.73      44.7  T
   5    -30.4436375 -0.221217E-08  0.203E-04    3.73     112.7  T
     SCC iter.                  ...        0 min,  0.003 sec
     gradient                   ...        0 min,  0.002 sec
 * total energy  :   -30.1119995 Eh     change       -0.3241510E-05 Eh
   gradient norm :     0.0003420 Eh/α   predicted    -0.1633543E-05 ( -49.61%)
   displ. norm   :     0.0236367 α      lambda       -0.2783236E-05
   maximum displ.:     0.0139955 α      in ANC's #2, #8, #9, ...

   *** GEOMETRY OPTIMIZATION CONVERGED AFTER 22 ITERATIONS ***

------------------------------------------------------------------------
 total energy gain   :        -0.0210334 Eh      -13.1987 kcal/mol
 total RMSD          :         0.4791973 a0        0.2536 Å
 total power (kW/mol):        -2.5101444 (step) -264.6449 (real)
------------------------------------------------------------------------

 ANCopt (total)                0 d,  0 h,  0 min,  0.209 sec
 optimizer setup                ...        0 min,  0.000 sec (  0.058%)
 model hessian                  ...        0 min,  0.010 sec (  4.692%)
 ANC generation                 ...        0 min,  0.002 sec (  1.073%)
 coordinate transformation      ...        0 min,  0.000 sec (  0.079%)
 single point calculation       ...        0 min,  0.185 sec ( 88.531%)
 optimization log               ...        0 min,  0.005 sec (  2.170%)
 hessian update                 ...        0 min,  0.004 sec (  2.056%)
 rational function              ...        0 min,  0.002 sec (  0.821%)

================
 final structure:
================
19
 xtb: 6.7.1 (edcfbbe)
C           -1.50303630442806        1.70343781655062        0.34312876456530
C           -1.87625257006269        0.22644708627645        0.44899160376149
O           -2.17434923248519       -0.33843361982817       -0.80884658703127
C           -0.73986353951804       -0.59666079484292        1.05650644668901
O            0.45728621509551       -0.35858423996940        0.32972786804148
C            1.49830386109817       -1.13607358748188        0.64638098244128
O            1.47020220265392       -1.96096905283727        1.52756334219793
C            2.68748781784528       -0.87069037726917       -0.19382298544789
C            2.65435650387328       -0.16205945253335       -1.31219352107896
H           -0.63581167759010        1.81546277487306       -0.30169186605605
H           -2.33172676536818        2.27546487178662       -0.07097956195118
H           -1.26492443865939        2.09915745304921        1.32617296016320
H           -2.74833969179134        0.11603512052042        1.11770511066381
H           -2.78216855702338        0.24358214080799       -1.27752759798422
H           -0.58957700836172       -0.32448278561788        2.10710813390412
H           -0.98632060424920       -1.66218390735917        1.00338868118250
H            3.59113623916284       -1.34167861440036        0.16571080418532
H            1.73755453443894        0.27886260014258       -1.66513518299916
H            3.53604201536950       -0.00663243186732       -1.91119839524700
 
 Bond Distances (Angstroems)
 ---------------------------
C1-C2=1.5271         C1-H10=1.0865        C1-H11=1.0888        C1-H12=1.0861        C2-C1=1.5271         C2-O3=1.4107         
C2-C4=1.5290         C2-H13=1.1045        O3-C2=1.4107         O3-H14=0.9632        C4-C2=1.5290         C4-O5=1.4206         
C4-H15=1.0956        C4-H16=1.0949        O5-C4=1.4206         O5-C6=1.3373         C6-O5=1.3373         C6-O7=1.2074         
C6-C8=1.4800         O7-C6=1.2074         C8-C6=1.4800         C8-C9=1.3244         C8-H17=1.0806        C9-C8=1.3244         
C9-H18=1.0768        C9-H19=1.0772        H10-C1=1.0865        H11-C1=1.0888        H12-C1=1.0861        H13-C2=1.1045        
H14-O3=0.9632        H15-C4=1.0956        H16-C4=1.0949        H17-C8=1.0806        H18-C9=1.0768        H19-C9=1.0772        
 C  H  Rav=1.0879 sigma=0.0087  Rmin=1.0768  Rmax=1.1045     9
 C  C  Rav=1.4651 sigma=0.0836  Rmin=1.3244  Rmax=1.5290     4
 O  H  Rav=0.9632 sigma=0.0000  Rmin=0.9632  Rmax=0.9632     1
 O  C  Rav=1.3440 sigma=0.0852  Rmin=1.2074  Rmax=1.4206     4
 
 selected bond angles (degree)
 --------------------
H10-C1-C2=109.63               H11-C1-C2=110.40               H11-C1-H10=109.12              H12-C1-C2=110.07               
H12-C1-H10=108.94              H12-C1-H11=108.64              O3-C2-C1=112.16                C4-C2-C1=111.50                
C4-C2-O3=107.20                H13-C2-C1=109.37               H13-C2-O3=109.45               H13-C2-C4=107.00               
H14-O3-C2=108.98               O5-C4-C2=109.44                H15-C4-C2=110.44               H15-C4-O5=109.47               
H16-C4-C2=109.71               H16-C4-O5=109.14               H16-C4-H15=108.61              C6-O5-C4=115.94                
O7-C6-O5=123.50                C8-C6-O5=112.75                C8-C6-O7=123.75                C9-C8-C6=123.73                
H17-C8-C6=113.88               H17-C8-C9=122.35               H18-C9-C8=121.14               H19-C9-C8=121.76               
H19-C9-H18=117.10              
 
 selected dihedral angles (degree)
 ---------------------------------
O3-C2-C1-H10=300.74           O3-C2-C1-H11= 60.99           O3-C2-C1-H12=180.92           C4-C2-C1-H10= 60.98           
C4-C2-C1-H11=181.23           C4-C2-C1-H12=301.16           H13-C2-C1-H10=179.13          H13-C2-C1-H11=299.37          
H13-C2-C1-H12= 59.31          H14-O3-C2-C1=312.05           H14-O3-C2-C4=189.34           H14-O3-C2-H13= 73.62          
O5-C4-C2-C1=306.80            O5-C4-C2-O3= 69.91            O5-C4-C2-H13=187.24           H15-C4-C2-C1= 67.38           
H15-C4-C2-O3=190.49           H15-C4-C2-H13=307.83          H16-C4-C2-C1=187.07           H16-C4-C2-O3=310.18           
H16-C4-C2-H13= 67.52          C6-O5-C4-C2=187.88            C6-O5-C4-H15= 66.71           C6-O5-C4-H16=307.96           
O7-C6-O5-C4=357.07            C8-C6-O5-C4=177.38            C9-C8-C6-O5=346.33            C9-C8-C6-O7=166.64            
H17-C8-C6-O5=168.59           H17-C8-C6-O7=348.90           H18-C9-C8-C6=  0.93           H18-C9-C8-H17=178.48          
H19-C9-C8-C6=181.37           H19-C9-C8-H17=358.92          
           -------------------------------------------------
          |                Final Singlepoint                |
           -------------------------------------------------

          ...................................................
          :                      SETUP                      :
          :.................................................:
          :  # basis functions                  46          :
          :  # atomic orbitals                  46          :
          :  # shells                           28          :
          :  # electrons                        52          :
          :  max. iterations                   250          :
          :  Hamiltonian                  GFN2-xTB          :
          :  restarted?                      false          :
          :  GBSA solvation                  false          :
          :  PC potential                    false          :
          :  electronic temp.          300.0000000     K    :
          :  accuracy                    1.0000000          :
          :  -> integral cutoff          0.2500000E+02      :
          :  -> integral neglect         0.1000000E-07      :
          :  -> SCF convergence          0.1000000E-05 Eh   :
          :  -> wf. convergence          0.1000000E-03 e    :
          :  Broyden damping             0.4000000          :
          :  net charge                          0          :
          :  unpaired electrons                  0          :
          ...................................................

 iter      E             dE          RMSdq      gap      omega  full diag
   1    -30.4436375 -0.304436E+02  0.880E-05    3.73       0.0  T
   2    -30.4436375 -0.113261E-10  0.548E-05    3.73     418.6  T
   3    -30.4436375 -0.166978E-12  0.257E-05    3.73     893.8  T

   *** convergence criteria satisfied after 3 iterations ***

         #    Occupation            Energy/Eh            Energy/eV
      -------------------------------------------------------------
         1        2.0000           -0.7387839             -20.1033
       ...           ...                  ...                  ...
        20        2.0000           -0.4697815             -12.7834
        21        2.0000           -0.4633305             -12.6079
        22        2.0000           -0.4533750             -12.3370
        23        2.0000           -0.4426973             -12.0464
        24        2.0000           -0.4371737             -11.8961
        25        2.0000           -0.4223484             -11.4927
        26        2.0000           -0.4108733             -11.1804 (HOMO)
        27                         -0.2738253              -7.4512 (LUMO)
        28                         -0.1651723              -4.4946
        29                          0.0052563               0.1430
        30                          0.0409265               1.1137
        31                          0.0716839               1.9506
       ...                                ...                  ...
        46                          0.7008269              19.0705
      -------------------------------------------------------------
                  HL-Gap            0.1370480 Eh            3.7293 eV
             Fermi-level           -0.3423493 Eh           -9.3158 eV

 SCC (total)                   0 d,  0 h,  0 min,  0.004 sec
 SCC setup                      ...        0 min,  0.000 sec (  4.958%)
 Dispersion                     ...        0 min,  0.000 sec (  1.952%)
 classical contributions        ...        0 min,  0.000 sec (  0.804%)
 integral evaluation            ...        0 min,  0.000 sec (  8.891%)
 iterations                     ...        0 min,  0.002 sec ( 47.407%)
 molecular gradient             ...        0 min,  0.001 sec ( 32.941%)
 printout                       ...        0 min,  0.000 sec (  2.494%)

         :::::::::::::::::::::::::::::::::::::::::::::::::::::
         ::                     SUMMARY                     ::
         :::::::::::::::::::::::::::::::::::::::::::::::::::::
         :: total energy             -30.111999463666 Eh    ::
         :: gradient norm              0.000342936358 Eh/a0 ::
         :: HOMO-LUMO gap              3.729267161037 eV    ::
         ::.................................................::
         :: SCC energy               -30.443565170175 Eh    ::
         :: -> isotropic ES            0.069642585643 Eh    ::
         :: -> anisotropic ES          0.002407594541 Eh    ::
         :: -> anisotropic XC          0.005207204700 Eh    ::
         :: -> dispersion             -0.012007404107 Eh    ::
         :: repulsion energy           0.331565706508 Eh    ::
         :: add. restraining           0.000000000000 Eh    ::
         :: total charge               0.000000000000 e     ::
         :::::::::::::::::::::::::::::::::::::::::::::::::::::

           -------------------------------------------------
          |                Property Printout                |
           -------------------------------------------------

    * Orbital Energies and Occupations

         #    Occupation            Energy/Eh            Energy/eV
      -------------------------------------------------------------
         1        2.0000           -0.7387839             -20.1033
       ...           ...                  ...                  ...
        14        2.0000           -0.5297684             -14.4157
        15        2.0000           -0.5253032             -14.2942
        16        2.0000           -0.5087485             -13.8438
        17        2.0000           -0.5035852             -13.7033
        18        2.0000           -0.4903937             -13.3443
        19        2.0000           -0.4822538             -13.1228
        20        2.0000           -0.4697815             -12.7834
        21        2.0000           -0.4633305             -12.6079
        22        2.0000           -0.4533750             -12.3370
        23        2.0000           -0.4426973             -12.0464
        24        2.0000           -0.4371737             -11.8961
        25        2.0000           -0.4223484             -11.4927
        26        2.0000           -0.4108733             -11.1804 (HOMO)
        27                         -0.2738253              -7.4512 (LUMO)
        28                         -0.1651723              -4.4946
        29                          0.0052563               0.1430
        30                          0.0409265               1.1137
        31                          0.0716839               1.9506
        32                          0.0960028               2.6124
        33                          0.1206693               3.2836
        34                          0.1283907               3.4937
        35                          0.1360947               3.7033
        36                          0.1531771               4.1682
        37                          0.1730774               4.7097
       ...                                ...                  ...
        46                          0.7008269              19.0705
      -------------------------------------------------------------
                  HL-Gap            0.1370480 Eh            3.7293 eV
             Fermi-level           -0.3423493 Eh           -9.3158 eV

     #   Z          covCN         q      C6AA      α(0)
     1   6 C        3.752    -0.123    22.915     6.826
     2   6 C        3.723     0.119    18.745     6.183
     3   8 O        1.656    -0.438    21.602     6.274
     4   6 C        3.711     0.078    19.417     6.297
     5   8 O        1.705    -0.248    18.108     5.745
     6   6 C        2.729     0.355    20.972     7.497
     7   8 O        0.857    -0.414    21.957     6.282
     8   6 C        2.887    -0.057    29.403     8.890
     9   6 C        2.838    -0.063    29.557     8.909
    10   1 H        0.925     0.064     2.153     2.295
    11   1 H        0.925     0.042     2.427     2.436
    12   1 H        0.925     0.047     2.355     2.400
    13   1 H        0.923     0.021     2.726     2.582
    14   1 H        0.805     0.293     0.741     1.352
    15   1 H        0.924     0.049     2.331     2.388
    16   1 H        0.924     0.070     2.084     2.258
    17   1 H        0.926     0.071     2.073     2.251
    18   1 H        0.926     0.072     2.061     2.245
    19   1 H        0.926     0.062     2.181     2.309

 Mol. C6AA /au·bohr⁶  :       3223.078540
 Mol. C8AA /au·bohr⁸  :      70798.415286
 Mol. α(0) /au        :         85.421651


Wiberg/Mayer (AO) data.
largest (>0.10) Wiberg bond orders for each atom

 ---------------------------------------------------------------------------
     #   Z sym  total        # sym  WBO       # sym  WBO       # sym  WBO
 ---------------------------------------------------------------------------
     1   6 C    3.994 --     2 C    1.001    12 H    0.985    11 H    0.985
                            10 H    0.983
     2   6 C    3.961 --     1 C    1.001     3 O    0.993     4 C    0.989
                            13 H    0.958
     3   8 O    1.960 --     2 C    0.993    14 H    0.897
     4   6 C    3.935 --     2 C    0.989    15 H    0.966    16 H    0.964
                             5 O    0.951
     5   8 O    2.318 --     6 C    1.125     4 C    0.951     7 O    0.173
     6   6 C    3.920 --     7 O    1.724     5 O    1.125     8 C    1.010
     7   8 O    2.030 --     6 C    1.724     5 O    0.173
     8   6 C    3.988 --     9 C    1.937     6 C    1.010    17 H    0.962
     9   6 C    3.984 --     8 C    1.937    19 H    0.975    18 H    0.971
    10   1 H    0.996 --     1 C    0.983
    11   1 H    0.998 --     1 C    0.985
    12   1 H    0.998 --     1 C    0.985
    13   1 H    0.999 --     2 C    0.958
    14   1 H    0.914 --     3 O    0.897
    15   1 H    0.998 --     4 C    0.966
    16   1 H    0.995 --     4 C    0.964
    17   1 H    0.995 --     8 C    0.962
    18   1 H    0.995 --     9 C    0.971
    19   1 H    0.996 --     9 C    0.975
 ---------------------------------------------------------------------------

Topologies differ in total number of bonds
Writing topology from bond orders to xtbtopo.mol

molecular dipole:
                 x           y           z       tot (Debye)
 q only:       -0.417       1.231      -0.580
   full:       -0.548       1.433      -0.576       4.166
molecular quadrupole (traceless):
                xx          xy          yy          xz          yz          zz
 q only:        7.397      -0.247      -5.737      -5.541       2.990      -1.659
  q+dip:        9.191      -1.210      -7.378      -5.992       2.735      -1.813
   full:        8.761      -0.888      -6.857      -5.578       3.931      -1.904

           -------------------------------------------------
          |                Geometry Summary                 |
           -------------------------------------------------

      molecular mass/u    :      130.1420377
   center of mass at/Å    :        0.2016086      -0.3768271       0.2239897
  moments of inertia/u·Å² :        0.1886169E+03   0.5313470E+03   0.6162492E+03
rotational constants/cm⁻¹ :        0.8937499E-01   0.3172622E-01   0.2735522E-01

 * 17 selected distances

     #   Z          #   Z                                           value/Å
     1   6 C        2   6 C                                       1.5270885
     2   6 C        3   8 O                                       1.4107123
     2   6 C        4   6 C                                       1.5290393 (max)
     4   6 C        5   8 O                                       1.4205828
     5   8 O        6   6 C                                       1.3373395
     6   6 C        7   8 O                                       1.2073628
     8   6 C        9   6 C                                       1.3243898
     1   6 C       10   1 H                                       1.0864723
     1   6 C       11   1 H                                       1.0887740
     1   6 C       12   1 H                                       1.0861249
     2   6 C       13   1 H                                       1.1044930
     3   8 O       14   1 H                                       0.9632491 (min)
     4   6 C       15   1 H                                       1.0956418
     4   6 C       16   1 H                                       1.0949440
     8   6 C       17   1 H                                       1.0805902
     9   6 C       18   1 H                                       1.0768037
     9   6 C       19   1 H                                       1.0771880

 * 4 distinct bonds (by element types)

   Z      Z             #   av. dist./Å        max./Å        min./Å
   1 H    6 C           9     1.0878924     1.1044930     1.0768037
   6 C    6 C           3     1.4601726     1.5290393     1.3243898
   1 H    8 O           1     0.9632491     0.9632491     0.9632491
   6 C    8 O           4     1.3439993     1.4205828     1.2073628


optimized geometry written to: xtbopt.xyz


           -------------------------------------------------
          | TOTAL ENERGY              -30.111999463666 Eh   |
          | GRADIENT NORM               0.000342936358 Eh/α |
          | HOMO-LUMO GAP               3.729267161037 eV   |
           -------------------------------------------------

------------------------------------------------------------------------
 * finished run on 2025/12/01 at 14:17:41.497     
------------------------------------------------------------------------
 total:
 * wall-time:     0 d,  0 h,  0 min,  0.246 sec
 *  cpu-time:     0 d,  0 h,  0 min,  5.447 sec
 * ratio c/w:    22.116 speedup
 SCF:
 * wall-time:     0 d,  0 h,  0 min,  0.018 sec
 *  cpu-time:     0 d,  0 h,  0 min,  0.416 sec
 * ratio c/w:    22.541 speedup
 ANC optimizer:
 * wall-time:     0 d,  0 h,  0 min,  0.214 sec
 *  cpu-time:     0 d,  0 h,  0 min,  4.859 sec
 * ratio c/w:    22.736 speedup

normal termination of xtb
