      -----------------------------------------------------------      
     |                   =====================                   |     
     |                           x T B                           |     
     |                   =====================                   |     
     |                         S. Grimme                         |     
     |          Mulliken Center for Theoretical Chemistry        |     
     |                    University of Bonn                     |     
      -----------------------------------------------------------      

   * xtb version 6.7.1 (edcfbbe) compiled by 'albert@albert-system' on 2024-07-22

   xtb is free software: you can redistribute it and/or modify it under
   the terms of the GNU Lesser General Public License as published by
   the Free Software Foundation, either version 3 of the License, or
   (at your option) any later version.
   
   xtb is distributed in the hope that it will be useful,
   but WITHOUT ANY WARRANTY; without even the implied warranty of
   MERCHANTABILITY or FITNESS FOR A PARTICULAR PURPOSE.  See the
   GNU Lesser General Public License for more details.
   
   Cite this work as:
   * C. Bannwarth, E. Caldeweyher, S. Ehlert, A. Hansen, P. Pracht,
     J. Seibert, S. Spicher, S. Grimme, WIREs Comput. Mol. Sci., 2020, 11,
     e01493. DOI: 10.1002/wcms.1493
   
   for GFN2-xTB:
   * C. Bannwarth, S. Ehlert and S. Grimme., J. Chem. Theory Comput., 2019,
     15, 1652-1671. DOI: 10.1021/acs.jctc.8b01176
   for GFN1-xTB:
   * S. Grimme, C. Bannwarth, P. Shushkov, J. Chem. Theory Comput., 2017,
     13, 1989-2009. DOI: 10.1021/acs.jctc.7b00118
   for GFN0-xTB:
   * P. Pracht, E. Caldeweyher, S. Ehlert, S. Grimme, ChemRxiv, 2019, preprint.
     DOI: 10.26434/chemrxiv.8326202.v1
   for GFN-FF:
   * S. Spicher and S. Grimme, Angew. Chem. Int. Ed., 2020, 59, 15665-15673.
     DOI: 10.1002/anie.202004239
   
   for ALPB and GBSA implicit solvation:
   * S. Ehlert, M. Stahn, S. Spicher, S. Grimme, J. Chem. Theory Comput.,
     2021, 17, 4250-4261. DOI: 10.1021/acs.jctc.1c00471
   
   for ddCOSMO and CPCM-X implicit solvation:
   * M. Stahn, S. Ehlert, S. Grimme, J. Phys. Chem. A,
     2023, XX, XXXX-XXXX. DOI: 10.1021/acs.jpca.3c04382
   
   for DFT-D4:
   * E. Caldeweyher, C. Bannwarth and S. Grimme, J. Chem. Phys., 2017,
     147, 034112. DOI: 10.1063/1.4993215
   * E. Caldeweyher, S. Ehlert, A. Hansen, H. Neugebauer, S. Spicher,
     C. Bannwarth and S. Grimme, J. Chem. Phys., 2019, 150, 154122.
     DOI: 10.1063/1.5090222
   * E. Caldeweyher, J.-M. Mewes, S. Ehlert and S. Grimme, Phys. Chem. Chem. Phys.
     2020, 22, 8499-8512. DOI: 10.1039/D0CP00502A
   
   for sTDA-xTB:
   * S. Grimme and C. Bannwarth, J. Chem. Phys., 2016, 145, 054103.
     DOI: 10.1063/1.4959605
   
   in the mass-spec context:
   * V. Asgeirsson, C. Bauer and S. Grimme, Chem. Sci., 2017, 8, 4879.
     DOI: 10.1039/c7sc00601b
   * J. Koopman and S. Grimme, ACS Omega 2019, 4, 12, 15120-15133.
     DOI: 10.1021/acsomega.9b02011
   
   for metadynamics refer to:
   * S. Grimme, J. Chem. Theory Comput., 2019, 155, 2847-2862
     DOI: 10.1021/acs.jctc.9b00143
   
   for SPH calculations refer to:
   * S. Spicher and S. Grimme, J. Chem. Theory Comput., 2021, 17, 1701-1714
     DOI: 10.1021/acs.jctc.0c01306
   
   for ONIOM refer to:
   * C. Plett, A. Katbashev, S. Ehlert, S. Grimme, M. Bursch,
     Phys. Chem. Chem. Phys., 2023, 25, 17860-17868. DOI: 10.1039/D3CP02178E
   
   for DIPRO refer to:
   * J. Kohn, N. Gildemeister, S. Grimme, D. Fazzi, A. Hansen,
     J. Chem. Phys., 2023, just accepted.
   
   for PTB refer to:
   * S. Grimme, M. Mueller, A. Hansen, J. Chem. Phys., 2023, 158, 124111.
     DOI: 10.1063/5.0137838
   
   with help from (in alphabetical order)
   P. Atkinson, C. Bannwarth, F. Bohle, G. Brandenburg, E. Caldeweyher
   M. Checinski, S. Dohm, S. Ehlert, S. Ehrlich, I. Gerasimov, C. Hölzer
   A. Katbashev, J. Kohn, J. Koopman, C. Lavigne, S. Lehtola, F. März, M. Müller,
   F. Musil, H. Neugebauer, J. Pisarek, C. Plett, P. Pracht, F. Pultar,
   J. Seibert, P. Shushkov, S. Spicher, M. Stahn, M. Steiner, T. Strunk,
   J. Stückrath, T. Rose, and J. Unsleber
   
 * started run on 2025/12/01 at 14:17:41.038     
   ID    Z sym.   atoms
    1    6 C      1, 2, 4, 6, 8, 9
    2    8 O      3, 5, 7
    3    1 H      10-19

           -------------------------------------------------
          |                Calculation Setup                |
           -------------------------------------------------

          program call               : xtb pipeline_data/3_conformer_xyz/acrylates/rdkit/GWZMWHWAWHPNHN-YFKPBYRVSA-N_conf226.xyz --opt --gfn 2-xTB --iterations 250
          coordinate file            : pipeline_data/3_conformer_xyz/acrylates/rdkit/GWZMWHWAWHPNHN-YFKPBYRVSA-N_conf226.xyz
          omp threads                :                    24

########################################################################
[WARNING] Please study the warnings concerning your input carefully
-1- readin_getIntValue: could not parse '2-xTB'
########################################################################

           -------------------------------------------------
          |                 G F N 2 - x T B                 |
           -------------------------------------------------

        Reference                      10.1021/acs.jctc.8b01176
      * Hamiltonian:
        H0-scaling (s, p, d)           1.850000    2.230000    2.230000
        zeta-weighting                 0.500000
      * Dispersion:
        s8                             2.700000
        a1                             0.520000
        a2                             5.000000
        s9                             5.000000
      * Repulsion:
        kExp                           1.500000    1.000000
        rExp                           1.000000
      * Coulomb:
        alpha                          2.000000
        third order                    shell-resolved
        anisotropic                    true
        a3                             3.000000
        a5                             4.000000
        cn-shift                       1.200000
        cn-exp                         4.000000
        max-rad                        5.000000

q/qsh data taken from xtbrestart
CAMM data taken from xtbrestart

          ...................................................
          :                      SETUP                      :
          :.................................................:
          :  # basis functions                  46          :
          :  # atomic orbitals                  46          :
          :  # shells                           28          :
          :  # electrons                        52          :
          :  max. iterations                   250          :
          :  Hamiltonian                  GFN2-xTB          :
          :  restarted?                       true          :
          :  GBSA solvation                  false          :
          :  PC potential                    false          :
          :  electronic temp.          300.0000000     K    :
          :  accuracy                    1.0000000          :
          :  -> integral cutoff          0.2500000E+02      :
          :  -> integral neglect         0.1000000E-07      :
          :  -> SCF convergence          0.1000000E-05 Eh   :
          :  -> wf. convergence          0.1000000E-03 e    :
          :  Broyden damping             0.4000000          :
          :  net charge                          0          :
          :  unpaired electrons                  0          :
          ...................................................

 iter      E             dE          RMSdq      gap      omega  full diag
   1    -30.3864826 -0.303865E+02  0.353E+00    3.23       0.0  T
   2    -30.3906877 -0.420517E-02  0.211E+00    3.23       1.0  T
   3    -30.3847635  0.592423E-02  0.752E-01    3.22       1.0  T
   4    -30.3926934 -0.792991E-02  0.227E-01    3.30       1.0  T
   5    -30.3929061 -0.212703E-03  0.101E-01    3.28       1.0  T
   6    -30.3929133 -0.716669E-05  0.349E-02    3.30       1.0  T
   7    -30.3929211 -0.782624E-05  0.109E-02    3.29       2.1  T
   8    -30.3929215 -0.356683E-06  0.511E-03    3.29       4.5  T
   9    -30.3929215 -0.772413E-07  0.171E-03    3.29      13.4  T
  10    -30.3929215 -0.413075E-08  0.402E-04    3.29      57.0  T
  11    -30.3929215 -0.323968E-09  0.172E-04    3.29     133.1  T

   *** convergence criteria satisfied after 11 iterations ***

         #    Occupation            Energy/Eh            Energy/eV
      -------------------------------------------------------------
         1        2.0000           -0.7348854             -19.9973
       ...           ...                  ...                  ...
        20        2.0000           -0.4685023             -12.7486
        21        2.0000           -0.4657427             -12.6735
        22        2.0000           -0.4531873             -12.3319
        23        2.0000           -0.4436967             -12.0736
        24        2.0000           -0.4397490             -11.9662
        25        2.0000           -0.4213712             -11.4661
        26        2.0000           -0.4129220             -11.2362 (HOMO)
        27                         -0.2919918              -7.9455 (LUMO)
        28                         -0.1833428              -4.9890
        29                         -0.0359486              -0.9782
        30                          0.0279911               0.7617
        31                          0.0763090               2.0765
       ...                                ...                  ...
        46                          0.6030716              16.4104
      -------------------------------------------------------------
                  HL-Gap            0.1209301 Eh            3.2907 eV
             Fermi-level           -0.3524569 Eh           -9.5908 eV

 SCC (total)                   0 d,  0 h,  0 min,  0.016 sec
 SCC setup                      ...        0 min,  0.000 sec (  1.309%)
 Dispersion                     ...        0 min,  0.000 sec (  1.062%)
 classical contributions        ...        0 min,  0.000 sec (  1.412%)
 integral evaluation            ...        0 min,  0.001 sec (  3.236%)
 iterations                     ...        0 min,  0.013 sec ( 78.256%)
 molecular gradient             ...        0 min,  0.002 sec ( 13.758%)
 printout                       ...        0 min,  0.000 sec (  0.786%)

         :::::::::::::::::::::::::::::::::::::::::::::::::::::
         ::                     SUMMARY                     ::
         :::::::::::::::::::::::::::::::::::::::::::::::::::::
         :: total energy             -30.091049663704 Eh    ::
         :: gradient norm              0.148641604367 Eh/a0 ::
         :: HOMO-LUMO gap              3.290676334972 eV    ::
         ::.................................................::
         :: SCC energy               -30.392851330979 Eh    ::
         :: -> isotropic ES            0.071768334458 Eh    ::
         :: -> anisotropic ES          0.002206595946 Eh    ::
         :: -> anisotropic XC          0.005157517845 Eh    ::
         :: -> dispersion             -0.011788487917 Eh    ::
         :: repulsion energy           0.301801667275 Eh    ::
         :: add. restraining           0.000000000000 Eh    ::
         :: total charge               0.000000000000 e     ::
         :::::::::::::::::::::::::::::::::::::::::::::::::::::

      ----------------------------------------------------------- 
     |                   =====================                   |
     |                        A N C O P T                        |
     |                   =====================                   |
     |               Approximate Normal Coordinate               |
     |                Rational Function Optimizer                |
      ----------------------------------------------------------- 
      ----------------------------------------------------------- 
     |                   =====================                   |
     |                        A N C O P T                        |
     |                   =====================                   |
     |               Approximate Normal Coordinate               |
     |                Rational Function Optimizer                |
      ----------------------------------------------------------- 

          ...................................................
          :                      SETUP                      :
          :.................................................:
          :   optimization level            normal          :
          :   max. optcycles                   200          :
          :   ANC micro-cycles                  20          :
          :   degrees of freedom                51          :
          :.................................................:
          :   RF solver                   davidson          :
          :   write xtbopt.log                true          :
          :   linear?                        false          :
          :   energy convergence         0.5000000E-05 Eh   :
          :   grad. convergence          0.1000000E-02 Eh/α :
          :   maxmium RF displ.          1.0000000          :
          :   Hlow (freq-cutoff)         0.1000000E-01      :
          :   Hmax (freq-cutoff)         5.0000000          :
          :   S6 in model hess.         20.0000000          :
          ...................................................

generating ANC from exact Hessian ...
Using Lindh-Hessian (1995)
 Shifting diagonal of input Hessian by   8.968180633775743E-003
 Lowest  eigenvalues of input Hessian
    0.000000    0.000000    0.000000    0.000000    0.000000    0.000000
    0.010000    0.011009    0.011902    0.015173    0.018224    0.022228
    0.024080    0.026399    0.029870    0.032320    0.038292    0.048112
 Highest eigenvalues
    1.355099    1.517001    1.535244    1.748666    1.883817    2.084748
 

........................................................................
.............................. CYCLE    1 ..............................
........................................................................

 iter      E             dE          RMSdq      gap      omega  full diag
   1    -30.3929215 -0.303929E+02  0.516E-05    3.29       0.0  T
   2    -30.3929215 -0.407496E-11  0.320E-05    3.29     716.9  T
   3    -30.3929215  0.197886E-11  0.218E-05    3.29    1050.4  T
     SCC iter.                  ...        0 min,  0.002 sec
     gradient                   ...        0 min,  0.001 sec
 * total energy  :   -30.0910497 Eh     change       -0.6266632E-10 Eh
   gradient norm :     0.1486417 Eh/α   predicted     0.0000000E+00 (-100.00%)
   displ. norm   :     0.3180840 α      lambda       -0.2358313E-01
   maximum displ.:     0.1726315 α      in ANC's #11, #12, #15, ...

........................................................................
.............................. CYCLE    2 ..............................
........................................................................

 iter      E             dE          RMSdq      gap      omega  full diag
   1    -30.4259014 -0.304259E+02  0.355E-01    3.51       0.0  T
   2    -30.4262897 -0.388258E-03  0.224E-01    3.53       1.0  T
   3    -30.4262755  0.142314E-04  0.100E-01    3.54       1.0  T
   4    -30.4263145 -0.389844E-04  0.414E-02    3.53       1.0  T
   5    -30.4263347 -0.202202E-04  0.129E-02    3.53       1.8  T
   6    -30.4263362 -0.154153E-05  0.645E-03    3.53       3.6  T
   7    -30.4263364 -0.140032E-06  0.212E-03    3.53      10.8  T
   8    -30.4263364 -0.724996E-08  0.507E-04    3.53      45.2  T
   9    -30.4263364 -0.845137E-09  0.191E-04    3.53     119.8  T
     SCC iter.                  ...        0 min,  0.006 sec
     gradient                   ...        0 min,  0.001 sec
 * total energy  :   -30.1071310 Eh     change       -0.1608132E-01 Eh
   gradient norm :     0.0552095 Eh/α   predicted    -0.1299099E-01 ( -19.22%)
   displ. norm   :     0.2605695 α      lambda       -0.5800049E-02
   maximum displ.:     0.1611860 α      in ANC's #11, #12, #10, ...

........................................................................
.............................. CYCLE    3 ..............................
........................................................................

 iter      E             dE          RMSdq      gap      omega  full diag
   1    -30.4420845 -0.304421E+02  0.224E-01    3.66       0.0  T
   2    -30.4421972 -0.112671E-03  0.138E-01    3.67       1.0  T
   3    -30.4421936  0.361125E-05  0.491E-02    3.68       1.0  T
   4    -30.4422047 -0.111562E-04  0.169E-02    3.67       1.4  T
   5    -30.4422073 -0.261732E-05  0.792E-03    3.67       2.9  T
   6    -30.4422079 -0.612568E-06  0.355E-03    3.67       6.5  T
   7    -30.4422080 -0.505806E-07  0.126E-03    3.67      18.2  T
   8    -30.4422080 -0.286475E-08  0.293E-04    3.67      78.3  T
   9    -30.4422080 -0.169507E-09  0.974E-05    3.67     235.6  T
     SCC iter.                  ...        0 min,  0.006 sec
     gradient                   ...        0 min,  0.001 sec
 * total energy  :   -30.1102556 Eh     change       -0.3124620E-02 Eh
   gradient norm :     0.0160862 Eh/α   predicted    -0.3098072E-02 (  -0.85%)
   displ. norm   :     0.1545901 α      lambda       -0.6886867E-03
   maximum displ.:     0.0729145 α      in ANC's #5, #11, #3, ...

........................................................................
.............................. CYCLE    4 ..............................
........................................................................

 iter      E             dE          RMSdq      gap      omega  full diag
   1    -30.4411961 -0.304412E+02  0.702E-02    3.68       0.0  T
   2    -30.4412037 -0.759772E-05  0.436E-02    3.67       1.0  T
   3    -30.4412012  0.251168E-05  0.187E-02    3.68       1.2  T
   4    -30.4412034 -0.223899E-05  0.891E-03    3.67       2.6  T
   5    -30.4412046 -0.114764E-05  0.131E-03    3.67      17.5  T
   6    -30.4412046 -0.275228E-08  0.730E-04    3.67      31.4  T
   7    -30.4412046 -0.848797E-09  0.193E-04    3.67     118.8  T
     SCC iter.                  ...        0 min,  0.005 sec
     gradient                   ...        0 min,  0.001 sec
 * total energy  :   -30.1107301 Eh     change       -0.4744796E-03 Eh
   gradient norm :     0.0071929 Eh/α   predicted    -0.3526384E-03 ( -25.68%)
   displ. norm   :     0.2293593 α      lambda       -0.5204008E-03
   maximum displ.:     0.1345238 α      in ANC's #5, #2, #3, ...

........................................................................
.............................. CYCLE    5 ..............................
........................................................................

 iter      E             dE          RMSdq      gap      omega  full diag
   1    -30.4404157 -0.304404E+02  0.731E-02    3.68       0.0  T
   2    -30.4404210 -0.530355E-05  0.439E-02    3.68       1.0  T
   3    -30.4404208  0.150390E-06  0.103E-02    3.68       2.2  T
   4    -30.4404211 -0.269126E-06  0.399E-03    3.68       5.8  T
   5    -30.4404213 -0.202802E-06  0.126E-03    3.68      18.1  T
   6    -30.4404213 -0.683430E-08  0.665E-04    3.68      34.5  T
   7    -30.4404213 -0.116811E-08  0.152E-04    3.68     150.7  T
     SCC iter.                  ...        0 min,  0.005 sec
     gradient                   ...        0 min,  0.001 sec
 * total energy  :   -30.1110373 Eh     change       -0.3072361E-03 Eh
   gradient norm :     0.0079676 Eh/α   predicted    -0.2739202E-03 ( -10.84%)
   displ. norm   :     0.1914656 α      lambda       -0.2998327E-03
   maximum displ.:     0.1204158 α      in ANC's #5, #3, #2, ...

........................................................................
.............................. CYCLE    6 ..............................
........................................................................

 iter      E             dE          RMSdq      gap      omega  full diag
   1    -30.4408247 -0.304408E+02  0.585E-02    3.68       0.0  T
   2    -30.4408259 -0.121238E-05  0.350E-02    3.68       1.0  T
   3    -30.4408247  0.114296E-05  0.103E-02    3.68       2.2  T
   4    -30.4408260 -0.124516E-05  0.336E-03    3.68       6.8  T
   5    -30.4408261 -0.166729E-06  0.859E-04    3.68      26.7  T
   6    -30.4408262 -0.142799E-08  0.385E-04    3.68      59.6  T
     SCC iter.                  ...        0 min,  0.004 sec
     gradient                   ...        0 min,  0.001 sec
 * total energy  :   -30.1112403 Eh     change       -0.2029611E-03 Eh
   gradient norm :     0.0089193 Eh/α   predicted    -0.1554124E-03 ( -23.43%)
   displ. norm   :     0.2233021 α      lambda       -0.3244862E-03
   maximum displ.:     0.1334999 α      in ANC's #5, #2, #3, ...

........................................................................
.............................. CYCLE    7 ..............................
........................................................................

 iter      E             dE          RMSdq      gap      omega  full diag
   1    -30.4417841 -0.304418E+02  0.693E-02    3.68       0.0  T
   2    -30.4417848 -0.695263E-06  0.413E-02    3.68       1.0  T
   3    -30.4417831  0.172942E-05  0.115E-02    3.68       2.0  T
   4    -30.4417851 -0.196543E-05  0.236E-03    3.68       9.7  T
   5    -30.4417851 -0.637410E-07  0.955E-04    3.68      24.0  T
   6    -30.4417851 -0.139552E-08  0.307E-04    3.68      74.7  T
     SCC iter.                  ...        0 min,  0.004 sec
     gradient                   ...        0 min,  0.002 sec
 * total energy  :   -30.1114886 Eh     change       -0.2483503E-03 Eh
   gradient norm :     0.0082926 Eh/α   predicted    -0.1703363E-03 ( -31.41%)
   displ. norm   :     0.2920472 α      lambda       -0.3930516E-03
   maximum displ.:     0.1625221 α      in ANC's #5, #2, #3, ...

........................................................................
.............................. CYCLE    8 ..............................
........................................................................

 iter      E             dE          RMSdq      gap      omega  full diag
   1    -30.4421477 -0.304421E+02  0.953E-02    3.67       0.0  T
   2    -30.4421496 -0.191030E-05  0.569E-02    3.67       1.0  T
   3    -30.4421482  0.136212E-05  0.110E-02    3.67       2.1  T
   4    -30.4421497 -0.148221E-05  0.446E-03    3.67       5.1  T
   5    -30.4421500 -0.267778E-06  0.126E-03    3.67      18.2  T
   6    -30.4421500 -0.117558E-08  0.347E-04    3.67      66.1  T
   7    -30.4421500 -0.233445E-09  0.943E-05    3.67     243.2  T
     SCC iter.                  ...        0 min,  0.005 sec
     gradient                   ...        0 min,  0.001 sec
 * total energy  :   -30.1117649 Eh     change       -0.2763114E-03 Eh
   gradient norm :     0.0075855 Eh/α   predicted    -0.2132895E-03 ( -22.81%)
   displ. norm   :     0.2316992 α      lambda       -0.2829405E-03
   maximum displ.:     0.1106143 α      in ANC's #5, #6, #2, ...

........................................................................
.............................. CYCLE    9 ..............................
........................................................................

 iter      E             dE          RMSdq      gap      omega  full diag
   1    -30.4427704 -0.304428E+02  0.835E-02    3.67       0.0  T
   2    -30.4427723 -0.191437E-05  0.492E-02    3.67       1.0  T
   3    -30.4427724 -0.930930E-07  0.570E-03    3.66       4.0  T
   4    -30.4427725 -0.164841E-06  0.183E-03    3.67      12.5  T
   5    -30.4427725 -0.997833E-08  0.966E-04    3.67      23.7  T
   6    -30.4427726 -0.105254E-08  0.260E-04    3.67      88.2  T
     SCC iter.                  ...        0 min,  0.004 sec
     gradient                   ...        0 min,  0.001 sec
 * total energy  :   -30.1119425 Eh     change       -0.1775954E-03 Eh
   gradient norm :     0.0050457 Eh/α   predicted    -0.1490658E-03 ( -16.06%)
   displ. norm   :     0.2472414 α      lambda       -0.1588435E-03
   maximum displ.:     0.1444705 α      in ANC's #5, #3, #2, ...

........................................................................
.............................. CYCLE   10 ..............................
........................................................................

 iter      E             dE          RMSdq      gap      omega  full diag
   1    -30.4406339 -0.304406E+02  0.784E-02    3.67       0.0  T
   2    -30.4406360 -0.215320E-05  0.460E-02    3.67       1.0  T
   3    -30.4406360 -0.348070E-07  0.650E-03    3.66       3.5  T
   4    -30.4406362 -0.206720E-06  0.177E-03    3.66      13.0  T
   5    -30.4406363 -0.748069E-08  0.920E-04    3.66      24.9  T
   6    -30.4406363 -0.102587E-08  0.220E-04    3.66     104.4  T
     SCC iter.                  ...        0 min,  0.004 sec
     gradient                   ...        0 min,  0.002 sec
 * total energy  :   -30.1119695 Eh     change       -0.2699081E-04 Eh
   gradient norm :     0.0081698 Eh/α   predicted    -0.8427787E-04 ( 212.25%)
   displ. norm   :     0.0697553 α      lambda       -0.2507244E-03
   maximum displ.:     0.0342306 α      in ANC's #6, #3, #5, ...

........................................................................
.............................. CYCLE   11 ..............................
........................................................................

 iter      E             dE          RMSdq      gap      omega  full diag
   1    -30.4449815 -0.304450E+02  0.547E-02    3.67       0.0  T
   2    -30.4449855 -0.405127E-05  0.307E-02    3.67       1.0  T
   3    -30.4449856 -0.936353E-07  0.941E-03    3.66       2.4  T
   4    -30.4449857 -0.667634E-07  0.368E-03    3.66       6.2  T
   5    -30.4449859 -0.157896E-06  0.157E-03    3.66      14.6  T
   6    -30.4449859 -0.864105E-08  0.597E-04    3.66      38.4  T
   7    -30.4449859 -0.157216E-08  0.162E-04    3.66     141.8  T
     SCC iter.                  ...        0 min,  0.005 sec
     gradient                   ...        0 min,  0.001 sec
 * total energy  :   -30.1120048 Eh     change       -0.3530266E-04 Eh
   gradient norm :     0.0060174 Eh/α   predicted    -0.1259752E-03 ( 256.84%)
   displ. norm   :     0.0445209 α      lambda       -0.1309051E-03
   maximum displ.:     0.0210879 α      in ANC's #9, #1, #13, ...

........................................................................
.............................. CYCLE   12 ..............................
........................................................................

 iter      E             dE          RMSdq      gap      omega  full diag
   1    -30.4437159 -0.304437E+02  0.398E-02    3.66       0.0  T
   2    -30.4437167 -0.751159E-06  0.236E-02    3.66       1.0  T
   3    -30.4437167 -0.392729E-07  0.342E-03    3.67       6.7  T
   4    -30.4437168 -0.350525E-07  0.975E-04    3.67      23.5  T
   5    -30.4437168 -0.205964E-08  0.492E-04    3.67      46.7  T
     SCC iter.                  ...        0 min,  0.003 sec
     gradient                   ...        0 min,  0.001 sec
 * total energy  :   -30.1120741 Eh     change       -0.6926085E-04 Eh
   gradient norm :     0.0019738 Eh/α   predicted    -0.6558380E-04 (  -5.31%)
   displ. norm   :     0.0757108 α      lambda       -0.2337079E-04
   maximum displ.:     0.0569118 α      in ANC's #5, #6, #3, ...

........................................................................
.............................. CYCLE   13 ..............................
........................................................................

 iter      E             dE          RMSdq      gap      omega  full diag
   1    -30.4429927 -0.304430E+02  0.225E-02    3.67       0.0  T
   2    -30.4429929 -0.121364E-06  0.134E-02    3.67       1.7  T
   3    -30.4429929 -0.285328E-08  0.137E-03    3.67      16.8  T
   4    -30.4429929 -0.519148E-08  0.794E-04    3.67      28.9  T
   5    -30.4429929 -0.724075E-08  0.334E-04    3.67      68.8  T
     SCC iter.                  ...        0 min,  0.003 sec
     gradient                   ...        0 min,  0.001 sec
 * total energy  :   -30.1120980 Eh     change       -0.2388107E-04 Eh
   gradient norm :     0.0026703 Eh/α   predicted    -0.1171654E-04 ( -50.94%)
   displ. norm   :     0.0766397 α      lambda       -0.3703019E-04
   maximum displ.:     0.0524935 α      in ANC's #5, #1, #6, ...

........................................................................
.............................. CYCLE   14 ..............................
........................................................................

 iter      E             dE          RMSdq      gap      omega  full diag
   1    -30.4430902 -0.304431E+02  0.231E-02    3.67       0.0  T
   2    -30.4430903 -0.686194E-07  0.138E-02    3.67       1.7  T
   3    -30.4430903 -0.103980E-07  0.119E-03    3.67      19.3  T
   4    -30.4430903 -0.745661E-08  0.698E-04    3.67      32.9  T
   5    -30.4430903 -0.328847E-08  0.387E-04    3.67      59.3  T
     SCC iter.                  ...        0 min,  0.003 sec
     gradient                   ...        0 min,  0.001 sec
 * total energy  :   -30.1121276 Eh     change       -0.2967030E-04 Eh
   gradient norm :     0.0025311 Eh/α   predicted    -0.1862575E-04 ( -37.22%)
   displ. norm   :     0.1403837 α      lambda       -0.5411252E-04
   maximum displ.:     0.0889919 α      in ANC's #5, #1, #7, ...

........................................................................
.............................. CYCLE   15 ..............................
........................................................................

 iter      E             dE          RMSdq      gap      omega  full diag
   1    -30.4430450 -0.304430E+02  0.434E-02    3.67       0.0  T
   2    -30.4430452 -0.270549E-06  0.259E-02    3.67       1.0  T
   3    -30.4430453 -0.530749E-07  0.211E-03    3.67      10.9  T
   4    -30.4430453 -0.170992E-07  0.116E-03    3.67      19.7  T
   5    -30.4430453 -0.473897E-08  0.705E-04    3.67      32.5  T
   6    -30.4430453 -0.317884E-08  0.248E-04    3.67      92.6  T
     SCC iter.                  ...        0 min,  0.004 sec
     gradient                   ...        0 min,  0.002 sec
 * total energy  :   -30.1121631 Eh     change       -0.3543631E-04 Eh
   gradient norm :     0.0024366 Eh/α   predicted    -0.2759361E-04 ( -22.13%)
   displ. norm   :     0.0846548 α      lambda       -0.2720574E-04
   maximum displ.:     0.0531168 α      in ANC's #1, #5, #2, ...

........................................................................
.............................. CYCLE   16 ..............................
........................................................................

 iter      E             dE          RMSdq      gap      omega  full diag
   1    -30.4433630 -0.304434E+02  0.301E-02    3.67       0.0  T
   2    -30.4433632 -0.167071E-06  0.179E-02    3.67       1.3  T
   3    -30.4433632 -0.206612E-07  0.172E-03    3.67      13.3  T
   4    -30.4433632 -0.128777E-07  0.949E-04    3.67      24.2  T
   5    -30.4433632 -0.599095E-08  0.525E-04    3.67      43.7  T
     SCC iter.                  ...        0 min,  0.004 sec
     gradient                   ...        0 min,  0.001 sec
 * total energy  :   -30.1121814 Eh     change       -0.1832236E-04 Eh
   gradient norm :     0.0021641 Eh/α   predicted    -0.1370665E-04 ( -25.19%)
   displ. norm   :     0.0812177 α      lambda       -0.1929413E-04
   maximum displ.:     0.0497617 α      in ANC's #1, #5, #2, ...

........................................................................
.............................. CYCLE   17 ..............................
........................................................................

 iter      E             dE          RMSdq      gap      omega  full diag
   1    -30.4434267 -0.304434E+02  0.270E-02    3.67       0.0  T
   2    -30.4434268 -0.945627E-07  0.162E-02    3.67       1.4  T
   3    -30.4434267  0.355878E-07  0.229E-03    3.68      10.0  T
   4    -30.4434268 -0.603133E-07  0.946E-04    3.67      24.3  T
   5    -30.4434268 -0.766062E-08  0.405E-04    3.67      56.6  T
     SCC iter.                  ...        0 min,  0.003 sec
     gradient                   ...        0 min,  0.001 sec
 * total energy  :   -30.1121938 Eh     change       -0.1241864E-04 Eh
   gradient norm :     0.0010938 Eh/α   predicted    -0.9711428E-05 ( -21.80%)
   displ. norm   :     0.0620417 α      lambda       -0.9762653E-05
   maximum displ.:     0.0441141 α      in ANC's #1, #3, #2, ...

........................................................................
.............................. CYCLE   18 ..............................
........................................................................

 iter      E             dE          RMSdq      gap      omega  full diag
   1    -30.4437902 -0.304438E+02  0.234E-02    3.68       0.0  T
   2    -30.4437903 -0.105263E-06  0.139E-02    3.68       1.6  T
   3    -30.4437903  0.188603E-07  0.178E-03    3.68      12.9  T
   4    -30.4437903 -0.267065E-07  0.953E-04    3.68      24.1  T
   5    -30.4437904 -0.111450E-07  0.330E-04    3.68      69.4  T
     SCC iter.                  ...        0 min,  0.003 sec
     gradient                   ...        0 min,  0.002 sec
 * total energy  :   -30.1122019 Eh     change       -0.8035040E-05 Eh
   gradient norm :     0.0011283 Eh/α   predicted    -0.4892960E-05 ( -39.10%)
   displ. norm   :     0.0827824 α      lambda       -0.8233081E-05
   maximum displ.:     0.0490617 α      in ANC's #3, #1, #5, ...

........................................................................
.............................. CYCLE   19 ..............................
........................................................................

 iter      E             dE          RMSdq      gap      omega  full diag
   1    -30.4432453 -0.304432E+02  0.270E-02    3.68       0.0  T
   2    -30.4432454 -0.101420E-06  0.160E-02    3.68       1.4  T
   3    -30.4432454  0.291225E-07  0.199E-03    3.68      11.5  T
   4    -30.4432454 -0.393451E-07  0.993E-04    3.68      23.1  T
   5    -30.4432454 -0.112069E-07  0.362E-04    3.68      63.4  T
     SCC iter.                  ...        0 min,  0.003 sec
     gradient                   ...        0 min,  0.001 sec
 * total energy  :   -30.1122072 Eh     change       -0.5335886E-05 Eh
   gradient norm :     0.0014549 Eh/α   predicted    -0.4129520E-05 ( -22.61%)
   displ. norm   :     0.0702157 α      lambda       -0.1214988E-04
   maximum displ.:     0.0416395 α      in ANC's #3, #6, #5, ...

........................................................................
.............................. CYCLE   20 ..............................
........................................................................

 iter      E             dE          RMSdq      gap      omega  full diag
   1    -30.4434793 -0.304435E+02  0.206E-02    3.67       0.0  T
   2    -30.4434793 -0.448727E-07  0.122E-02    3.67       1.9  T
   3    -30.4434793  0.186723E-07  0.140E-03    3.67      16.4  T
   4    -30.4434793 -0.229671E-07  0.706E-04    3.67      32.5  T
   5    -30.4434793 -0.583521E-08  0.234E-04    3.67      98.0  T
     SCC iter.                  ...        0 min,  0.003 sec
     gradient                   ...        0 min,  0.001 sec
 * total energy  :   -30.1122182 Eh     change       -0.1099790E-04 Eh
   gradient norm :     0.0018773 Eh/α   predicted    -0.6092824E-05 ( -44.60%)
   displ. norm   :     0.0745079 α      lambda       -0.8441492E-05
   maximum displ.:     0.0482142 α      in ANC's #1, #3, #4, ...
 * RMSD in coord.:     0.4434210 α      energy gain  -0.2116853E-01 Eh

generating ANC from exact Hessian ...
Using Lindh-Hessian (1995)
 Shifting diagonal of input Hessian by   8.856599653166900E-003
 Lowest  eigenvalues of input Hessian
    0.000000    0.000000    0.000000    0.000000    0.000000    0.000000
    0.010000    0.011033    0.011755    0.014995    0.018382    0.021520
    0.024102    0.027612    0.030579    0.033809    0.036950    0.047521
 Highest eigenvalues
    1.320895    1.474155    1.515771    1.826255    1.952782    2.398845
 

........................................................................
.............................. CYCLE   21 ..............................
........................................................................

 iter      E             dE          RMSdq      gap      omega  full diag
   1    -30.4436037 -0.304436E+02  0.251E-02    3.67       0.0  T
   2    -30.4436037 -0.373523E-07  0.149E-02    3.67       1.5  T
   3    -30.4436037  0.361078E-07  0.179E-03    3.67      12.9  T
   4    -30.4436037 -0.468300E-07  0.659E-04    3.67      34.8  T
   5    -30.4436037 -0.386031E-08  0.285E-04    3.67      80.5  T
     SCC iter.                  ...        0 min,  0.004 sec
     gradient                   ...        0 min,  0.001 sec
 * total energy  :   -30.1122272 Eh     change       -0.8969427E-05 Eh
   gradient norm :     0.0010152 Eh/α   predicted     0.0000000E+00 (-100.00%)
   displ. norm   :     0.0161781 α      lambda       -0.1116498E-05
   maximum displ.:     0.0103543 α      in ANC's #1, #2, #4, ...

........................................................................
.............................. CYCLE   22 ..............................
........................................................................

 iter      E             dE          RMSdq      gap      omega  full diag
   1    -30.4436972 -0.304437E+02  0.915E-03    3.67       0.0  T
   2    -30.4436972 -0.126457E-07  0.540E-03    3.67       4.2  T
   3    -30.4436972 -0.205496E-08  0.517E-04    3.67      44.4  T
   4    -30.4436972 -0.178645E-08  0.260E-04    3.67      88.4  T
     SCC iter.                  ...        0 min,  0.010 sec
     gradient                   ...        0 min,  0.001 sec
 * total energy  :   -30.1122308 Eh     change       -0.3588000E-05 Eh
   gradient norm :     0.0002963 Eh/α   predicted    -0.1906536E-05 ( -46.86%)
   displ. norm   :     0.0207049 α      lambda       -0.1741844E-05
   maximum displ.:     0.0148532 α      in ANC's #1, #4, #2, ...

   *** GEOMETRY OPTIMIZATION CONVERGED AFTER 22 ITERATIONS ***

------------------------------------------------------------------------
 total energy gain   :        -0.0211811 Eh      -13.2913 kcal/mol
 total RMSD          :         0.4432434 a0        0.2346 Å
 total power (kW/mol):        -2.5277699 (step) -323.9163 (real)
------------------------------------------------------------------------

 ANCopt (total)                0 d,  0 h,  0 min,  0.172 sec
 optimizer setup                ...        0 min,  0.000 sec (  0.068%)
 model hessian                  ...        0 min,  0.011 sec (  6.254%)
 ANC generation                 ...        0 min,  0.002 sec (  1.183%)
 coordinate transformation      ...        0 min,  0.000 sec (  0.098%)
 single point calculation       ...        0 min,  0.148 sec ( 85.914%)
 optimization log               ...        0 min,  0.004 sec (  2.154%)
 hessian update                 ...        0 min,  0.002 sec (  1.305%)
 rational function              ...        0 min,  0.002 sec (  1.430%)

================
 final structure:
================
19
 xtb: 6.7.1 (edcfbbe)
C           -2.01828714635802        0.36818967125509        1.14961305363055
C           -1.89431373074704       -0.40769256408284       -0.15651466406354
O           -1.68100374076945       -1.76035622180573        0.17078674739313
C           -0.76441525091329        0.15207029486621       -1.03077034170112
O            0.45973041916837        0.07472054360774       -0.31366604731413
C            1.54797353226871        0.52347117437902       -0.95094697451331
O            1.51926206653624        0.97774702243862       -2.06938540660361
C            2.77769820332285        0.40058913853708       -0.13909497954410
C            2.81712149134891       -0.16893677603351        1.05646057734801
H           -2.79878940970425       -0.07686337176605        1.75913020502415
H           -2.26271230196080        1.40736145645185        0.94972378353901
H           -1.07856640179924        0.31292086350911        1.69047387073749
H           -2.82853136611161       -0.30628338334778       -0.73728705901388
H           -1.47835778160234       -2.25807139932118       -0.62863031928794
H           -0.96839769460282        1.19533413371154       -1.29700005251307
H           -0.66969044024280       -0.42009579489033       -1.96353684967775
H            3.65662877121486        0.81177035471153       -0.61444279437254
H            3.73386994120906       -0.24443200814947        1.61681887457326
H            1.93078283974267       -0.58144313407098        1.50826637635939
 
 Bond Distances (Angstroems)
 ---------------------------
C1-C2=1.5242         C1-H10=1.0857        C1-H11=1.0861        C1-H12=1.0857        C2-C1=1.5242         C2-O3=1.4080         
C2-C4=1.5344         C2-H13=1.1047        O3-C2=1.4080         O3-H14=0.9633        C4-C2=1.5344         C4-O5=1.4208         
C4-H15=1.0958        C4-H16=1.0984        O5-C4=1.4208         O5-C6=1.3386         C6-O5=1.3386         C6-O7=1.2075         
C6-C8=1.4787         O7-C6=1.2075         C8-C6=1.4787         C8-C9=1.3249         C8-H17=1.0805        C9-C8=1.3249         
C9-H18=1.0771        C9-H19=1.0770        H10-C1=1.0857        H11-C1=1.0861        H12-C1=1.0857        H13-C2=1.1047        
H14-O3=0.9633        H15-C4=1.0958        H16-C4=1.0984        H17-C8=1.0805        H18-C9=1.0771        H19-C9=1.0770        
 C  H  Rav=1.0879 sigma=0.0092  Rmin=1.0770  Rmax=1.1047     9
 C  C  Rav=1.4655 sigma=0.0839  Rmin=1.3249  Rmax=1.5344     4
 O  H  Rav=0.9633 sigma=0.0000  Rmin=0.9633  Rmax=0.9633     1
 O  C  Rav=1.3437 sigma=0.0846  Rmin=1.2075  Rmax=1.4208     4
 
 selected bond angles (degree)
 --------------------
H10-C1-C2=109.32               H11-C1-C2=110.34               H11-C1-H10=109.50              H12-C1-C2=109.30               
H12-C1-H10=108.77              H12-C1-H11=109.58              O3-C2-C1=107.59                C4-C2-C1=111.25                
C4-C2-O3=111.80                H13-C2-C1=109.57               H13-C2-O3=109.79               H13-C2-C4=106.84               
H14-O3-C2=109.59               O5-C4-C2=109.09                H15-C4-C2=110.41               H15-C4-O5=109.56               
H16-C4-C2=110.94               H16-C4-O5=109.02               H16-C4-H15=107.80              C6-O5-C4=116.23                
O7-C6-O5=123.21                C8-C6-O5=112.76                C8-C6-O7=124.03                C9-C8-C6=123.77                
H17-C8-C6=113.79               H17-C8-C9=122.44               H18-C9-C8=121.66               H19-C9-C8=121.25               
H19-C9-H18=117.09              
 
 selected dihedral angles (degree)
 ---------------------------------
O3-C2-C1-H10=304.96           O3-C2-C1-H11=184.48           O3-C2-C1-H12= 63.90           C4-C2-C1-H10=182.18           
C4-C2-C1-H11= 61.71           C4-C2-C1-H12=301.13           H13-C2-C1-H10= 64.27          H13-C2-C1-H11=303.79          
H13-C2-C1-H12=183.22          H14-O3-C2-C1=187.70           H14-O3-C2-C4=310.13           H14-O3-C2-H13= 68.53          
O5-C4-C2-C1= 59.03            O5-C4-C2-O3=298.72            O5-C4-C2-H13=178.58           H15-C4-C2-C1=298.58           
H15-C4-C2-O3=178.27           H15-C4-C2-H13= 58.14          H16-C4-C2-C1=179.14           H16-C4-C2-O3= 58.83           
H16-C4-C2-H13=298.70          C6-O5-C4-C2=179.73            C6-O5-C4-H15=300.69           C6-O5-C4-H16= 58.44           
O7-C6-O5-C4=  0.27            C8-C6-O5-C4=180.31            C9-C8-C6-O5=  4.03            C9-C8-C6-O7=184.06            
H17-C8-C6-O5=183.44           H17-C8-C6-O7=  3.48           H18-C9-C8-C6=179.69           H18-C9-C8-H17=  0.33          
H19-C9-C8-C6=  0.00           H19-C9-C8-H17=180.62          
           -------------------------------------------------
          |                Final Singlepoint                |
           -------------------------------------------------

          ...................................................
          :                      SETUP                      :
          :.................................................:
          :  # basis functions                  46          :
          :  # atomic orbitals                  46          :
          :  # shells                           28          :
          :  # electrons                        52          :
          :  max. iterations                   250          :
          :  Hamiltonian                  GFN2-xTB          :
          :  restarted?                      false          :
          :  GBSA solvation                  false          :
          :  PC potential                    false          :
          :  electronic temp.          300.0000000     K    :
          :  accuracy                    1.0000000          :
          :  -> integral cutoff          0.2500000E+02      :
          :  -> integral neglect         0.1000000E-07      :
          :  -> SCF convergence          0.1000000E-05 Eh   :
          :  -> wf. convergence          0.1000000E-03 e    :
          :  Broyden damping             0.4000000          :
          :  net charge                          0          :
          :  unpaired electrons                  0          :
          ...................................................

 iter      E             dE          RMSdq      gap      omega  full diag
   1    -30.4436972 -0.304437E+02  0.156E-04    3.67       0.0  T
   2    -30.4436972 -0.165628E-10  0.132E-04    3.67     173.6  T
   3    -30.4436972 -0.237261E-09  0.481E-05    3.67     477.2  T

   *** convergence criteria satisfied after 3 iterations ***

         #    Occupation            Energy/Eh            Energy/eV
      -------------------------------------------------------------
         1        2.0000           -0.7449511             -20.2711
       ...           ...                  ...                  ...
        20        2.0000           -0.4675116             -12.7216
        21        2.0000           -0.4647109             -12.6454
        22        2.0000           -0.4564784             -12.4214
        23        2.0000           -0.4487938             -12.2123
        24        2.0000           -0.4413191             -12.0089
        25        2.0000           -0.4237930             -11.5320
        26        2.0000           -0.4147169             -11.2850 (HOMO)
        27                         -0.2796923              -7.6108 (LUMO)
        28                         -0.1680821              -4.5737
        29                         -0.0027634              -0.0752
        30                          0.0474175               1.2903
        31                          0.0708961               1.9292
       ...                                ...                  ...
        46                          0.6969053              18.9638
      -------------------------------------------------------------
                  HL-Gap            0.1350246 Eh            3.6742 eV
             Fermi-level           -0.3472046 Eh           -9.4479 eV

 SCC (total)                   0 d,  0 h,  0 min,  0.007 sec
 SCC setup                      ...        0 min,  0.001 sec ( 16.755%)
 Dispersion                     ...        0 min,  0.000 sec (  0.673%)
 classical contributions        ...        0 min,  0.000 sec (  0.130%)
 integral evaluation            ...        0 min,  0.000 sec (  5.011%)
 iterations                     ...        0 min,  0.004 sec ( 54.068%)
 molecular gradient             ...        0 min,  0.001 sec ( 16.908%)
 printout                       ...        0 min,  0.000 sec (  6.114%)

         :::::::::::::::::::::::::::::::::::::::::::::::::::::
         ::                     SUMMARY                     ::
         :::::::::::::::::::::::::::::::::::::::::::::::::::::
         :: total energy             -30.112230751470 Eh    ::
         :: gradient norm              0.000296244091 Eh/a0 ::
         :: HOMO-LUMO gap              3.674206322587 eV    ::
         ::.................................................::
         :: SCC energy               -30.443620815305 Eh    ::
         :: -> isotropic ES            0.069035334514 Eh    ::
         :: -> anisotropic ES          0.002574122381 Eh    ::
         :: -> anisotropic XC          0.005242008663 Eh    ::
         :: -> dispersion             -0.012026860150 Eh    ::
         :: repulsion energy           0.331390063835 Eh    ::
         :: add. restraining           0.000000000000 Eh    ::
         :: total charge              -0.000000000000 e     ::
         :::::::::::::::::::::::::::::::::::::::::::::::::::::

           -------------------------------------------------
          |                Property Printout                |
           -------------------------------------------------

    * Orbital Energies and Occupations

         #    Occupation            Energy/Eh            Energy/eV
      -------------------------------------------------------------
         1        2.0000           -0.7449511             -20.2711
       ...           ...                  ...                  ...
        14        2.0000           -0.5341013             -14.5336
        15        2.0000           -0.5288523             -14.3908
        16        2.0000           -0.5126587             -13.9502
        17        2.0000           -0.5028924             -13.6844
        18        2.0000           -0.4894520             -13.3187
        19        2.0000           -0.4743007             -12.9064
        20        2.0000           -0.4675116             -12.7216
        21        2.0000           -0.4647109             -12.6454
        22        2.0000           -0.4564784             -12.4214
        23        2.0000           -0.4487938             -12.2123
        24        2.0000           -0.4413191             -12.0089
        25        2.0000           -0.4237930             -11.5320
        26        2.0000           -0.4147169             -11.2850 (HOMO)
        27                         -0.2796923              -7.6108 (LUMO)
        28                         -0.1680821              -4.5737
        29                         -0.0027634              -0.0752
        30                          0.0474175               1.2903
        31                          0.0708961               1.9292
        32                          0.0939921               2.5577
        33                          0.1163185               3.1652
        34                          0.1193971               3.2490
        35                          0.1312464               3.5714
        36                          0.1556424               4.2352
        37                          0.1779916               4.8434
       ...                                ...                  ...
        46                          0.6969053              18.9638
      -------------------------------------------------------------
                  HL-Gap            0.1350246 Eh            3.6742 eV
             Fermi-level           -0.3472046 Eh           -9.4479 eV

     #   Z          covCN         q      C6AA      α(0)
     1   6 C        3.754    -0.116    22.778     6.806
     2   6 C        3.723     0.119    18.735     6.181
     3   8 O        1.656    -0.431    21.460     6.254
     4   6 C        3.707     0.070    19.542     6.319
     5   8 O        1.705    -0.252    18.181     5.757
     6   6 C        2.727     0.354    20.985     7.500
     7   8 O        0.857    -0.415    21.980     6.286
     8   6 C        2.887    -0.058    29.430     8.894
     9   6 C        2.838    -0.062    29.531     8.906
    10   1 H        0.925     0.063     2.167     2.302
    11   1 H        0.925     0.045     2.389     2.417
    12   1 H        0.925     0.067     2.122     2.278
    13   1 H        0.922     0.019     2.750     2.593
    14   1 H        0.805     0.289     0.756     1.365
    15   1 H        0.924     0.053     2.289     2.366
    16   1 H        0.923     0.045     2.380     2.413
    17   1 H        0.926     0.071     2.073     2.251
    18   1 H        0.926     0.063     2.160     2.299
    19   1 H        0.926     0.076     2.021     2.223

 Mol. C6AA /au·bohr⁶  :       3221.973137
 Mol. C8AA /au·bohr⁸  :      70778.337326
 Mol. α(0) /au        :         85.408568


Wiberg/Mayer (AO) data.
largest (>0.10) Wiberg bond orders for each atom

 ---------------------------------------------------------------------------
     #   Z sym  total        # sym  WBO       # sym  WBO       # sym  WBO
 ---------------------------------------------------------------------------
     1   6 C    3.991 --     2 C    1.004    11 H    0.986    10 H    0.984
                            12 H    0.983
     2   6 C    3.960 --     1 C    1.004     3 O    0.997     4 C    0.981
                            13 H    0.958
     3   8 O    1.968 --     2 C    0.997    14 H    0.899
     4   6 C    3.934 --     2 C    0.981    15 H    0.966    16 H    0.965
                             5 O    0.951
     5   8 O    2.313 --     6 C    1.121     4 C    0.951     7 O    0.172
     6   6 C    3.920 --     7 O    1.724     5 O    1.121     8 C    1.014
     7   8 O    2.029 --     6 C    1.724     5 O    0.172
     8   6 C    3.987 --     9 C    1.933     6 C    1.014    17 H    0.963
     9   6 C    3.983 --     8 C    1.933    18 H    0.975    19 H    0.971
    10   1 H    0.996 --     1 C    0.984
    11   1 H    0.998 --     1 C    0.986
    12   1 H    0.996 --     1 C    0.983
    13   1 H    0.999 --     2 C    0.958
    14   1 H    0.917 --     3 O    0.899
    15   1 H    0.997 --     4 C    0.966
    16   1 H    0.998 --     4 C    0.965
    17   1 H    0.994 --     8 C    0.963
    18   1 H    0.996 --     9 C    0.975
    19   1 H    0.994 --     9 C    0.971
 ---------------------------------------------------------------------------

Topologies differ in total number of bonds
Writing topology from bond orders to xtbtopo.mol

molecular dipole:
                 x           y           z       tot (Debye)
 q only:       -0.227      -0.209       0.626
   full:       -0.192      -0.209       0.379       1.202
molecular quadrupole (traceless):
                xx          xy          yy          xz          yz          zz
 q only:        5.838      -3.365      -1.449       7.987       5.837      -4.389
  q+dip:        6.393      -3.653      -1.732       9.971       7.209      -4.661
   full:        5.753      -4.086      -0.508       9.825       8.211      -5.245

           -------------------------------------------------
          |                Geometry Summary                 |
           -------------------------------------------------

      molecular mass/u    :      130.1420377
   center of mass at/Å    :        0.2427942      -0.0081854      -0.2608617
  moments of inertia/u·Å² :        0.1889073E+03   0.5319733E+03   0.6174258E+03
rotational constants/cm⁻¹ :        0.8923761E-01   0.3168887E-01   0.2730309E-01

 * 17 selected distances

     #   Z          #   Z                                           value/Å
     1   6 C        2   6 C                                       1.5242482
     2   6 C        3   8 O                                       1.4079512
     2   6 C        4   6 C                                       1.5343821 (max)
     4   6 C        5   8 O                                       1.4208288
     5   8 O        6   6 C                                       1.3385729
     6   6 C        7   8 O                                       1.2075163
     8   6 C        9   6 C                                       1.3248650
     1   6 C       10   1 H                                       1.0857105
     1   6 C       11   1 H                                       1.0860836
     1   6 C       12   1 H                                       1.0856613
     2   6 C       13   1 H                                       1.1046915
     3   8 O       14   1 H                                       0.9632516 (min)
     4   6 C       15   1 H                                       1.0958498
     4   6 C       16   1 H                                       1.0983626
     8   6 C       17   1 H                                       1.0805298
     9   6 C       18   1 H                                       1.0770928
     9   6 C       19   1 H                                       1.0769802

 * 4 distinct bonds (by element types)

   Z      Z             #   av. dist./Å        max./Å        min./Å
   1 H    6 C           9     1.0878847     1.1046915     1.0769802
   6 C    6 C           3     1.4611651     1.5343821     1.3248650
   1 H    8 O           1     0.9632516     0.9632516     0.9632516
   6 C    8 O           4     1.3437173     1.4208288     1.2075163


optimized geometry written to: xtbopt.xyz


           -------------------------------------------------
          | TOTAL ENERGY              -30.112230751470 Eh   |
          | GRADIENT NORM               0.000296244091 Eh/α |
          | HOMO-LUMO GAP               3.674206322587 eV   |
           -------------------------------------------------

------------------------------------------------------------------------
 * finished run on 2025/12/01 at 14:17:41.243     
------------------------------------------------------------------------
 total:
 * wall-time:     0 d,  0 h,  0 min,  0.204 sec
 *  cpu-time:     0 d,  0 h,  0 min,  4.642 sec
 * ratio c/w:    22.741 speedup
 SCF:
 * wall-time:     0 d,  0 h,  0 min,  0.016 sec
 *  cpu-time:     0 d,  0 h,  0 min,  0.367 sec
 * ratio c/w:    22.358 speedup
 ANC optimizer:
 * wall-time:     0 d,  0 h,  0 min,  0.180 sec
 *  cpu-time:     0 d,  0 h,  0 min,  4.126 sec
 * ratio c/w:    22.971 speedup

normal termination of xtb
