      -----------------------------------------------------------      
     |                   =====================                   |     
     |                           x T B                           |     
     |                   =====================                   |     
     |                         S. Grimme                         |     
     |          Mulliken Center for Theoretical Chemistry        |     
     |                    University of Bonn                     |     
      -----------------------------------------------------------      

   * xtb version 6.7.1 (edcfbbe) compiled by 'albert@albert-system' on 2024-07-22

   xtb is free software: you can redistribute it and/or modify it under
   the terms of the GNU Lesser General Public License as published by
   the Free Software Foundation, either version 3 of the License, or
   (at your option) any later version.
   
   xtb is distributed in the hope that it will be useful,
   but WITHOUT ANY WARRANTY; without even the implied warranty of
   MERCHANTABILITY or FITNESS FOR A PARTICULAR PURPOSE.  See the
   GNU Lesser General Public License for more details.
   
   Cite this work as:
   * C. Bannwarth, E. Caldeweyher, S. Ehlert, A. Hansen, P. Pracht,
     J. Seibert, S. Spicher, S. Grimme, WIREs Comput. Mol. Sci., 2020, 11,
     e01493. DOI: 10.1002/wcms.1493
   
   for GFN2-xTB:
   * C. Bannwarth, S. Ehlert and S. Grimme., J. Chem. Theory Comput., 2019,
     15, 1652-1671. DOI: 10.1021/acs.jctc.8b01176
   for GFN1-xTB:
   * S. Grimme, C. Bannwarth, P. Shushkov, J. Chem. Theory Comput., 2017,
     13, 1989-2009. DOI: 10.1021/acs.jctc.7b00118
   for GFN0-xTB:
   * P. Pracht, E. Caldeweyher, S. Ehlert, S. Grimme, ChemRxiv, 2019, preprint.
     DOI: 10.26434/chemrxiv.8326202.v1
   for GFN-FF:
   * S. Spicher and S. Grimme, Angew. Chem. Int. Ed., 2020, 59, 15665-15673.
     DOI: 10.1002/anie.202004239
   
   for ALPB and GBSA implicit solvation:
   * S. Ehlert, M. Stahn, S. Spicher, S. Grimme, J. Chem. Theory Comput.,
     2021, 17, 4250-4261. DOI: 10.1021/acs.jctc.1c00471
   
   for ddCOSMO and CPCM-X implicit solvation:
   * M. Stahn, S. Ehlert, S. Grimme, J. Phys. Chem. A,
     2023, XX, XXXX-XXXX. DOI: 10.1021/acs.jpca.3c04382
   
   for DFT-D4:
   * E. Caldeweyher, C. Bannwarth and S. Grimme, J. Chem. Phys., 2017,
     147, 034112. DOI: 10.1063/1.4993215
   * E. Caldeweyher, S. Ehlert, A. Hansen, H. Neugebauer, S. Spicher,
     C. Bannwarth and S. Grimme, J. Chem. Phys., 2019, 150, 154122.
     DOI: 10.1063/1.5090222
   * E. Caldeweyher, J.-M. Mewes, S. Ehlert and S. Grimme, Phys. Chem. Chem. Phys.
     2020, 22, 8499-8512. DOI: 10.1039/D0CP00502A
   
   for sTDA-xTB:
   * S. Grimme and C. Bannwarth, J. Chem. Phys., 2016, 145, 054103.
     DOI: 10.1063/1.4959605
   
   in the mass-spec context:
   * V. Asgeirsson, C. Bauer and S. Grimme, Chem. Sci., 2017, 8, 4879.
     DOI: 10.1039/c7sc00601b
   * J. Koopman and S. Grimme, ACS Omega 2019, 4, 12, 15120-15133.
     DOI: 10.1021/acsomega.9b02011
   
   for metadynamics refer to:
   * S. Grimme, J. Chem. Theory Comput., 2019, 155, 2847-2862
     DOI: 10.1021/acs.jctc.9b00143
   
   for SPH calculations refer to:
   * S. Spicher and S. Grimme, J. Chem. Theory Comput., 2021, 17, 1701-1714
     DOI: 10.1021/acs.jctc.0c01306
   
   for ONIOM refer to:
   * C. Plett, A. Katbashev, S. Ehlert, S. Grimme, M. Bursch,
     Phys. Chem. Chem. Phys., 2023, 25, 17860-17868. DOI: 10.1039/D3CP02178E
   
   for DIPRO refer to:
   * J. Kohn, N. Gildemeister, S. Grimme, D. Fazzi, A. Hansen,
     J. Chem. Phys., 2023, just accepted.
   
   for PTB refer to:
   * S. Grimme, M. Mueller, A. Hansen, J. Chem. Phys., 2023, 158, 124111.
     DOI: 10.1063/5.0137838
   
   with help from (in alphabetical order)
   P. Atkinson, C. Bannwarth, F. Bohle, G. Brandenburg, E. Caldeweyher
   M. Checinski, S. Dohm, S. Ehlert, S. Ehrlich, I. Gerasimov, C. Hölzer
   A. Katbashev, J. Kohn, J. Koopman, C. Lavigne, S. Lehtola, F. März, M. Müller,
   F. Musil, H. Neugebauer, J. Pisarek, C. Plett, P. Pracht, F. Pultar,
   J. Seibert, P. Shushkov, S. Spicher, M. Stahn, M. Steiner, T. Strunk,
   J. Stückrath, T. Rose, and J. Unsleber
   
 * started run on 2025/12/01 at 14:17:41.505     
   ID    Z sym.   atoms
    1    6 C      1, 2, 4, 6, 8, 9
    2    8 O      3, 5, 7
    3    1 H      10-19

           -------------------------------------------------
          |                Calculation Setup                |
           -------------------------------------------------

          program call               : xtb pipeline_data/3_conformer_xyz/acrylates/rdkit/GWZMWHWAWHPNHN-YFKPBYRVSA-N_conf34.xyz --opt --gfn 2-xTB --iterations 250
          coordinate file            : pipeline_data/3_conformer_xyz/acrylates/rdkit/GWZMWHWAWHPNHN-YFKPBYRVSA-N_conf34.xyz
          omp threads                :                    24

########################################################################
[WARNING] Please study the warnings concerning your input carefully
-1- readin_getIntValue: could not parse '2-xTB'
########################################################################

           -------------------------------------------------
          |                 G F N 2 - x T B                 |
           -------------------------------------------------

        Reference                      10.1021/acs.jctc.8b01176
      * Hamiltonian:
        H0-scaling (s, p, d)           1.850000    2.230000    2.230000
        zeta-weighting                 0.500000
      * Dispersion:
        s8                             2.700000
        a1                             0.520000
        a2                             5.000000
        s9                             5.000000
      * Repulsion:
        kExp                           1.500000    1.000000
        rExp                           1.000000
      * Coulomb:
        alpha                          2.000000
        third order                    shell-resolved
        anisotropic                    true
        a3                             3.000000
        a5                             4.000000
        cn-shift                       1.200000
        cn-exp                         4.000000
        max-rad                        5.000000

q/qsh data taken from xtbrestart
CAMM data taken from xtbrestart

          ...................................................
          :                      SETUP                      :
          :.................................................:
          :  # basis functions                  46          :
          :  # atomic orbitals                  46          :
          :  # shells                           28          :
          :  # electrons                        52          :
          :  max. iterations                   250          :
          :  Hamiltonian                  GFN2-xTB          :
          :  restarted?                       true          :
          :  GBSA solvation                  false          :
          :  PC potential                    false          :
          :  electronic temp.          300.0000000     K    :
          :  accuracy                    1.0000000          :
          :  -> integral cutoff          0.2500000E+02      :
          :  -> integral neglect         0.1000000E-07      :
          :  -> SCF convergence          0.1000000E-05 Eh   :
          :  -> wf. convergence          0.1000000E-03 e    :
          :  Broyden damping             0.4000000          :
          :  net charge                          0          :
          :  unpaired electrons                  0          :
          ...................................................

 iter      E             dE          RMSdq      gap      omega  full diag
   1    -30.3975908 -0.303976E+02  0.441E+00    3.06       0.0  T
   2    -30.4046804 -0.708964E-02  0.263E+00    3.20       1.0  T
   3    -30.3948589  0.982150E-02  0.909E-01    3.07       1.0  T
   4    -30.4069981 -0.121391E-01  0.312E-01    3.27       1.0  T
   5    -30.4077627 -0.764624E-03  0.124E-01    3.27       1.0  T
   6    -30.4077665 -0.379690E-05  0.411E-02    3.26       1.0  T
   7    -30.4077798 -0.133710E-04  0.139E-02    3.26       1.7  T
   8    -30.4077806 -0.778592E-06  0.470E-03    3.26       4.9  T
   9    -30.4077807 -0.364556E-07  0.193E-03    3.26      11.9  T
  10    -30.4077807 -0.696805E-08  0.565E-04    3.26      40.6  T
  11    -30.4077807 -0.749726E-09  0.245E-04    3.26      93.5  T

   *** convergence criteria satisfied after 11 iterations ***

         #    Occupation            Energy/Eh            Energy/eV
      -------------------------------------------------------------
         1        2.0000           -0.7325409             -19.9335
       ...           ...                  ...                  ...
        20        2.0000           -0.4726442             -12.8613
        21        2.0000           -0.4615937             -12.5606
        22        2.0000           -0.4521682             -12.3041
        23        2.0000           -0.4456669             -12.1272
        24        2.0000           -0.4350276             -11.8377
        25        2.0000           -0.4239307             -11.5357
        26        2.0000           -0.4136736             -11.2566 (HOMO)
        27                         -0.2938787              -7.9968 (LUMO)
        28                         -0.1779963              -4.8435
        29                         -0.0291634              -0.7936
        30                          0.0436827               1.1887
        31                          0.0711605               1.9364
       ...                                ...                  ...
        46                          0.5975023              16.2589
      -------------------------------------------------------------
                  HL-Gap            0.1197948 Eh            3.2598 eV
             Fermi-level           -0.3537762 Eh           -9.6267 eV

 SCC (total)                   0 d,  0 h,  0 min,  0.018 sec
 SCC setup                      ...        0 min,  0.000 sec (  1.516%)
 Dispersion                     ...        0 min,  0.000 sec (  1.060%)
 classical contributions        ...        0 min,  0.000 sec (  0.332%)
 integral evaluation            ...        0 min,  0.001 sec (  3.098%)
 iterations                     ...        0 min,  0.016 sec ( 85.438%)
 molecular gradient             ...        0 min,  0.001 sec (  7.701%)
 printout                       ...        0 min,  0.000 sec (  0.701%)

         :::::::::::::::::::::::::::::::::::::::::::::::::::::
         ::                     SUMMARY                     ::
         :::::::::::::::::::::::::::::::::::::::::::::::::::::
         :: total energy             -30.097978627041 Eh    ::
         :: gradient norm              0.120751551198 Eh/a0 ::
         :: HOMO-LUMO gap              3.259783341006 eV    ::
         ::.................................................::
         :: SCC energy               -30.407736509480 Eh    ::
         :: -> isotropic ES            0.071777403395 Eh    ::
         :: -> anisotropic ES          0.000952027526 Eh    ::
         :: -> anisotropic XC          0.006044889557 Eh    ::
         :: -> dispersion             -0.011805689380 Eh    ::
         :: repulsion energy           0.309757882440 Eh    ::
         :: add. restraining           0.000000000000 Eh    ::
         :: total charge               0.000000000000 e     ::
         :::::::::::::::::::::::::::::::::::::::::::::::::::::

      ----------------------------------------------------------- 
     |                   =====================                   |
     |                        A N C O P T                        |
     |                   =====================                   |
     |               Approximate Normal Coordinate               |
     |                Rational Function Optimizer                |
      ----------------------------------------------------------- 
      ----------------------------------------------------------- 
     |                   =====================                   |
     |                        A N C O P T                        |
     |                   =====================                   |
     |               Approximate Normal Coordinate               |
     |                Rational Function Optimizer                |
      ----------------------------------------------------------- 

          ...................................................
          :                      SETUP                      :
          :.................................................:
          :   optimization level            normal          :
          :   max. optcycles                   200          :
          :   ANC micro-cycles                  20          :
          :   degrees of freedom                51          :
          :.................................................:
          :   RF solver                   davidson          :
          :   write xtbopt.log                true          :
          :   linear?                        false          :
          :   energy convergence         0.5000000E-05 Eh   :
          :   grad. convergence          0.1000000E-02 Eh/α :
          :   maxmium RF displ.          1.0000000          :
          :   Hlow (freq-cutoff)         0.1000000E-01      :
          :   Hmax (freq-cutoff)         5.0000000          :
          :   S6 in model hess.         20.0000000          :
          ...................................................

generating ANC from exact Hessian ...
Using Lindh-Hessian (1995)
 Shifting diagonal of input Hessian by   8.935941063355360E-003
 Lowest  eigenvalues of input Hessian
    0.000000    0.000000    0.000000    0.000000    0.000000    0.000000
    0.010000    0.010914    0.011884    0.015173    0.018792    0.020927
    0.024971    0.026218    0.027360    0.034066    0.040605    0.046712
 Highest eigenvalues
    1.322174    1.473719    1.584506    1.772624    1.865334    2.183702
 

........................................................................
.............................. CYCLE    1 ..............................
........................................................................

 iter      E             dE          RMSdq      gap      omega  full diag
   1    -30.4077807 -0.304078E+02  0.766E-05    3.26       0.0  T
   2    -30.4077807 -0.946798E-11  0.474E-05    3.26     484.5  T
   3    -30.4077807 -0.611067E-12  0.231E-05    3.26     992.6  T
     SCC iter.                  ...        0 min,  0.003 sec
     gradient                   ...        0 min,  0.001 sec
 * total energy  :   -30.0979786 Eh     change       -0.1371916E-09 Eh
   gradient norm :     0.1207526 Eh/α   predicted     0.0000000E+00 (-100.00%)
   displ. norm   :     0.2633974 α      lambda       -0.1618248E-01
   maximum displ.:     0.1001686 α      in ANC's #14, #9, #15, ...

........................................................................
.............................. CYCLE    2 ..............................
........................................................................

 iter      E             dE          RMSdq      gap      omega  full diag
   1    -30.4337592 -0.304338E+02  0.301E-01    3.48       0.0  T
   2    -30.4339645 -0.205358E-03  0.189E-01    3.49       1.0  T
   3    -30.4339235  0.410350E-04  0.849E-02    3.50       1.0  T
   4    -30.4339799 -0.564236E-04  0.357E-02    3.50       1.0  T
   5    -30.4339965 -0.166021E-04  0.105E-02    3.49       2.2  T
   6    -30.4339975 -0.927714E-06  0.411E-03    3.49       5.6  T
   7    -30.4339975 -0.458519E-07  0.142E-03    3.49      16.2  T
   8    -30.4339975 -0.289140E-08  0.542E-04    3.49      42.3  T
   9    -30.4339975 -0.580414E-09  0.157E-04    3.49     146.5  T
     SCC iter.                  ...        0 min,  0.017 sec
     gradient                   ...        0 min,  0.006 sec
 * total energy  :   -30.1089840 Eh     change       -0.1100535E-01 Eh
   gradient norm :     0.0502331 Eh/α   predicted    -0.8656681E-02 ( -21.34%)
   displ. norm   :     0.2317029 α      lambda       -0.4593393E-02
   maximum displ.:     0.1254444 α      in ANC's #7, #9, #10, ...

........................................................................
.............................. CYCLE    3 ..............................
........................................................................

 iter      E             dE          RMSdq      gap      omega  full diag
   1    -30.4445551 -0.304446E+02  0.192E-01    3.63       0.0  T
   2    -30.4446399 -0.847506E-04  0.121E-01    3.64       1.0  T
   3    -30.4446240  0.159385E-04  0.547E-02    3.65       1.0  T
   4    -30.4446444 -0.204532E-04  0.235E-02    3.65       1.0  T
   5    -30.4446517 -0.727875E-05  0.677E-03    3.65       3.4  T
   6    -30.4446521 -0.407874E-06  0.233E-03    3.65       9.9  T
   7    -30.4446521 -0.120175E-07  0.728E-04    3.65      31.5  T
   8    -30.4446521 -0.750148E-09  0.305E-04    3.65      75.2  T
     SCC iter.                  ...        0 min,  0.007 sec
     gradient                   ...        0 min,  0.001 sec
 * total energy  :   -30.1115726 Eh     change       -0.2588578E-02 Eh
   gradient norm :     0.0147976 Eh/α   predicted    -0.2420954E-02 (  -6.48%)
   displ. norm   :     0.1368444 α      lambda       -0.6134997E-03
   maximum displ.:     0.1014012 α      in ANC's #7, #9, #10, ...

........................................................................
.............................. CYCLE    4 ..............................
........................................................................

 iter      E             dE          RMSdq      gap      omega  full diag
   1    -30.4437314 -0.304437E+02  0.717E-02    3.67       0.0  T
   2    -30.4437397 -0.830646E-05  0.427E-02    3.67       1.0  T
   3    -30.4437396  0.133695E-06  0.143E-02    3.67       1.6  T
   4    -30.4437398 -0.216113E-06  0.483E-03    3.67       4.7  T
   5    -30.4437401 -0.346086E-06  0.183E-03    3.67      12.5  T
   6    -30.4437402 -0.300014E-07  0.775E-04    3.67      29.6  T
   7    -30.4437402 -0.112447E-08  0.214E-04    3.67     107.1  T
     SCC iter.                  ...        0 min,  0.006 sec
     gradient                   ...        0 min,  0.001 sec
 * total energy  :   -30.1120048 Eh     change       -0.4322949E-03 Eh
   gradient norm :     0.0091984 Eh/α   predicted    -0.3125233E-03 ( -27.71%)
   displ. norm   :     0.2187317 α      lambda       -0.6012829E-03
   maximum displ.:     0.1620817 α      in ANC's #7, #9, #5, ...

........................................................................
.............................. CYCLE    5 ..............................
........................................................................

 iter      E             dE          RMSdq      gap      omega  full diag
   1    -30.4415147 -0.304415E+02  0.104E-01    3.69       0.0  T
   2    -30.4415306 -0.159597E-04  0.617E-02    3.69       1.0  T
   3    -30.4415307 -0.938159E-07  0.197E-02    3.69       1.2  T
   4    -30.4415312 -0.510845E-06  0.557E-03    3.69       4.1  T
   5    -30.4415316 -0.366618E-06  0.263E-03    3.69       8.7  T
   6    -30.4415316 -0.551997E-07  0.121E-03    3.69      19.0  T
   7    -30.4415316 -0.477622E-08  0.389E-04    3.69      58.9  T
   8    -30.4415316 -0.350482E-09  0.971E-05    3.69     236.3  T
     SCC iter.                  ...        0 min,  0.007 sec
     gradient                   ...        0 min,  0.001 sec
 * total energy  :   -30.1123341 Eh     change       -0.3292883E-03 Eh
   gradient norm :     0.0141946 Eh/α   predicted    -0.3150269E-03 (  -4.33%)
   displ. norm   :     0.1061418 α      lambda       -0.2797909E-03
   maximum displ.:     0.0619568 α      in ANC's #7, #5, #4, ...

........................................................................
.............................. CYCLE    6 ..............................
........................................................................

 iter      E             dE          RMSdq      gap      omega  full diag
   1    -30.4422085 -0.304422E+02  0.509E-02    3.69       0.0  T
   2    -30.4422096 -0.108062E-05  0.305E-02    3.69       1.0  T
   3    -30.4422096 -0.156941E-07  0.494E-03    3.69       4.6  T
   4    -30.4422097 -0.144796E-06  0.146E-03    3.69      15.7  T
   5    -30.4422097 -0.633382E-08  0.710E-04    3.69      32.3  T
   6    -30.4422097 -0.117316E-08  0.396E-04    3.69      58.0  T
     SCC iter.                  ...        0 min,  0.005 sec
     gradient                   ...        0 min,  0.002 sec
 * total energy  :   -30.1125568 Eh     change       -0.2226200E-03 Eh
   gradient norm :     0.0134162 Eh/α   predicted    -0.1414742E-03 ( -36.45%)
   displ. norm   :     0.2406328 α      lambda       -0.5940110E-03
   maximum displ.:     0.1189414 α      in ANC's #7, #5, #4, ...

........................................................................
.............................. CYCLE    7 ..............................
........................................................................

 iter      E             dE          RMSdq      gap      omega  full diag
   1    -30.4438309 -0.304438E+02  0.989E-02    3.69       0.0  T
   2    -30.4438339 -0.290942E-05  0.601E-02    3.68       1.0  T
   3    -30.4438337  0.182298E-06  0.877E-03    3.69       2.6  T
   4    -30.4438343 -0.652584E-06  0.423E-03    3.68       5.4  T
   5    -30.4438345 -0.160611E-06  0.208E-03    3.68      11.0  T
   6    -30.4438345 -0.262719E-07  0.663E-04    3.68      34.6  T
   7    -30.4438345 -0.686327E-09  0.220E-04    3.68     104.1  T
     SCC iter.                  ...        0 min,  0.006 sec
     gradient                   ...        0 min,  0.005 sec
 * total energy  :   -30.1129739 Eh     change       -0.4171845E-03 Eh
   gradient norm :     0.0110703 Eh/α   predicted    -0.3144024E-03 ( -24.64%)
   displ. norm   :     0.2811746 α      lambda       -0.4695366E-03
   maximum displ.:     0.1505157 α      in ANC's #7, #5, #1, ...

........................................................................
.............................. CYCLE    8 ..............................
........................................................................

 iter      E             dE          RMSdq      gap      omega  full diag
   1    -30.4425408 -0.304425E+02  0.114E-01    3.68       0.0  T
   2    -30.4425457 -0.490137E-05  0.690E-02    3.68       1.0  T
   3    -30.4425441  0.163796E-05  0.152E-02    3.68       1.5  T
   4    -30.4425465 -0.240443E-05  0.679E-03    3.68       3.4  T
   5    -30.4425470 -0.541398E-06  0.256E-03    3.68       8.9  T
   6    -30.4425470 -0.168114E-07  0.923E-04    3.68      24.9  T
   7    -30.4425470 -0.838622E-09  0.235E-04    3.68      97.5  T
     SCC iter.                  ...        0 min,  0.012 sec
     gradient                   ...        0 min,  0.002 sec
 * total energy  :   -30.1132381 Eh     change       -0.2641509E-03 Eh
   gradient norm :     0.0172721 Eh/α   predicted    -0.2533493E-03 (  -4.09%)
   displ. norm   :     0.2060278 α      lambda       -0.6867377E-03
   maximum displ.:     0.1169958 α      in ANC's #1, #6, #5, ...

........................................................................
.............................. CYCLE    9 ..............................
........................................................................

 iter      E             dE          RMSdq      gap      omega  full diag
   1    -30.4463120 -0.304463E+02  0.103E-01    3.67       0.0  T
   2    -30.4463204 -0.846302E-05  0.601E-02    3.67       1.0  T
   3    -30.4463166  0.381535E-05  0.221E-02    3.66       1.0  T
   4    -30.4463208 -0.416875E-05  0.868E-03    3.66       2.6  T
   5    -30.4463219 -0.111702E-05  0.245E-03    3.66       9.4  T
   6    -30.4463219 -0.241887E-07  0.123E-03    3.66      18.7  T
   7    -30.4463219 -0.265216E-08  0.409E-04    3.66      56.0  T
   8    -30.4463219 -0.328964E-09  0.110E-04    3.66     209.5  T
     SCC iter.                  ...        0 min,  0.013 sec
     gradient                   ...        0 min,  0.001 sec
 * total energy  :   -30.1134344 Eh     change       -0.1962794E-03 Eh
   gradient norm :     0.0123828 Eh/α   predicted    -0.3579562E-03 (  82.37%)
   displ. norm   :     0.2037304 α      lambda       -0.4936279E-03
   maximum displ.:     0.1187001 α      in ANC's #7, #1, #2, ...

........................................................................
.............................. CYCLE   10 ..............................
........................................................................

 iter      E             dE          RMSdq      gap      omega  full diag
   1    -30.4438984 -0.304439E+02  0.958E-02    3.67       0.0  T
   2    -30.4439022 -0.381678E-05  0.576E-02    3.68       1.0  T
   3    -30.4439030 -0.763900E-06  0.805E-03    3.68       2.8  T
   4    -30.4439031 -0.174130E-06  0.420E-03    3.68       5.5  T
   5    -30.4439032 -0.707820E-07  0.265E-03    3.68       8.6  T
   6    -30.4439033 -0.591169E-07  0.819E-04    3.68      28.0  T
   7    -30.4439033 -0.123389E-08  0.177E-04    3.68     129.6  T
     SCC iter.                  ...        0 min,  0.009 sec
     gradient                   ...        0 min,  0.004 sec
 * total energy  :   -30.1136208 Eh     change       -0.1864729E-03 Eh
   gradient norm :     0.0109774 Eh/α   predicted    -0.2570673E-03 (  37.86%)
   displ. norm   :     0.0908581 α      lambda       -0.1787022E-03
   maximum displ.:     0.0374036 α      in ANC's #4, #6, #5, ...

........................................................................
.............................. CYCLE   11 ..............................
........................................................................

 iter      E             dE          RMSdq      gap      omega  full diag
   1    -30.4455801 -0.304456E+02  0.420E-02    3.68       0.0  T
   2    -30.4455823 -0.222548E-05  0.249E-02    3.69       1.0  T
   3    -30.4455818  0.456765E-06  0.954E-03    3.69       2.4  T
   4    -30.4455823 -0.494591E-06  0.437E-03    3.69       5.3  T
   5    -30.4455826 -0.281811E-06  0.124E-03    3.69      18.5  T
   6    -30.4455826 -0.477605E-08  0.624E-04    3.69      36.8  T
   7    -30.4455826 -0.621746E-09  0.210E-04    3.69     109.1  T
     SCC iter.                  ...        0 min,  0.012 sec
     gradient                   ...        0 min,  0.003 sec
 * total energy  :   -30.1137146 Eh     change       -0.9380043E-04 Eh
   gradient norm :     0.0028969 Eh/α   predicted    -0.9009424E-04 (  -3.95%)
   displ. norm   :     0.0910747 α      lambda       -0.7608758E-04
   maximum displ.:     0.0618751 α      in ANC's #1, #7, #3, ...

........................................................................
.............................. CYCLE   12 ..............................
........................................................................

 iter      E             dE          RMSdq      gap      omega  full diag
   1    -30.4447303 -0.304447E+02  0.461E-02    3.69       0.0  T
   2    -30.4447308 -0.499620E-06  0.276E-02    3.69       1.0  T
   3    -30.4447308 -0.180138E-07  0.287E-03    3.69       8.0  T
   4    -30.4447308 -0.340135E-07  0.182E-03    3.69      12.6  T
   5    -30.4447308 -0.377121E-07  0.770E-04    3.69      29.8  T
   6    -30.4447308 -0.120693E-08  0.159E-04    3.69     144.0  T
     SCC iter.                  ...        0 min,  0.008 sec
     gradient                   ...        0 min,  0.001 sec
 * total energy  :   -30.1137641 Eh     change       -0.4941708E-04 Eh
   gradient norm :     0.0027304 Eh/α   predicted    -0.3836058E-04 ( -22.37%)
   displ. norm   :     0.1243238 α      lambda       -0.7950435E-04
   maximum displ.:     0.0882858 α      in ANC's #1, #3, #7, ...

........................................................................
.............................. CYCLE   13 ..............................
........................................................................

 iter      E             dE          RMSdq      gap      omega  full diag
   1    -30.4450972 -0.304451E+02  0.646E-02    3.69       0.0  T
   2    -30.4450977 -0.450257E-06  0.387E-02    3.69       1.0  T
   3    -30.4450978 -0.170795E-06  0.249E-03    3.69       9.2  T
   4    -30.4450978 -0.117005E-07  0.138E-03    3.69      16.6  T
   5    -30.4450978 -0.542453E-09  0.447E-04    3.69      51.3  T
   6    -30.4450978 -0.105458E-08  0.207E-04    3.69     110.9  T
     SCC iter.                  ...        0 min,  0.007 sec
     gradient                   ...        0 min,  0.002 sec
 * total energy  :   -30.1138123 Eh     change       -0.4823732E-04 Eh
   gradient norm :     0.0033718 Eh/α   predicted    -0.4036791E-04 ( -16.31%)
   displ. norm   :     0.0843369 α      lambda       -0.3501107E-04
   maximum displ.:     0.0634602 α      in ANC's #1, #3, #7, ...

........................................................................
.............................. CYCLE   14 ..............................
........................................................................

 iter      E             dE          RMSdq      gap      omega  full diag
   1    -30.4449211 -0.304449E+02  0.446E-02    3.69       0.0  T
   2    -30.4449213 -0.191978E-06  0.267E-02    3.69       1.0  T
   3    -30.4449214 -0.421328E-07  0.160E-03    3.69      14.3  T
   4    -30.4449214 -0.103855E-07  0.938E-04    3.69      24.5  T
   5    -30.4449214 -0.176376E-08  0.598E-04    3.69      38.4  T
     SCC iter.                  ...        0 min,  0.005 sec
     gradient                   ...        0 min,  0.001 sec
 * total energy  :   -30.1138310 Eh     change       -0.1872963E-04 Eh
   gradient norm :     0.0020973 Eh/α   predicted    -0.1763324E-04 (  -5.85%)
   displ. norm   :     0.0381587 α      lambda       -0.1614769E-04
   maximum displ.:     0.0279848 α      in ANC's #1, #3, #5, ...

........................................................................
.............................. CYCLE   15 ..............................
........................................................................

 iter      E             dE          RMSdq      gap      omega  full diag
   1    -30.4454099 -0.304454E+02  0.214E-02    3.69       0.0  T
   2    -30.4454101 -0.165139E-06  0.127E-02    3.69       1.8  T
   3    -30.4454101  0.416981E-07  0.265E-03    3.69       8.6  T
   4    -30.4454101 -0.589402E-07  0.115E-03    3.69      19.9  T
   5    -30.4454101 -0.155665E-07  0.450E-04    3.69      50.9  T
   6    -30.4454101 -0.502933E-09  0.142E-04    3.69     161.4  T
     SCC iter.                  ...        0 min,  0.005 sec
     gradient                   ...        0 min,  0.002 sec
 * total energy  :   -30.1138407 Eh     change       -0.9658128E-05 Eh
   gradient norm :     0.0012467 Eh/α   predicted    -0.8086654E-05 ( -16.27%)
   displ. norm   :     0.0453730 α      lambda       -0.7183396E-05
   maximum displ.:     0.0298777 α      in ANC's #1, #4, #3, ...

........................................................................
.............................. CYCLE   16 ..............................
........................................................................

 iter      E             dE          RMSdq      gap      omega  full diag
   1    -30.4456064 -0.304456E+02  0.228E-02    3.69       0.0  T
   2    -30.4456065 -0.113664E-06  0.135E-02    3.69       1.7  T
   3    -30.4456065  0.152465E-07  0.202E-03    3.69      11.4  T
   4    -30.4456065 -0.404092E-07  0.744E-04    3.69      30.8  T
   5    -30.4456065 -0.276413E-08  0.443E-04    3.69      51.8  T
     SCC iter.                  ...        0 min,  0.004 sec
     gradient                   ...        0 min,  0.001 sec
 * total energy  :   -30.1138479 Eh     change       -0.7197384E-05 Eh
   gradient norm :     0.0007974 Eh/α   predicted    -0.3599142E-05 ( -49.99%)
   displ. norm   :     0.0444498 α      lambda       -0.6198113E-05
   maximum displ.:     0.0223081 α      in ANC's #4, #5, #6, ...

........................................................................
.............................. CYCLE   17 ..............................
........................................................................

 iter      E             dE          RMSdq      gap      omega  full diag
   1    -30.4457965 -0.304458E+02  0.229E-02    3.69       0.0  T
   2    -30.4457966 -0.516974E-07  0.135E-02    3.69       1.7  T
   3    -30.4457966 -0.409190E-08  0.988E-04    3.69      23.2  T
   4    -30.4457966 -0.975651E-08  0.430E-04    3.69      53.3  T
     SCC iter.                  ...        0 min,  0.003 sec
     gradient                   ...        0 min,  0.001 sec
 * total energy  :   -30.1138540 Eh     change       -0.6104014E-05 Eh
   gradient norm :     0.0013557 Eh/α   predicted    -0.3103818E-05 ( -49.15%)
   displ. norm   :     0.0789740 α      lambda       -0.7467078E-05
   maximum displ.:     0.0435750 α      in ANC's #4, #1, #2, ...

........................................................................
.............................. CYCLE   18 ..............................
........................................................................

 iter      E             dE          RMSdq      gap      omega  full diag
   1    -30.4451560 -0.304452E+02  0.392E-02    3.69       0.0  T
   2    -30.4451562 -0.135884E-06  0.233E-02    3.69       1.0  T
   3    -30.4451561  0.108034E-06  0.355E-03    3.69       6.5  T
   4    -30.4451562 -0.181521E-06  0.124E-03    3.69      18.5  T
   5    -30.4451562 -0.592062E-08  0.639E-04    3.69      35.9  T
   6    -30.4451562 -0.802064E-09  0.154E-04    3.69     148.7  T
     SCC iter.                  ...        0 min,  0.005 sec
     gradient                   ...        0 min,  0.001 sec
 * total energy  :   -30.1138585 Eh     change       -0.4502781E-05 Eh
   gradient norm :     0.0015611 Eh/α   predicted    -0.3745857E-05 ( -16.81%)
   displ. norm   :     0.0383624 α      lambda       -0.5116045E-05
   maximum displ.:     0.0183378 α      in ANC's #5, #4, #2, ...

........................................................................
.............................. CYCLE   19 ..............................
........................................................................

 iter      E             dE          RMSdq      gap      omega  full diag
   1    -30.4454594 -0.304455E+02  0.193E-02    3.69       0.0  T
   2    -30.4454595 -0.600253E-07  0.113E-02    3.69       2.0  T
   3    -30.4454595  0.842200E-08  0.145E-03    3.69      15.8  T
   4    -30.4454595 -0.193835E-07  0.737E-04    3.69      31.1  T
   5    -30.4454595 -0.558249E-08  0.336E-04    3.69      68.2  T
     SCC iter.                  ...        0 min,  0.004 sec
     gradient                   ...        0 min,  0.001 sec
 * total energy  :   -30.1138637 Eh     change       -0.5191372E-05 Eh
   gradient norm :     0.0007484 Eh/α   predicted    -0.2564868E-05 ( -50.59%)
   displ. norm   :     0.0358262 α      lambda       -0.3530293E-05
   maximum displ.:     0.0209868 α      in ANC's #2, #5, #4, ...

........................................................................
.............................. CYCLE   20 ..............................
........................................................................

 iter      E             dE          RMSdq      gap      omega  full diag
   1    -30.4455301 -0.304455E+02  0.172E-02    3.69       0.0  T
   2    -30.4455302 -0.335474E-07  0.101E-02    3.69       2.3  T
   3    -30.4455302 -0.319671E-08  0.110E-03    3.69      20.9  T
   4    -30.4455302 -0.104382E-07  0.609E-04    3.69      37.7  T
   5    -30.4455302 -0.207959E-08  0.331E-04    3.69      69.4  T
     SCC iter.                  ...        0 min,  0.004 sec
     gradient                   ...        0 min,  0.001 sec
 * total energy  :   -30.1138673 Eh     change       -0.3574298E-05 Eh
   gradient norm :     0.0005547 Eh/α   predicted    -0.1770778E-05 ( -50.46%)
   displ. norm   :     0.0442475 α      lambda       -0.2154211E-05
   maximum displ.:     0.0312818 α      in ANC's #2, #4, #8, ...

   *** GEOMETRY OPTIMIZATION CONVERGED AFTER 20 ITERATIONS ***

------------------------------------------------------------------------
 total energy gain   :        -0.0158886 Eh       -9.9703 kcal/mol
 total RMSD          :         0.3854393 a0        0.2040 Å
 total power (kW/mol):        -2.0857797 (step) -180.9866 (real)
------------------------------------------------------------------------

 ANCopt (total)                0 d,  0 h,  0 min,  0.231 sec
 optimizer setup                ...        0 min,  0.000 sec (  0.054%)
 model hessian                  ...        0 min,  0.005 sec (  2.193%)
 ANC generation                 ...        0 min,  0.001 sec (  0.324%)
 coordinate transformation      ...        0 min,  0.000 sec (  0.065%)
 single point calculation       ...        0 min,  0.208 sec ( 90.092%)
 optimization log               ...        0 min,  0.004 sec (  1.677%)
 hessian update                 ...        0 min,  0.010 sec (  4.404%)
 rational function              ...        0 min,  0.002 sec (  0.759%)

================
 final structure:
================
19
 xtb: 6.7.1 (edcfbbe)
C           -2.02845516096947       -0.34936872101443        1.10380532878943
C           -1.73862469516861       -0.49262170508540       -0.38478275094057
O           -2.93794515367879       -0.24964444860870       -1.08244517820567
C           -0.64606237238576        0.49104271175833       -0.82640143461467
O            0.57993498301896        0.09660630240906       -0.22535321539869
C            1.63772403809468        0.88390164129449       -0.47266875519237
O            1.58179404867679        1.86573963525234       -1.17129979332946
C            2.87010545124306        0.41799003033709        0.19947984204414
C            2.93497691156569       -0.66453528903894        0.96020876287933
H           -1.11371979641019       -0.48983722351291        1.67150795195191
H           -2.43107575013165        0.64028382871896        1.30054962434090
H           -2.76332774643832       -1.08901639912256        1.40746332495816
H           -1.37682562493318       -1.51349148202862       -0.59070579676136
H           -2.78894472041205       -0.34167610105620       -2.02946106446487
H           -0.53142117707597        0.48465938657279       -1.91865356523663
H           -0.89749580214056        1.51275108676024       -0.52022897229452
H            3.72908328210394        1.04693417590167        0.01462497383818
H            3.85286744206903       -0.97016133967973        1.43340957942697
H            2.06741184297253       -1.27955708985752        1.13095213820959
 
 Bond Distances (Angstroems)
 ---------------------------
C1-C2=1.5233         C1-H10=1.0857        C1-H11=1.0864        C1-H12=1.0860        C2-C1=1.5233         C2-O3=1.4086         
C2-C4=1.5350         C2-H13=1.1025        O3-C2=1.4086         O3-H14=0.9631        C4-C2=1.5350         C4-O5=1.4212         
C4-H15=1.0983        C4-H16=1.0958        O5-C4=1.4212         O5-C6=1.3416         C6-O5=1.3416         C6-O7=1.2063         
C6-C8=1.4791         O7-C6=1.2063         C8-C6=1.4791         C8-C9=1.3247         C8-H17=1.0805        C9-C8=1.3247         
C9-H18=1.0770        C9-H19=1.0771        H10-C1=1.0857        H11-C1=1.0864        H12-C1=1.0860        H13-C2=1.1025        
H14-O3=0.9631        H15-C4=1.0983        H16-C4=1.0958        H17-C8=1.0805        H18-C9=1.0770        H19-C9=1.0771        
 C  H  Rav=1.0877 sigma=0.0087  Rmin=1.0770  Rmax=1.1025     9
 C  C  Rav=1.4655 sigma=0.0839  Rmin=1.3247  Rmax=1.5350     4
 O  H  Rav=0.9631 sigma=0.0000  Rmin=0.9631  Rmax=0.9631     1
 O  C  Rav=1.3444 sigma=0.0853  Rmin=1.2063  Rmax=1.4212     4
 
 selected bond angles (degree)
 --------------------
H10-C1-C2=109.79               H11-C1-C2=109.46               H11-C1-H10=109.60              H12-C1-C2=109.75               
H12-C1-H10=109.62              H12-C1-H11=108.60              O3-C2-C1=107.81                C4-C2-C1=110.87                
C4-C2-O3=110.67                H13-C2-C1=109.39               H13-C2-O3=110.28               H13-C2-C4=107.82               
H14-O3-C2=109.80               O5-C4-C2=108.33                H15-C4-C2=110.90               H15-C4-O5=109.20               
H16-C4-C2=110.72               H16-C4-O5=109.79               H16-C4-H15=107.89              C6-O5-C4=116.06                
O7-C6-O5=123.22                C8-C6-O5=112.85                C8-C6-O7=123.93                C9-C8-C6=124.00                
H17-C8-C6=113.66               H17-C8-C9=122.34               H18-C9-C8=121.73               H19-C9-C8=121.21               
H19-C9-H18=117.05              
 
 selected dihedral angles (degree)
 ---------------------------------
O3-C2-C1-H10=182.35           O3-C2-C1-H11=302.69           O3-C2-C1-H12= 61.79           C4-C2-C1-H10=303.63           
C4-C2-C1-H11= 63.97           C4-C2-C1-H12=183.08           H13-C2-C1-H10= 62.41          H13-C2-C1-H11=182.76          
H13-C2-C1-H12=301.86          H14-O3-C2-C1=180.56           H14-O3-C2-C4= 59.15           H14-O3-C2-H13=299.93          
O5-C4-C2-C1= 67.80            O5-C4-C2-O3=187.38            O5-C4-C2-H13=308.08           H15-C4-C2-C1=187.63           
H15-C4-C2-O3=307.21           H15-C4-C2-H13= 67.90          H16-C4-C2-C1=307.37           H16-C4-C2-O3= 66.95           
H16-C4-C2-H13=187.64          C6-O5-C4-C2=182.23            C6-O5-C4-H15= 61.35           C6-O5-C4-H16=303.25           
O7-C6-O5-C4=359.24            C8-C6-O5-C4=179.29            C9-C8-C6-O5=  0.38            C9-C8-C6-O7=180.44            
H17-C8-C6-O5=180.41           H17-C8-C6-O7=  0.46           H18-C9-C8-C6=180.05           H18-C9-C8-H17=  0.02          
H19-C9-C8-C6=  0.13           H19-C9-C8-H17=180.11          
           -------------------------------------------------
          |                Final Singlepoint                |
           -------------------------------------------------

          ...................................................
          :                      SETUP                      :
          :.................................................:
          :  # basis functions                  46          :
          :  # atomic orbitals                  46          :
          :  # shells                           28          :
          :  # electrons                        52          :
          :  max. iterations                   250          :
          :  Hamiltonian                  GFN2-xTB          :
          :  restarted?                      false          :
          :  GBSA solvation                  false          :
          :  PC potential                    false          :
          :  electronic temp.          300.0000000     K    :
          :  accuracy                    1.0000000          :
          :  -> integral cutoff          0.2500000E+02      :
          :  -> integral neglect         0.1000000E-07      :
          :  -> SCF convergence          0.1000000E-05 Eh   :
          :  -> wf. convergence          0.1000000E-03 e    :
          :  Broyden damping             0.4000000          :
          :  net charge                          0          :
          :  unpaired electrons                  0          :
          ...................................................

 iter      E             dE          RMSdq      gap      omega  full diag
   1    -30.4455302 -0.304455E+02  0.791E-05    3.69       0.0  T
   2    -30.4455302 -0.212239E-10  0.490E-05    3.69     468.0  T
   3    -30.4455302 -0.712319E-11  0.342E-05    3.69     671.1  T

   *** convergence criteria satisfied after 3 iterations ***

         #    Occupation            Energy/Eh            Energy/eV
      -------------------------------------------------------------
         1        2.0000           -0.7479083             -20.3516
       ...           ...                  ...                  ...
        20        2.0000           -0.4698188             -12.7844
        21        2.0000           -0.4688291             -12.7575
        22        2.0000           -0.4616894             -12.5632
        23        2.0000           -0.4478034             -12.1853
        24        2.0000           -0.4430519             -12.0561
        25        2.0000           -0.4243969             -11.5484
        26        2.0000           -0.4183229             -11.3831 (HOMO)
        27                         -0.2827348              -7.6936 (LUMO)
        28                         -0.1707159              -4.6454
        29                         -0.0152206              -0.4142
        30                          0.0591109               1.6085
        31                          0.0746135               2.0303
       ...                                ...                  ...
        46                          0.6960087              18.9394
      -------------------------------------------------------------
                  HL-Gap            0.1355881 Eh            3.6895 eV
             Fermi-level           -0.3505289 Eh           -9.5384 eV

 SCC (total)                   0 d,  0 h,  0 min,  0.005 sec
 SCC setup                      ...        0 min,  0.000 sec (  1.558%)
 Dispersion                     ...        0 min,  0.000 sec (  1.728%)
 classical contributions        ...        0 min,  0.000 sec (  6.301%)
 integral evaluation            ...        0 min,  0.000 sec (  7.627%)
 iterations                     ...        0 min,  0.002 sec ( 52.286%)
 molecular gradient             ...        0 min,  0.001 sec ( 27.736%)
 printout                       ...        0 min,  0.000 sec (  2.296%)

         :::::::::::::::::::::::::::::::::::::::::::::::::::::
         ::                     SUMMARY                     ::
         :::::::::::::::::::::::::::::::::::::::::::::::::::::
         :: total energy             -30.113867258277 Eh    ::
         :: gradient norm              0.000555448660 Eh/a0 ::
         :: HOMO-LUMO gap              3.689538760858 eV    ::
         ::.................................................::
         :: SCC energy               -30.445484057003 Eh    ::
         :: -> isotropic ES            0.068733009255 Eh    ::
         :: -> anisotropic ES          0.001698845300 Eh    ::
         :: -> anisotropic XC          0.005542979541 Eh    ::
         :: -> dispersion             -0.011811605573 Eh    ::
         :: repulsion energy           0.331616798726 Eh    ::
         :: add. restraining           0.000000000000 Eh    ::
         :: total charge              -0.000000000000 e     ::
         :::::::::::::::::::::::::::::::::::::::::::::::::::::

           -------------------------------------------------
          |                Property Printout                |
           -------------------------------------------------

    * Orbital Energies and Occupations

         #    Occupation            Energy/Eh            Energy/eV
      -------------------------------------------------------------
         1        2.0000           -0.7479083             -20.3516
       ...           ...                  ...                  ...
        14        2.0000           -0.5320585             -14.4780
        15        2.0000           -0.5245038             -14.2725
        16        2.0000           -0.5101708             -13.8825
        17        2.0000           -0.5092760             -13.8581
        18        2.0000           -0.4886109             -13.2958
        19        2.0000           -0.4736824             -12.8896
        20        2.0000           -0.4698188             -12.7844
        21        2.0000           -0.4688291             -12.7575
        22        2.0000           -0.4616894             -12.5632
        23        2.0000           -0.4478034             -12.1853
        24        2.0000           -0.4430519             -12.0561
        25        2.0000           -0.4243969             -11.5484
        26        2.0000           -0.4183229             -11.3831 (HOMO)
        27                         -0.2827348              -7.6936 (LUMO)
        28                         -0.1707159              -4.6454
        29                         -0.0152206              -0.4142
        30                          0.0591109               1.6085
        31                          0.0746135               2.0303
        32                          0.1050431               2.8584
        33                          0.1143241               3.1109
        34                          0.1227211               3.3394
        35                          0.1281696               3.4877
        36                          0.1364333               3.7125
        37                          0.1789366               4.8691
       ...                                ...                  ...
        46                          0.6960087              18.9394
      -------------------------------------------------------------
                  HL-Gap            0.1355881 Eh            3.6895 eV
             Fermi-level           -0.3505289 Eh           -9.5384 eV

     #   Z          covCN         q      C6AA      α(0)
     1   6 C        3.754    -0.116    22.786     6.807
     2   6 C        3.723     0.118    18.758     6.185
     3   8 O        1.656    -0.436    21.570     6.270
     4   6 C        3.707     0.069    19.559     6.322
     5   8 O        1.705    -0.267    18.429     5.796
     6   6 C        2.726     0.356    20.957     7.494
     7   8 O        0.857    -0.408    21.846     6.266
     8   6 C        2.887    -0.057    29.423     8.893
     9   6 C        2.838    -0.062    29.536     8.906
    10   1 H        0.925     0.052     2.291     2.367
    11   1 H        0.925     0.060     2.197     2.318
    12   1 H        0.925     0.060     2.199     2.319
    13   1 H        0.923     0.027     2.624     2.533
    14   1 H        0.805     0.289     0.756     1.366
    15   1 H        0.923     0.045     2.379     2.412
    16   1 H        0.924     0.062     2.176     2.307
    17   1 H        0.926     0.073     2.050     2.239
    18   1 H        0.926     0.065     2.147     2.291
    19   1 H        0.926     0.071     2.074     2.252

 Mol. C6AA /au·bohr⁶  :       3217.692913
 Mol. C8AA /au·bohr⁸  :      70724.938513
 Mol. α(0) /au        :         85.342768


Wiberg/Mayer (AO) data.
largest (>0.10) Wiberg bond orders for each atom

 ---------------------------------------------------------------------------
     #   Z sym  total        # sym  WBO       # sym  WBO       # sym  WBO
 ---------------------------------------------------------------------------
     1   6 C    3.991 --     2 C    1.006    12 H    0.984    11 H    0.984
                            10 H    0.984
     2   6 C    3.956 --     1 C    1.006     3 O    0.994     4 C    0.978
                            13 H    0.960
     3   8 O    1.964 --     2 C    0.994    14 H    0.900
     4   6 C    3.927 --     2 C    0.978    15 H    0.965    16 H    0.965
                             5 O    0.948
     5   8 O    2.300 --     6 C    1.115     4 C    0.948     7 O    0.171
     6   6 C    3.919 --     7 O    1.730     5 O    1.115     8 C    1.013
     7   8 O    2.035 --     6 C    1.730     5 O    0.171
     8   6 C    3.987 --     9 C    1.934     6 C    1.013    17 H    0.963
     9   6 C    3.984 --     8 C    1.934    18 H    0.975    19 H    0.971
    10   1 H    0.997 --     1 C    0.984
    11   1 H    0.996 --     1 C    0.984
    12   1 H    0.996 --     1 C    0.984
    13   1 H    0.999 --     2 C    0.960
    14   1 H    0.917 --     3 O    0.900
    15   1 H    0.998 --     4 C    0.965
    16   1 H    0.996 --     4 C    0.965
    17   1 H    0.994 --     8 C    0.963
    18   1 H    0.996 --     9 C    0.975
    19   1 H    0.995 --     9 C    0.971
 ---------------------------------------------------------------------------

Topologies differ in total number of bonds
Writing topology from bond orders to xtbtopo.mol

molecular dipole:
                 x           y           z       tot (Debye)
 q only:        0.152      -0.913       0.460
   full:        0.343      -1.009       0.286       2.804
molecular quadrupole (traceless):
                xx          xy          yy          xz          yz          zz
 q only:        1.286      -4.109      -4.378       5.533       3.014       3.092
  q+dip:       -1.539      -4.282      -3.012       6.310       3.912       4.551
   full:       -1.430      -4.600      -3.995       6.305       4.895       5.425

           -------------------------------------------------
          |                Geometry Summary                 |
           -------------------------------------------------

      molecular mass/u    :      130.1420377
   center of mass at/Å    :        0.1667268       0.2215057      -0.2365695
  moments of inertia/u·Å² :        0.1600251E+03   0.6054227E+03   0.7160883E+03
rotational constants/cm⁻¹ :        0.1053437E+00   0.2784440E-01   0.2354128E-01

 * 17 selected distances

     #   Z          #   Z                                           value/Å
     1   6 C        2   6 C                                       1.5232918
     2   6 C        3   8 O                                       1.4085953
     2   6 C        4   6 C                                       1.5350295 (max)
     4   6 C        5   8 O                                       1.4212350
     5   8 O        6   6 C                                       1.3416098
     6   6 C        7   8 O                                       1.2063248
     8   6 C        9   6 C                                       1.3246804
     1   6 C       10   1 H                                       1.0857065
     1   6 C       11   1 H                                       1.0863812
     1   6 C       12   1 H                                       1.0859672
     2   6 C       13   1 H                                       1.1024873
     3   8 O       14   1 H                                       0.9630733 (min)
     4   6 C       15   1 H                                       1.0982706
     4   6 C       16   1 H                                       1.0958324
     8   6 C       17   1 H                                       1.0805486
     9   6 C       18   1 H                                       1.0769631
     9   6 C       19   1 H                                       1.0770675

 * 4 distinct bonds (by element types)

   Z      Z             #   av. dist./Å        max./Å        min./Å
   1 H    6 C           9     1.0876916     1.1024873     1.0769631
   6 C    6 C           3     1.4610006     1.5350295     1.3246804
   1 H    8 O           1     0.9630733     0.9630733     0.9630733
   6 C    8 O           4     1.3444412     1.4212350     1.2063248


optimized geometry written to: xtbopt.xyz


           -------------------------------------------------
          | TOTAL ENERGY              -30.113867258277 Eh   |
          | GRADIENT NORM               0.000555448660 Eh/α |
          | HOMO-LUMO GAP               3.689538760858 eV   |
           -------------------------------------------------

------------------------------------------------------------------------
 * finished run on 2025/12/01 at 14:17:41.777     
------------------------------------------------------------------------
 total:
 * wall-time:     0 d,  0 h,  0 min,  0.272 sec
 *  cpu-time:     0 d,  0 h,  0 min,  5.915 sec
 * ratio c/w:    21.784 speedup
 SCF:
 * wall-time:     0 d,  0 h,  0 min,  0.019 sec
 *  cpu-time:     0 d,  0 h,  0 min,  0.416 sec
 * ratio c/w:    22.457 speedup
 ANC optimizer:
 * wall-time:     0 d,  0 h,  0 min,  0.236 sec
 *  cpu-time:     0 d,  0 h,  0 min,  5.302 sec
 * ratio c/w:    22.452 speedup

normal termination of xtb
