      -----------------------------------------------------------      
     |                   =====================                   |     
     |                           x T B                           |     
     |                   =====================                   |     
     |                         S. Grimme                         |     
     |          Mulliken Center for Theoretical Chemistry        |     
     |                    University of Bonn                     |     
      -----------------------------------------------------------      

   * xtb version 6.7.1 (edcfbbe) compiled by 'albert@albert-system' on 2024-07-22

   xtb is free software: you can redistribute it and/or modify it under
   the terms of the GNU Lesser General Public License as published by
   the Free Software Foundation, either version 3 of the License, or
   (at your option) any later version.
   
   xtb is distributed in the hope that it will be useful,
   but WITHOUT ANY WARRANTY; without even the implied warranty of
   MERCHANTABILITY or FITNESS FOR A PARTICULAR PURPOSE.  See the
   GNU Lesser General Public License for more details.
   
   Cite this work as:
   * C. Bannwarth, E. Caldeweyher, S. Ehlert, A. Hansen, P. Pracht,
     J. Seibert, S. Spicher, S. Grimme, WIREs Comput. Mol. Sci., 2020, 11,
     e01493. DOI: 10.1002/wcms.1493
   
   for GFN2-xTB:
   * C. Bannwarth, S. Ehlert and S. Grimme., J. Chem. Theory Comput., 2019,
     15, 1652-1671. DOI: 10.1021/acs.jctc.8b01176
   for GFN1-xTB:
   * S. Grimme, C. Bannwarth, P. Shushkov, J. Chem. Theory Comput., 2017,
     13, 1989-2009. DOI: 10.1021/acs.jctc.7b00118
   for GFN0-xTB:
   * P. Pracht, E. Caldeweyher, S. Ehlert, S. Grimme, ChemRxiv, 2019, preprint.
     DOI: 10.26434/chemrxiv.8326202.v1
   for GFN-FF:
   * S. Spicher and S. Grimme, Angew. Chem. Int. Ed., 2020, 59, 15665-15673.
     DOI: 10.1002/anie.202004239
   
   for ALPB and GBSA implicit solvation:
   * S. Ehlert, M. Stahn, S. Spicher, S. Grimme, J. Chem. Theory Comput.,
     2021, 17, 4250-4261. DOI: 10.1021/acs.jctc.1c00471
   
   for ddCOSMO and CPCM-X implicit solvation:
   * M. Stahn, S. Ehlert, S. Grimme, J. Phys. Chem. A,
     2023, XX, XXXX-XXXX. DOI: 10.1021/acs.jpca.3c04382
   
   for DFT-D4:
   * E. Caldeweyher, C. Bannwarth and S. Grimme, J. Chem. Phys., 2017,
     147, 034112. DOI: 10.1063/1.4993215
   * E. Caldeweyher, S. Ehlert, A. Hansen, H. Neugebauer, S. Spicher,
     C. Bannwarth and S. Grimme, J. Chem. Phys., 2019, 150, 154122.
     DOI: 10.1063/1.5090222
   * E. Caldeweyher, J.-M. Mewes, S. Ehlert and S. Grimme, Phys. Chem. Chem. Phys.
     2020, 22, 8499-8512. DOI: 10.1039/D0CP00502A
   
   for sTDA-xTB:
   * S. Grimme and C. Bannwarth, J. Chem. Phys., 2016, 145, 054103.
     DOI: 10.1063/1.4959605
   
   in the mass-spec context:
   * V. Asgeirsson, C. Bauer and S. Grimme, Chem. Sci., 2017, 8, 4879.
     DOI: 10.1039/c7sc00601b
   * J. Koopman and S. Grimme, ACS Omega 2019, 4, 12, 15120-15133.
     DOI: 10.1021/acsomega.9b02011
   
   for metadynamics refer to:
   * S. Grimme, J. Chem. Theory Comput., 2019, 155, 2847-2862
     DOI: 10.1021/acs.jctc.9b00143
   
   for SPH calculations refer to:
   * S. Spicher and S. Grimme, J. Chem. Theory Comput., 2021, 17, 1701-1714
     DOI: 10.1021/acs.jctc.0c01306
   
   for ONIOM refer to:
   * C. Plett, A. Katbashev, S. Ehlert, S. Grimme, M. Bursch,
     Phys. Chem. Chem. Phys., 2023, 25, 17860-17868. DOI: 10.1039/D3CP02178E
   
   for DIPRO refer to:
   * J. Kohn, N. Gildemeister, S. Grimme, D. Fazzi, A. Hansen,
     J. Chem. Phys., 2023, just accepted.
   
   for PTB refer to:
   * S. Grimme, M. Mueller, A. Hansen, J. Chem. Phys., 2023, 158, 124111.
     DOI: 10.1063/5.0137838
   
   with help from (in alphabetical order)
   P. Atkinson, C. Bannwarth, F. Bohle, G. Brandenburg, E. Caldeweyher
   M. Checinski, S. Dohm, S. Ehlert, S. Ehrlich, I. Gerasimov, C. Hölzer
   A. Katbashev, J. Kohn, J. Koopman, C. Lavigne, S. Lehtola, F. März, M. Müller,
   F. Musil, H. Neugebauer, J. Pisarek, C. Plett, P. Pracht, F. Pultar,
   J. Seibert, P. Shushkov, S. Spicher, M. Stahn, M. Steiner, T. Strunk,
   J. Stückrath, T. Rose, and J. Unsleber
   
 * started run on 2025/12/01 at 14:17:43.366     
   ID    Z sym.   atoms
    1    8 O      1, 4, 13, 15, 23
    2    6 C      2, 3, 5-12, 14, 16-22, 24, 25
    3    1 H      26-47

           -------------------------------------------------
          |                Calculation Setup                |
           -------------------------------------------------

          program call               : xtb pipeline_data/3_conformer_xyz/acrylates/rdkit/IWBDNDKRBBFYKG-JLHYYAGUSA-N_conf132.xyz --opt --gfn 2-xTB --iterations 250
          coordinate file            : pipeline_data/3_conformer_xyz/acrylates/rdkit/IWBDNDKRBBFYKG-JLHYYAGUSA-N_conf132.xyz
          omp threads                :                    24

########################################################################
[WARNING] Please study the warnings concerning your input carefully
-1- readin_getIntValue: could not parse '2-xTB'
########################################################################

           -------------------------------------------------
          |                 G F N 2 - x T B                 |
           -------------------------------------------------

        Reference                      10.1021/acs.jctc.8b01176
      * Hamiltonian:
        H0-scaling (s, p, d)           1.850000    2.230000    2.230000
        zeta-weighting                 0.500000
      * Dispersion:
        s8                             2.700000
        a1                             0.520000
        a2                             5.000000
        s9                             5.000000
      * Repulsion:
        kExp                           1.500000    1.000000
        rExp                           1.000000
      * Coulomb:
        alpha                          2.000000
        third order                    shell-resolved
        anisotropic                    true
        a3                             3.000000
        a5                             4.000000
        cn-shift                       1.200000
        cn-exp                         4.000000
        max-rad                        5.000000

q/qsh data taken from xtbrestart
CAMM data taken from xtbrestart

          ...................................................
          :                      SETUP                      :
          :.................................................:
          :  # basis functions                 122          :
          :  # atomic orbitals                 122          :
          :  # shells                           72          :
          :  # electrons                       132          :
          :  max. iterations                   250          :
          :  Hamiltonian                  GFN2-xTB          :
          :  restarted?                       true          :
          :  GBSA solvation                  false          :
          :  PC potential                    false          :
          :  electronic temp.          300.0000000     K    :
          :  accuracy                    1.0000000          :
          :  -> integral cutoff          0.2500000E+02      :
          :  -> integral neglect         0.1000000E-07      :
          :  -> SCF convergence          0.1000000E-05 Eh   :
          :  -> wf. convergence          0.1000000E-03 e    :
          :  Broyden damping             0.4000000          :
          :  net charge                          0          :
          :  unpaired electrons                  0          :
          ...................................................

 iter      E             dE          RMSdq      gap      omega  full diag
   1    -75.2746525 -0.752747E+02  0.302E+00    2.23       0.0  T
   2    -75.2865941 -0.119416E-01  0.177E+00    2.29       1.0  T
   3    -75.2863221  0.272010E-03  0.348E-01    2.25       1.0  T
   4    -75.2888441 -0.252204E-02  0.146E-01    2.27       1.0  T
   5    -75.2891189 -0.274783E-03  0.732E-02    2.27       1.0  T
   6    -75.2891925 -0.736296E-04  0.360E-02    2.26       1.0  T
   7    -75.2892184 -0.259095E-04  0.146E-02    2.27       1.0  T
   8    -75.2892214 -0.298570E-05  0.408E-03    2.26       3.6  T
   9    -75.2892216 -0.187273E-06  0.170E-03    2.26       8.6  T
  10    -75.2892216 -0.232710E-07  0.894E-04    2.26      16.3  T
  11    -75.2892216 -0.702467E-08  0.324E-04    2.26      45.0  T

   *** convergence criteria satisfied after 11 iterations ***

         #    Occupation            Energy/Eh            Energy/eV
      -------------------------------------------------------------
         1        2.0000           -0.7202840             -19.5999
       ...           ...                  ...                  ...
        60        2.0000           -0.4201068             -11.4317
        61        2.0000           -0.4195937             -11.4177
        62        2.0000           -0.4106148             -11.1734
        63        2.0000           -0.4092233             -11.1355
        64        2.0000           -0.3998263             -10.8798
        65        2.0000           -0.3897712             -10.6062
        66        2.0000           -0.3824864             -10.4080 (HOMO)
        67                         -0.2992699              -8.1435 (LUMO)
        68                         -0.2392080              -6.5092
        69                         -0.2332679              -6.3475
        70                         -0.2266722              -6.1681
        71                         -0.2220862              -6.0433
       ...                                ...                  ...
       122                          0.7252895              19.7361
      -------------------------------------------------------------
                  HL-Gap            0.0832165 Eh            2.2644 eV
             Fermi-level           -0.3408781 Eh           -9.2758 eV

 SCC (total)                   0 d,  0 h,  0 min,  0.069 sec
 SCC setup                      ...        0 min,  0.001 sec (  0.768%)
 Dispersion                     ...        0 min,  0.001 sec (  1.825%)
 classical contributions        ...        0 min,  0.000 sec (  0.574%)
 integral evaluation            ...        0 min,  0.004 sec (  5.343%)
 iterations                     ...        0 min,  0.058 sec ( 83.843%)
 molecular gradient             ...        0 min,  0.005 sec (  6.933%)
 printout                       ...        0 min,  0.000 sec (  0.649%)

         :::::::::::::::::::::::::::::::::::::::::::::::::::::
         ::                     SUMMARY                     ::
         :::::::::::::::::::::::::::::::::::::::::::::::::::::
         :: total energy             -74.274794019724 Eh    ::
         :: gradient norm              0.177034362039 Eh/a0 ::
         :: HOMO-LUMO gap              2.264434990918 eV    ::
         ::.................................................::
         :: SCC energy               -75.288978421438 Eh    ::
         :: -> isotropic ES            0.106075843047 Eh    ::
         :: -> anisotropic ES          0.005938917141 Eh    ::
         :: -> anisotropic XC          0.018371736398 Eh    ::
         :: -> dispersion             -0.048033366000 Eh    ::
         :: repulsion energy           1.014184401714 Eh    ::
         :: add. restraining           0.000000000000 Eh    ::
         :: total charge              -0.000000000000 e     ::
         :::::::::::::::::::::::::::::::::::::::::::::::::::::

      ----------------------------------------------------------- 
     |                   =====================                   |
     |                        A N C O P T                        |
     |                   =====================                   |
     |               Approximate Normal Coordinate               |
     |                Rational Function Optimizer                |
      ----------------------------------------------------------- 
      ----------------------------------------------------------- 
     |                   =====================                   |
     |                        A N C O P T                        |
     |                   =====================                   |
     |               Approximate Normal Coordinate               |
     |                Rational Function Optimizer                |
      ----------------------------------------------------------- 

          ...................................................
          :                      SETUP                      :
          :.................................................:
          :   optimization level            normal          :
          :   max. optcycles                   200          :
          :   ANC micro-cycles                  20          :
          :   degrees of freedom               135          :
          :.................................................:
          :   RF solver                   davidson          :
          :   write xtbopt.log                true          :
          :   linear?                        false          :
          :   energy convergence         0.5000000E-05 Eh   :
          :   grad. convergence          0.1000000E-02 Eh/α :
          :   maxmium RF displ.          1.0000000          :
          :   Hlow (freq-cutoff)         0.1000000E-01      :
          :   Hmax (freq-cutoff)         5.0000000          :
          :   S6 in model hess.         20.0000000          :
          ...................................................

generating ANC from exact Hessian ...
Using Lindh-Hessian (1995)
 Shifting diagonal of input Hessian by   9.901617458337604E-003
 Lowest  eigenvalues of input Hessian
    0.000000    0.000000    0.000000    0.000000    0.000000    0.000000
    0.010000    0.010310    0.010488    0.010627    0.011384    0.011421
    0.011715    0.012545    0.012773    0.013274    0.014177    0.015269
 Highest eigenvalues
    1.986939    2.014851    2.053591    2.056415    2.122269    2.202036
 

........................................................................
.............................. CYCLE    1 ..............................
........................................................................

 iter      E             dE          RMSdq      gap      omega  full diag
   1    -75.2892216 -0.752892E+02  0.140E-04    2.26       0.0  T
   2    -75.2892216 -0.153094E-09  0.912E-05    2.26     159.9  T
   3    -75.2892216 -0.710116E-10  0.596E-05    2.26     244.6  T
     SCC iter.                  ...        0 min,  0.010 sec
     gradient                   ...        0 min,  0.005 sec
 * total energy  :   -74.2747940 Eh     change       -0.1154788E-08 Eh
   gradient norm :     0.1770339 Eh/α   predicted     0.0000000E+00 (-100.00%)
   displ. norm   :     0.3802965 α      lambda       -0.3550260E-01
   maximum displ.:     0.2088977 α      in ANC's #32, #40, #44, ...

........................................................................
.............................. CYCLE    2 ..............................
........................................................................

 iter      E             dE          RMSdq      gap      omega  full diag
   1    -75.3070047 -0.753070E+02  0.277E-01    2.27       0.0  T
   2    -75.3076078 -0.603165E-03  0.179E-01    2.30       1.0  T
   3    -75.3075969  0.109155E-04  0.828E-02    2.29       1.0  T
   4    -75.3076749 -0.779970E-04  0.288E-02    2.29       1.0  T
   5    -75.3077084 -0.334384E-04  0.750E-03    2.29       1.9  T
   6    -75.3077094 -0.108203E-05  0.363E-03    2.29       4.0  T
   7    -75.3077097 -0.223351E-06  0.192E-03    2.29       7.6  T
   8    -75.3077097 -0.519398E-07  0.740E-04    2.29      19.7  T
   9    -75.3077097 -0.597294E-08  0.288E-04    2.29      50.6  T
     SCC iter.                  ...        0 min,  0.055 sec
     gradient                   ...        0 min,  0.027 sec
 * total energy  :   -74.2999810 Eh     change       -0.2518701E-01 Eh
   gradient norm :     0.0754491 Eh/α   predicted    -0.2033720E-01 ( -19.26%)
   displ. norm   :     0.3662015 α      lambda       -0.1319294E-01
   maximum displ.:     0.2258003 α      in ANC's #32, #44, #36, ...

........................................................................
.............................. CYCLE    3 ..............................
........................................................................

 iter      E             dE          RMSdq      gap      omega  full diag
   1    -75.3157816 -0.753158E+02  0.212E-01    2.29       0.0  T
   2    -75.3161962 -0.414576E-03  0.134E-01    2.32       1.0  T
   3    -75.3162080 -0.117393E-04  0.675E-02    2.31       1.0  T
   4    -75.3162443 -0.363491E-04  0.239E-02    2.31       1.0  T
   5    -75.3162674 -0.230506E-04  0.610E-03    2.31       2.4  T
   6    -75.3162683 -0.891123E-06  0.273E-03    2.31       5.4  T
   7    -75.3162684 -0.170327E-06  0.144E-03    2.31      10.2  T
   8    -75.3162685 -0.314830E-07  0.551E-04    2.31      26.5  T
   9    -75.3162685 -0.155607E-08  0.210E-04    2.31      69.4  T
     SCC iter.                  ...        0 min,  0.061 sec
     gradient                   ...        0 min,  0.006 sec
 * total energy  :   -74.3079896 Eh     change       -0.8008612E-02 Eh
   gradient norm :     0.0234381 Eh/α   predicted    -0.7481081E-02 (  -6.59%)
   displ. norm   :     0.2509628 α      lambda       -0.2423336E-02
   maximum displ.:     0.1308877 α      in ANC's #32, #11, #23, ...

........................................................................
.............................. CYCLE    4 ..............................
........................................................................

 iter      E             dE          RMSdq      gap      omega  full diag
   1    -75.3143346 -0.753143E+02  0.866E-02    2.31       0.0  T
   2    -75.3143502 -0.155338E-04  0.536E-02    2.31       1.0  T
   3    -75.3143392  0.109757E-04  0.209E-02    2.30       1.0  T
   4    -75.3143542 -0.150204E-04  0.453E-03    2.30       3.2  T
   5    -75.3143547 -0.454168E-06  0.202E-03    2.30       7.2  T
   6    -75.3143548 -0.802170E-07  0.109E-03    2.30      13.4  T
   7    -75.3143548 -0.100281E-07  0.538E-04    2.30      27.1  T
   8    -75.3143548 -0.494190E-08  0.203E-04    2.30      72.0  T
     SCC iter.                  ...        0 min,  0.026 sec
     gradient                   ...        0 min,  0.006 sec
 * total energy  :   -74.3096671 Eh     change       -0.1677430E-02 Eh
   gradient norm :     0.0165313 Eh/α   predicted    -0.1287988E-02 ( -23.22%)
   displ. norm   :     0.2458025 α      lambda       -0.1187123E-02
   maximum displ.:     0.1050206 α      in ANC's #11, #32, #23, ...

........................................................................
.............................. CYCLE    5 ..............................
........................................................................

 iter      E             dE          RMSdq      gap      omega  full diag
   1    -75.3148884 -0.753149E+02  0.656E-02    2.31       0.0  T
   2    -75.3148925 -0.404227E-05  0.392E-02    2.30       1.0  T
   3    -75.3148870  0.549118E-05  0.132E-02    2.30       1.1  T
   4    -75.3148935 -0.651444E-05  0.363E-03    2.30       4.0  T
   5    -75.3148939 -0.390893E-06  0.159E-03    2.30       9.2  T
   6    -75.3148939 -0.274116E-07  0.759E-04    2.30      19.2  T
   7    -75.3148939 -0.738876E-08  0.293E-04    2.30      49.8  T
     SCC iter.                  ...        0 min,  0.031 sec
     gradient                   ...        0 min,  0.006 sec
 * total energy  :   -74.3104747 Eh     change       -0.8076259E-03 Eh
   gradient norm :     0.0105369 Eh/α   predicted    -0.6294459E-03 ( -22.06%)
   displ. norm   :     0.2131483 α      lambda       -0.5552018E-03
   maximum displ.:     0.0907560 α      in ANC's #11, #2, #23, ...

........................................................................
.............................. CYCLE    6 ..............................
........................................................................

 iter      E             dE          RMSdq      gap      omega  full diag
   1    -75.3160550 -0.753161E+02  0.546E-02    2.30       0.0  T
   2    -75.3160582 -0.320186E-05  0.330E-02    2.30       1.0  T
   3    -75.3160493  0.888153E-05  0.159E-02    2.30       1.0  T
   4    -75.3160599 -0.105787E-04  0.305E-03    2.30       4.8  T
   5    -75.3160601 -0.233251E-06  0.131E-03    2.30      11.2  T
   6    -75.3160601 -0.183750E-07  0.714E-04    2.30      20.4  T
   7    -75.3160601 -0.970297E-08  0.238E-04    2.30      61.3  T
     SCC iter.                  ...        0 min,  0.036 sec
     gradient                   ...        0 min,  0.006 sec
 * total energy  :   -74.3108793 Eh     change       -0.4045524E-03 Eh
   gradient norm :     0.0089761 Eh/α   predicted    -0.2902133E-03 ( -28.26%)
   displ. norm   :     0.2488083 α      lambda       -0.4552152E-03
   maximum displ.:     0.1119995 α      in ANC's #2, #11, #4, ...

........................................................................
.............................. CYCLE    7 ..............................
........................................................................

 iter      E             dE          RMSdq      gap      omega  full diag
   1    -75.3174649 -0.753175E+02  0.626E-02    2.30       0.0  T
   2    -75.3174688 -0.385422E-05  0.380E-02    2.31       1.0  T
   3    -75.3174580  0.108091E-04  0.173E-02    2.30       1.0  T
   4    -75.3174707 -0.127814E-04  0.319E-03    2.31       4.6  T
   5    -75.3174710 -0.225948E-06  0.147E-03    2.31      10.0  T
   6    -75.3174710 -0.424356E-07  0.704E-04    2.31      20.7  T
   7    -75.3174710 -0.680033E-08  0.289E-04    2.31      50.4  T
     SCC iter.                  ...        0 min,  0.027 sec
     gradient                   ...        0 min,  0.005 sec
 * total energy  :   -74.3112121 Eh     change       -0.3328746E-03 Eh
   gradient norm :     0.0076434 Eh/α   predicted    -0.2416987E-03 ( -27.39%)
   displ. norm   :     0.2785541 α      lambda       -0.3776494E-03
   maximum displ.:     0.1356629 α      in ANC's #2, #4, #13, ...

........................................................................
.............................. CYCLE    8 ..............................
........................................................................

 iter      E             dE          RMSdq      gap      omega  full diag
   1    -75.3175315 -0.753175E+02  0.732E-02    2.31       0.0  T
   2    -75.3175345 -0.297140E-05  0.441E-02    2.31       1.0  T
   3    -75.3175250  0.947408E-05  0.157E-02    2.31       1.0  T
   4    -75.3175362 -0.111964E-04  0.294E-03    2.31       5.0  T
   5    -75.3175363 -0.102026E-06  0.172E-03    2.31       8.5  T
   6    -75.3175364 -0.560081E-07  0.711E-04    2.31      20.5  T
   7    -75.3175364 -0.469421E-08  0.279E-04    2.31      52.4  T
     SCC iter.                  ...        0 min,  0.027 sec
     gradient                   ...        0 min,  0.005 sec
 * total energy  :   -74.3114782 Eh     change       -0.2660318E-03 Eh
   gradient norm :     0.0092550 Eh/α   predicted    -0.2034769E-03 ( -23.51%)
   displ. norm   :     0.3165612 α      lambda       -0.4008010E-03
   maximum displ.:     0.1640347 α      in ANC's #2, #4, #13, ...

........................................................................
.............................. CYCLE    9 ..............................
........................................................................

 iter      E             dE          RMSdq      gap      omega  full diag
   1    -75.3192430 -0.753192E+02  0.851E-02    2.31       0.0  T
   2    -75.3192457 -0.267713E-05  0.502E-02    2.31       1.0  T
   3    -75.3192423  0.346010E-05  0.974E-03    2.31       1.5  T
   4    -75.3192466 -0.430659E-05  0.251E-03    2.31       5.8  T
   5    -75.3192467 -0.862163E-07  0.136E-03    2.31      10.7  T
   6    -75.3192467 -0.414989E-07  0.576E-04    2.31      25.3  T
   7    -75.3192467 -0.327216E-08  0.264E-04    2.31      55.2  T
     SCC iter.                  ...        0 min,  0.027 sec
     gradient                   ...        0 min,  0.005 sec
 * total energy  :   -74.3116575 Eh     change       -0.1793112E-03 Eh
   gradient norm :     0.0105218 Eh/α   predicted    -0.2205012E-03 (  22.97%)
   displ. norm   :     0.2308619 α      lambda       -0.2917800E-03
   maximum displ.:     0.1228598 α      in ANC's #2, #5, #4, ...

........................................................................
.............................. CYCLE   10 ..............................
........................................................................

 iter      E             dE          RMSdq      gap      omega  full diag
   1    -75.3178213 -0.753178E+02  0.672E-02    2.31       0.0  T
   2    -75.3178235 -0.217959E-05  0.399E-02    2.31       1.0  T
   3    -75.3178233  0.187120E-06  0.537E-03    2.31       2.7  T
   4    -75.3178242 -0.900405E-06  0.237E-03    2.31       6.1  T
   5    -75.3178243 -0.748440E-07  0.134E-03    2.31      10.9  T
   6    -75.3178243 -0.141737E-07  0.558E-04    2.31      26.1  T
   7    -75.3178243 -0.694386E-08  0.217E-04    2.31      67.2  T
     SCC iter.                  ...        0 min,  0.028 sec
     gradient                   ...        0 min,  0.005 sec
 * total energy  :   -74.3118152 Eh     change       -0.1577333E-03 Eh
   gradient norm :     0.0060999 Eh/α   predicted    -0.1536678E-03 (  -2.58%)
   displ. norm   :     0.1027957 α      lambda       -0.1210013E-03
   maximum displ.:     0.0518491 α      in ANC's #2, #5, #4, ...

........................................................................
.............................. CYCLE   11 ..............................
........................................................................

 iter      E             dE          RMSdq      gap      omega  full diag
   1    -75.3192510 -0.753193E+02  0.283E-02    2.31       0.0  T
   2    -75.3192517 -0.711726E-06  0.168E-02    2.31       1.0  T
   3    -75.3192511  0.607897E-06  0.433E-03    2.31       3.4  T
   4    -75.3192518 -0.712701E-06  0.123E-03    2.31      11.9  T
   5    -75.3192518 -0.448696E-07  0.477E-04    2.31      30.6  T
   6    -75.3192518 -0.537560E-08  0.209E-04    2.31      69.8  T
     SCC iter.                  ...        0 min,  0.023 sec
     gradient                   ...        0 min,  0.005 sec
 * total energy  :   -74.3119123 Eh     change       -0.9711051E-04 Eh
   gradient norm :     0.0038356 Eh/α   predicted    -0.6114132E-04 ( -37.04%)
   displ. norm   :     0.2714005 α      lambda       -0.1866283E-03
   maximum displ.:     0.1394401 α      in ANC's #2, #5, #4, ...

........................................................................
.............................. CYCLE   12 ..............................
........................................................................

 iter      E             dE          RMSdq      gap      omega  full diag
   1    -75.3189788 -0.753190E+02  0.750E-02    2.31       0.0  T
   2    -75.3189805 -0.161648E-05  0.442E-02    2.31       1.0  T
   3    -75.3189797  0.725929E-06  0.530E-03    2.31       2.8  T
   4    -75.3189808 -0.106363E-05  0.171E-03    2.31       8.6  T
   5    -75.3189809 -0.508623E-07  0.874E-04    2.31      16.7  T
   6    -75.3189809 -0.108181E-07  0.425E-04    2.31      34.3  T
     SCC iter.                  ...        0 min,  0.019 sec
     gradient                   ...        0 min,  0.006 sec
 * total energy  :   -74.3120372 Eh     change       -0.1249202E-03 Eh
   gradient norm :     0.0036359 Eh/α   predicted    -0.1002114E-03 ( -19.78%)
   displ. norm   :     0.2216993 α      lambda       -0.9369281E-04
   maximum displ.:     0.1201052 α      in ANC's #2, #5, #4, ...

........................................................................
.............................. CYCLE   13 ..............................
........................................................................

 iter      E             dE          RMSdq      gap      omega  full diag
   1    -75.3193453 -0.753193E+02  0.618E-02    2.30       0.0  T
   2    -75.3193458 -0.520165E-06  0.365E-02    2.30       1.0  T
   3    -75.3193452  0.599342E-06  0.414E-03    2.30       3.5  T
   4    -75.3193460 -0.813049E-06  0.127E-03    2.30      11.5  T
   5    -75.3193460 -0.219602E-07  0.683E-04    2.30      21.3  T
   6    -75.3193460 -0.468640E-08  0.305E-04    2.30      47.7  T
     SCC iter.                  ...        0 min,  0.025 sec
     gradient                   ...        0 min,  0.007 sec
 * total energy  :   -74.3121091 Eh     change       -0.7187077E-04 Eh
   gradient norm :     0.0041918 Eh/α   predicted    -0.4915339E-04 ( -31.61%)
   displ. norm   :     0.2911410 α      lambda       -0.1096534E-03
   maximum displ.:     0.1556944 α      in ANC's #2, #5, #4, ...

........................................................................
.............................. CYCLE   14 ..............................
........................................................................

 iter      E             dE          RMSdq      gap      omega  full diag
   1    -75.3189920 -0.753190E+02  0.833E-02    2.30       0.0  T
   2    -75.3189929 -0.970103E-06  0.493E-02    2.30       1.0  T
   3    -75.3189899  0.298968E-05  0.858E-03    2.30       1.7  T
   4    -75.3189935 -0.355161E-05  0.174E-03    2.30       8.4  T
   5    -75.3189935 -0.392142E-07  0.964E-04    2.30      15.1  T
   6    -75.3189935 -0.661539E-08  0.414E-04    2.30      35.2  T
     SCC iter.                  ...        0 min,  0.025 sec
     gradient                   ...        0 min,  0.007 sec
 * total energy  :   -74.3121908 Eh     change       -0.8170803E-04 Eh
   gradient norm :     0.0036059 Eh/α   predicted    -0.5947875E-04 ( -27.21%)
   displ. norm   :     0.2567561 α      lambda       -0.9347400E-04
   maximum displ.:     0.1398290 α      in ANC's #2, #7, #5, ...

........................................................................
.............................. CYCLE   15 ..............................
........................................................................

 iter      E             dE          RMSdq      gap      omega  full diag
   1    -75.3198505 -0.753199E+02  0.752E-02    2.29       0.0  T
   2    -75.3198515 -0.101386E-05  0.445E-02    2.30       1.0  T
   3    -75.3198479  0.361830E-05  0.949E-03    2.30       1.5  T
   4    -75.3198520 -0.416017E-05  0.164E-03    2.30       8.9  T
   5    -75.3198521 -0.470655E-07  0.837E-04    2.30      17.4  T
   6    -75.3198521 -0.800051E-08  0.413E-04    2.30      35.3  T
     SCC iter.                  ...        0 min,  0.020 sec
     gradient                   ...        0 min,  0.005 sec
 * total energy  :   -74.3122570 Eh     change       -0.6614331E-04 Eh
   gradient norm :     0.0035771 Eh/α   predicted    -0.4982902E-04 ( -24.67%)
   displ. norm   :     0.2379342 α      lambda       -0.7167819E-04
   maximum displ.:     0.1278082 α      in ANC's #2, #7, #4, ...

........................................................................
.............................. CYCLE   16 ..............................
........................................................................

 iter      E             dE          RMSdq      gap      omega  full diag
   1    -75.3195775 -0.753196E+02  0.704E-02    2.29       0.0  T
   2    -75.3195781 -0.613452E-06  0.415E-02    2.30       1.0  T
   3    -75.3195762  0.189256E-05  0.703E-03    2.29       2.1  T
   4    -75.3195785 -0.225660E-05  0.131E-03    2.30      11.1  T
   5    -75.3195785 -0.216643E-07  0.746E-04    2.30      19.6  T
   6    -75.3195785 -0.679303E-08  0.299E-04    2.30      48.8  T
     SCC iter.                  ...        0 min,  0.022 sec
     gradient                   ...        0 min,  0.005 sec
 * total energy  :   -74.3123124 Eh     change       -0.5545336E-04 Eh
   gradient norm :     0.0038597 Eh/α   predicted    -0.3786897E-04 ( -31.71%)
   displ. norm   :     0.2871432 α      lambda       -0.1084673E-03
   maximum displ.:     0.1527770 α      in ANC's #7, #2, #4, ...

........................................................................
.............................. CYCLE   17 ..............................
........................................................................

 iter      E             dE          RMSdq      gap      omega  full diag
   1    -75.3212846 -0.753213E+02  0.857E-02    2.29       0.0  T
   2    -75.3212853 -0.732642E-06  0.504E-02    2.30       1.0  T
   3    -75.3212838  0.152690E-05  0.642E-03    2.29       2.3  T
   4    -75.3212857 -0.191672E-05  0.135E-03    2.30      10.8  T
   5    -75.3212857 -0.234364E-07  0.763E-04    2.30      19.1  T
   6    -75.3212858 -0.696323E-08  0.283E-04    2.30      51.5  T
     SCC iter.                  ...        0 min,  0.023 sec
     gradient                   ...        0 min,  0.005 sec
 * total energy  :   -74.3123947 Eh     change       -0.8226365E-04 Eh
   gradient norm :     0.0047930 Eh/α   predicted    -0.5870606E-04 ( -28.64%)
   displ. norm   :     0.4402247 α      lambda       -0.1395862E-03
   maximum displ.:     0.2434560 α      in ANC's #7, #2, #4, ...

........................................................................
.............................. CYCLE   18 ..............................
........................................................................

 iter      E             dE          RMSdq      gap      omega  full diag
   1    -75.3186102 -0.753186E+02  0.133E-01    2.29       0.0  T
   2    -75.3186118 -0.152778E-05  0.783E-02    2.29       1.0  T
   3    -75.3186104  0.134546E-05  0.665E-03    2.29       2.2  T
   4    -75.3186125 -0.213007E-05  0.178E-03    2.29       8.2  T
   5    -75.3186126 -0.177697E-07  0.116E-03    2.29      12.6  T
   6    -75.3186126 -0.206137E-07  0.355E-04    2.29      41.1  T
   7    -75.3186126 -0.313294E-08  0.125E-04    2.29     116.8  T
     SCC iter.                  ...        0 min,  0.027 sec
     gradient                   ...        0 min,  0.005 sec
 * total energy  :   -74.3124951 Eh     change       -0.1004156E-03 Eh
   gradient norm :     0.0061351 Eh/α   predicted    -0.8332213E-04 ( -17.02%)
   displ. norm   :     0.3735982 α      lambda       -0.2103754E-03
   maximum displ.:     0.2144737 α      in ANC's #7, #3, #2, ...

........................................................................
.............................. CYCLE   19 ..............................
........................................................................

 iter      E             dE          RMSdq      gap      omega  full diag
   1    -75.3206588 -0.753207E+02  0.111E-01    2.30       0.0  T
   2    -75.3206609 -0.208846E-05  0.655E-02    2.29       1.0  T
   3    -75.3206580  0.286459E-05  0.888E-03    2.29       1.6  T
   4    -75.3206618 -0.371724E-05  0.199E-03    2.29       7.3  T
   5    -75.3206618 -0.502927E-07  0.112E-03    2.29      13.1  T
   6    -75.3206618 -0.110042E-07  0.557E-04    2.29      26.2  T
   7    -75.3206618 -0.686050E-08  0.176E-04    2.29      83.1  T
     SCC iter.                  ...        0 min,  0.028 sec
     gradient                   ...        0 min,  0.006 sec
 * total energy  :   -74.3126225 Eh     change       -0.1274591E-03 Eh
   gradient norm :     0.0057105 Eh/α   predicted    -0.1198767E-03 (  -5.95%)
   displ. norm   :     0.4227197 α      lambda       -0.1365108E-03
   maximum displ.:     0.2455052 α      in ANC's #7, #2, #3, ...

........................................................................
.............................. CYCLE   20 ..............................
........................................................................

 iter      E             dE          RMSdq      gap      omega  full diag
   1    -75.3173655 -0.753174E+02  0.130E-01    2.29       0.0  T
   2    -75.3173673 -0.178887E-05  0.763E-02    2.29       1.0  T
   3    -75.3173656  0.171748E-05  0.721E-03    2.29       2.0  T
   4    -75.3173682 -0.259730E-05  0.168E-03    2.29       8.7  T
   5    -75.3173682 -0.571563E-08  0.893E-04    2.29      16.3  T
   6    -75.3173682 -0.133259E-07  0.306E-04    2.29      47.7  T
     SCC iter.                  ...        0 min,  0.024 sec
     gradient                   ...        0 min,  0.005 sec
 * total energy  :   -74.3126946 Eh     change       -0.7205578E-04 Eh
   gradient norm :     0.0065720 Eh/α   predicted    -0.8045452E-04 (  11.66%)
   displ. norm   :     0.1557679 α      lambda       -0.1874331E-03
   maximum displ.:     0.0615249 α      in ANC's #5, #7, #3, ...
 * RMSD in coord.:     0.5768198 α      energy gain  -0.3790058E-01 Eh

generating ANC from exact Hessian ...
Using Lindh-Hessian (1995)
 Shifting diagonal of input Hessian by   9.934896712706982E-003
 Lowest  eigenvalues of input Hessian
    0.000000    0.000000    0.000000    0.000000    0.000000    0.010000
    0.000000    0.010322    0.010498    0.010611    0.011304    0.011415
    0.011569    0.012244    0.012484    0.013094    0.013945    0.014921
 Highest eigenvalues
    1.966768    2.008635    2.023144    2.038292    2.150063    2.206608
 

........................................................................
.............................. CYCLE   21 ..............................
........................................................................

 iter      E             dE          RMSdq      gap      omega  full diag
   1    -75.3209084 -0.753209E+02  0.491E-02    2.29       0.0  T
   2    -75.3209094 -0.953995E-06  0.291E-02    2.28       1.0  T
   3    -75.3209077  0.168734E-05  0.733E-03    2.29       2.0  T
   4    -75.3209097 -0.207601E-05  0.138E-03    2.28      10.6  T
   5    -75.3209098 -0.304026E-07  0.794E-04    2.28      18.4  T
   6    -75.3209098 -0.766914E-08  0.339E-04    2.28      43.1  T
     SCC iter.                  ...        0 min,  0.021 sec
     gradient                   ...        0 min,  0.005 sec
 * total energy  :   -74.3127941 Eh     change       -0.9952686E-04 Eh
   gradient norm :     0.0043853 Eh/α   predicted     0.0000000E+00 (-100.00%)
   displ. norm   :     0.0451784 α      lambda       -0.5362420E-04
   maximum displ.:     0.0236849 α      in ANC's #7, #15, #14, ...

........................................................................
.............................. CYCLE   22 ..............................
........................................................................

 iter      E             dE          RMSdq      gap      omega  full diag
   1    -75.3213527 -0.753214E+02  0.151E-02    2.28       0.0  T
   2    -75.3213530 -0.299005E-06  0.901E-03    2.29       1.6  T
   3    -75.3213525  0.502567E-06  0.397E-03    2.28       3.7  T
   4    -75.3213531 -0.573946E-06  0.900E-04    2.29      16.2  T
   5    -75.3213531 -0.251517E-07  0.273E-04    2.29      53.3  T
     SCC iter.                  ...        0 min,  0.017 sec
     gradient                   ...        0 min,  0.006 sec
 * total energy  :   -74.3128398 Eh     change       -0.4564984E-04 Eh
   gradient norm :     0.0020659 Eh/α   predicted    -0.2802559E-04 ( -38.61%)
   displ. norm   :     0.1316344 α      lambda       -0.9500344E-04
   maximum displ.:     0.0747306 α      in ANC's #7, #15, #14, ...

........................................................................
.............................. CYCLE   23 ..............................
........................................................................

 iter      E             dE          RMSdq      gap      omega  full diag
   1    -75.3215639 -0.753216E+02  0.406E-02    2.28       0.0  T
   2    -75.3215648 -0.942116E-06  0.241E-02    2.28       1.0  T
   3    -75.3215629  0.191326E-05  0.726E-03    2.28       2.0  T
   4    -75.3215651 -0.215641E-05  0.165E-03    2.28       8.9  T
   5    -75.3215652 -0.795976E-07  0.597E-04    2.28      24.4  T
   6    -75.3215652 -0.434666E-08  0.321E-04    2.28      45.4  T
     SCC iter.                  ...        0 min,  0.020 sec
     gradient                   ...        0 min,  0.005 sec
 * total energy  :   -74.3129007 Eh     change       -0.6089395E-04 Eh
   gradient norm :     0.0023238 Eh/α   predicted    -0.4832527E-04 ( -20.64%)
   displ. norm   :     0.0966811 α      lambda       -0.3475017E-04
   maximum displ.:     0.0588304 α      in ANC's #7, #15, #2, ...

........................................................................
.............................. CYCLE   24 ..............................
........................................................................

 iter      E             dE          RMSdq      gap      omega  full diag
   1    -75.3213532 -0.753214E+02  0.295E-02    2.28       0.0  T
   2    -75.3213534 -0.130086E-06  0.174E-02    2.28       1.0  T
   3    -75.3213532  0.202686E-06  0.232E-03    2.28       6.3  T
   4    -75.3213534 -0.259665E-06  0.605E-04    2.28      24.1  T
   5    -75.3213534 -0.524636E-08  0.328E-04    2.28      44.5  T
     SCC iter.                  ...        0 min,  0.017 sec
     gradient                   ...        0 min,  0.006 sec
 * total energy  :   -74.3129289 Eh     change       -0.2818046E-04 Eh
   gradient norm :     0.0028840 Eh/α   predicted    -0.1753869E-04 ( -37.76%)
   displ. norm   :     0.1403339 α      lambda       -0.4791737E-04
   maximum displ.:     0.0844257 α      in ANC's #7, #2, #1, ...

........................................................................
.............................. CYCLE   25 ..............................
........................................................................

 iter      E             dE          RMSdq      gap      omega  full diag
   1    -75.3210132 -0.753210E+02  0.432E-02    2.28       0.0  T
   2    -75.3210134 -0.231107E-06  0.254E-02    2.28       1.0  T
   3    -75.3210131  0.308767E-06  0.276E-03    2.28       5.3  T
   4    -75.3210135 -0.416962E-06  0.672E-04    2.28      21.7  T
   5    -75.3210135 -0.329022E-08  0.400E-04    2.28      36.5  T
     SCC iter.                  ...        0 min,  0.017 sec
     gradient                   ...        0 min,  0.005 sec
 * total energy  :   -74.3129662 Eh     change       -0.3736697E-04 Eh
   gradient norm :     0.0021699 Eh/α   predicted    -0.2443127E-04 ( -34.62%)
   displ. norm   :     0.1512491 α      lambda       -0.4094778E-04
   maximum displ.:     0.0923163 α      in ANC's #7, #2, #4, ...

........................................................................
.............................. CYCLE   26 ..............................
........................................................................

 iter      E             dE          RMSdq      gap      omega  full diag
   1    -75.3208355 -0.753208E+02  0.472E-02    2.28       0.0  T
   2    -75.3208359 -0.341915E-06  0.278E-02    2.28       1.0  T
   3    -75.3208355  0.361011E-06  0.309E-03    2.28       4.7  T
   4    -75.3208360 -0.481976E-06  0.736E-04    2.28      19.8  T
   5    -75.3208360 -0.849025E-08  0.407E-04    2.28      35.8  T
     SCC iter.                  ...        0 min,  0.017 sec
     gradient                   ...        0 min,  0.005 sec
 * total energy  :   -74.3129970 Eh     change       -0.3078148E-04 Eh
   gradient norm :     0.0014134 Eh/α   predicted    -0.2094607E-04 ( -31.95%)
   displ. norm   :     0.2058264 α      lambda       -0.3135932E-04
   maximum displ.:     0.1252639 α      in ANC's #7, #2, #4, ...

........................................................................
.............................. CYCLE   27 ..............................
........................................................................

 iter      E             dE          RMSdq      gap      omega  full diag
   1    -75.3209250 -0.753209E+02  0.648E-02    2.28       0.0  T
   2    -75.3209257 -0.653509E-06  0.381E-02    2.27       1.0  T
   3    -75.3209250  0.681966E-06  0.426E-03    2.27       3.4  T
   4    -75.3209259 -0.917651E-06  0.937E-04    2.27      15.6  T
   5    -75.3209259 -0.144878E-07  0.501E-04    2.27      29.1  T
     SCC iter.                  ...        0 min,  0.014 sec
     gradient                   ...        0 min,  0.007 sec
 * total energy  :   -74.3130312 Eh     change       -0.3421069E-04 Eh
   gradient norm :     0.0020469 Eh/α   predicted    -0.1598003E-04 ( -53.29%)
   displ. norm   :     0.1285660 α      lambda       -0.3277756E-04
   maximum displ.:     0.0748204 α      in ANC's #7, #4, #1, ...

........................................................................
.............................. CYCLE   28 ..............................
........................................................................

 iter      E             dE          RMSdq      gap      omega  full diag
   1    -75.3213118 -0.753213E+02  0.400E-02    2.27       0.0  T
   2    -75.3213120 -0.214889E-06  0.235E-02    2.27       1.0  T
   3    -75.3213116  0.330705E-06  0.277E-03    2.27       5.3  T
   4    -75.3213121 -0.433888E-06  0.667E-04    2.27      21.9  T
   5    -75.3213121 -0.535279E-08  0.421E-04    2.27      34.6  T
     SCC iter.                  ...        0 min,  0.039 sec
     gradient                   ...        0 min,  0.008 sec
 * total energy  :   -74.3130608 Eh     change       -0.2960897E-04 Eh
   gradient norm :     0.0021246 Eh/α   predicted    -0.1666251E-04 ( -43.72%)
   displ. norm   :     0.3380202 α      lambda       -0.8626701E-04
   maximum displ.:     0.1907201 α      in ANC's #7, #1, #4, ...

........................................................................
.............................. CYCLE   29 ..............................
........................................................................

 iter      E             dE          RMSdq      gap      omega  full diag
   1    -75.3210516 -0.753211E+02  0.104E-01    2.27       0.0  T
   2    -75.3210529 -0.134398E-05  0.614E-02    2.27       1.0  T
   3    -75.3210513  0.164584E-05  0.642E-03    2.27       2.3  T
   4    -75.3210536 -0.232194E-05  0.167E-03    2.27       8.7  T
   5    -75.3210536 -0.174840E-07  0.105E-03    2.27      13.9  T
   6    -75.3210536 -0.149609E-07  0.427E-04    2.27      34.2  T
   7    -75.3210536 -0.420741E-08  0.135E-04    2.27     108.3  T
     SCC iter.                  ...        0 min,  0.020 sec
     gradient                   ...        0 min,  0.006 sec
 * total energy  :   -74.3131269 Eh     change       -0.6605581E-04 Eh
   gradient norm :     0.0027920 Eh/α   predicted    -0.4808365E-04 ( -27.21%)
   displ. norm   :     0.3367343 α      lambda       -0.6570825E-04
   maximum displ.:     0.1866571 α      in ANC's #7, #1, #4, ...

........................................................................
.............................. CYCLE   30 ..............................
........................................................................

 iter      E             dE          RMSdq      gap      omega  full diag
   1    -75.3202019 -0.753202E+02  0.103E-01    2.27       0.0  T
   2    -75.3202030 -0.118996E-05  0.610E-02    2.27       1.0  T
   3    -75.3202016  0.148020E-05  0.611E-03    2.27       2.4  T
   4    -75.3202037 -0.210150E-05  0.170E-03    2.27       8.6  T
   5    -75.3202037 -0.175669E-07  0.108E-03    2.27      13.5  T
   6    -75.3202037 -0.180345E-07  0.369E-04    2.27      39.5  T
   7    -75.3202037 -0.312922E-08  0.127E-04    2.27     114.9  T
     SCC iter.                  ...        0 min,  0.020 sec
     gradient                   ...        0 min,  0.006 sec
 * total energy  :   -74.3131727 Eh     change       -0.4580554E-04 Eh
   gradient norm :     0.0036525 Eh/α   predicted    -0.3658192E-04 ( -20.14%)
   displ. norm   :     0.2232503 α      lambda       -0.5762266E-04
   maximum displ.:     0.1137488 α      in ANC's #7, #1, #4, ...

........................................................................
.............................. CYCLE   31 ..............................
........................................................................

 iter      E             dE          RMSdq      gap      omega  full diag
   1    -75.3213484 -0.753213E+02  0.672E-02    2.27       0.0  T
   2    -75.3213489 -0.515038E-06  0.397E-02    2.27       1.0  T
   3    -75.3213479  0.949513E-06  0.483E-03    2.27       3.0  T
   4    -75.3213491 -0.122170E-05  0.123E-03    2.27      11.8  T
   5    -75.3213492 -0.142324E-07  0.733E-04    2.27      19.9  T
   6    -75.3213492 -0.795626E-08  0.241E-04    2.27      60.6  T
     SCC iter.                  ...        0 min,  0.017 sec
     gradient                   ...        0 min,  0.005 sec
 * total energy  :   -74.3132154 Eh     change       -0.4274643E-04 Eh
   gradient norm :     0.0022721 Eh/α   predicted    -0.3024762E-04 ( -29.24%)
   displ. norm   :     0.2894458 α      lambda       -0.5226769E-04
   maximum displ.:     0.1552608 α      in ANC's #7, #1, #4, ...

........................................................................
.............................. CYCLE   32 ..............................
........................................................................

 iter      E             dE          RMSdq      gap      omega  full diag
   1    -75.3206260 -0.753206E+02  0.887E-02    2.27       0.0  T
   2    -75.3206268 -0.798074E-06  0.522E-02    2.27       1.0  T
   3    -75.3206258  0.102603E-05  0.520E-03    2.27       2.8  T
   4    -75.3206272 -0.141953E-05  0.140E-03    2.27      10.4  T
   5    -75.3206272 -0.177969E-07  0.840E-04    2.27      17.4  T
   6    -75.3206272 -0.991776E-08  0.328E-04    2.27      44.5  T
     SCC iter.                  ...        0 min,  0.016 sec
     gradient                   ...        0 min,  0.006 sec
 * total energy  :   -74.3132522 Eh     change       -0.3677198E-04 Eh
   gradient norm :     0.0021192 Eh/α   predicted    -0.2833023E-04 ( -22.96%)
   displ. norm   :     0.1624917 α      lambda       -0.4259104E-04
   maximum displ.:     0.0756330 α      in ANC's #1, #7, #4, ...

........................................................................
.............................. CYCLE   33 ..............................
........................................................................

 iter      E             dE          RMSdq      gap      omega  full diag
   1    -75.3227197 -0.753227E+02  0.479E-02    2.27       0.0  T
   2    -75.3227202 -0.469828E-06  0.283E-02    2.27       1.0  T
   3    -75.3227196  0.562034E-06  0.407E-03    2.27       3.6  T
   4    -75.3227203 -0.694825E-06  0.121E-03    2.27      12.1  T
   5    -75.3227203 -0.346235E-07  0.566E-04    2.27      25.8  T
   6    -75.3227203 -0.325034E-08  0.274E-04    2.27      53.2  T
     SCC iter.                  ...        0 min,  0.016 sec
     gradient                   ...        0 min,  0.006 sec
 * total energy  :   -74.3132746 Eh     change       -0.2236319E-04 Eh
   gradient norm :     0.0027092 Eh/α   predicted    -0.2187233E-04 (  -2.19%)
   displ. norm   :     0.2790533 α      lambda       -0.3197696E-04
   maximum displ.:     0.1457282 α      in ANC's #7, #1, #4, ...

........................................................................
.............................. CYCLE   34 ..............................
........................................................................

 iter      E             dE          RMSdq      gap      omega  full diag
   1    -75.3203082 -0.753203E+02  0.858E-02    2.26       0.0  T
   2    -75.3203089 -0.700236E-06  0.505E-02    2.26       1.0  T
   3    -75.3203082  0.674160E-06  0.451E-03    2.26       3.2  T
   4    -75.3203093 -0.104686E-05  0.129E-03    2.26      11.3  T
   5    -75.3203093 -0.343636E-08  0.790E-04    2.26      18.5  T
   6    -75.3203093 -0.118487E-07  0.278E-04    2.26      52.4  T
     SCC iter.                  ...        0 min,  0.016 sec
     gradient                   ...        0 min,  0.006 sec
 * total energy  :   -74.3132914 Eh     change       -0.1683209E-04 Eh
   gradient norm :     0.0026542 Eh/α   predicted    -0.1724140E-04 (   2.43%)
   displ. norm   :     0.0469544 α      lambda       -0.2093282E-04
   maximum displ.:     0.0221143 α      in ANC's #1, #11, #4, ...

........................................................................
.............................. CYCLE   35 ..............................
........................................................................

 iter      E             dE          RMSdq      gap      omega  full diag
   1    -75.3212174 -0.753212E+02  0.122E-02    2.26       0.0  T
   2    -75.3212175 -0.778617E-07  0.727E-03    2.26       2.0  T
   3    -75.3212175  0.121303E-07  0.101E-03    2.26      14.4  T
   4    -75.3212175 -0.312459E-07  0.376E-04    2.26      38.8  T
   5    -75.3212175 -0.143353E-08  0.227E-04    2.26      64.2  T
     SCC iter.                  ...        0 min,  0.014 sec
     gradient                   ...        0 min,  0.006 sec
 * total energy  :   -74.3133078 Eh     change       -0.1637812E-04 Eh
   gradient norm :     0.0014937 Eh/α   predicted    -0.1049242E-04 ( -35.94%)
   displ. norm   :     0.2051323 α      lambda       -0.2616803E-04
   maximum displ.:     0.1076296 α      in ANC's #1, #4, #3, ...

........................................................................
.............................. CYCLE   36 ..............................
........................................................................

 iter      E             dE          RMSdq      gap      omega  full diag
   1    -75.3223071 -0.753223E+02  0.561E-02    2.26       0.0  T
   2    -75.3223077 -0.577943E-06  0.331E-02    2.26       1.0  T
   3    -75.3223074  0.266485E-06  0.335E-03    2.26       4.4  T
   4    -75.3223079 -0.463490E-06  0.127E-03    2.26      11.5  T
   5    -75.3223079 -0.241010E-07  0.720E-04    2.26      20.3  T
   6    -75.3223079 -0.559238E-08  0.326E-04    2.26      44.7  T
     SCC iter.                  ...        0 min,  0.016 sec
     gradient                   ...        0 min,  0.006 sec
 * total energy  :   -74.3133263 Eh     change       -0.1849773E-04 Eh
   gradient norm :     0.0027469 Eh/α   predicted    -0.1333009E-04 ( -27.94%)
   displ. norm   :     0.0534289 α      lambda       -0.9207214E-05
   maximum displ.:     0.0294046 α      in ANC's #1, #4, #7, ...

........................................................................
.............................. CYCLE   37 ..............................
........................................................................

 iter      E             dE          RMSdq      gap      omega  full diag
   1    -75.3222839 -0.753223E+02  0.150E-02    2.26       0.0  T
   2    -75.3222839 -0.333762E-07  0.883E-03    2.26       1.7  T
   3    -75.3222839  0.532830E-07  0.113E-03    2.26      12.9  T
   4    -75.3222839 -0.643603E-07  0.294E-04    2.26      49.6  T
   5    -75.3222839 -0.237030E-08  0.134E-04    2.26     108.7  T
     SCC iter.                  ...        0 min,  0.014 sec
     gradient                   ...        0 min,  0.006 sec
 * total energy  :   -74.3133340 Eh     change       -0.7738979E-05 Eh
   gradient norm :     0.0017345 Eh/α   predicted    -0.4617439E-05 ( -40.34%)
   displ. norm   :     0.1639002 α      lambda       -0.1947897E-04
   maximum displ.:     0.0934031 α      in ANC's #1, #4, #3, ...

........................................................................
.............................. CYCLE   38 ..............................
........................................................................

 iter      E             dE          RMSdq      gap      omega  full diag
   1    -75.3224348 -0.753224E+02  0.435E-02    2.26       0.0  T
   2    -75.3224352 -0.405801E-06  0.256E-02    2.26       1.0  T
   3    -75.3224348  0.369330E-06  0.312E-03    2.26       4.7  T
   4    -75.3224353 -0.457109E-06  0.100E-03    2.26      14.6  T
   5    -75.3224353 -0.302599E-07  0.444E-04    2.26      32.8  T
   6    -75.3224353 -0.252041E-08  0.200E-04    2.26      72.8  T
     SCC iter.                  ...        0 min,  0.025 sec
     gradient                   ...        0 min,  0.008 sec
 * total energy  :   -74.3133460 Eh     change       -0.1200075E-04 Eh
   gradient norm :     0.0026421 Eh/α   predicted    -0.9858879E-05 ( -17.85%)
   displ. norm   :     0.0598640 α      lambda       -0.7926960E-05
   maximum displ.:     0.0343764 α      in ANC's #1, #4, #3, ...

........................................................................
.............................. CYCLE   39 ..............................
........................................................................

 iter      E             dE          RMSdq      gap      omega  full diag
   1    -75.3221512 -0.753222E+02  0.168E-02    2.26       0.0  T
   2    -75.3221512 -0.316388E-07  0.987E-03    2.26       1.5  T
   3    -75.3221512  0.256139E-07  0.941E-04    2.26      15.5  T
   4    -75.3221512 -0.408846E-07  0.314E-04    2.26      46.5  T
     SCC iter.                  ...        0 min,  0.015 sec
     gradient                   ...        0 min,  0.006 sec
 * total energy  :   -74.3133523 Eh     change       -0.6240455E-05 Eh
   gradient norm :     0.0018127 Eh/α   predicted    -0.3982538E-05 ( -36.18%)
   displ. norm   :     0.1048559 α      lambda       -0.1173970E-04
   maximum displ.:     0.0636739 α      in ANC's #1, #3, #4, ...

........................................................................
.............................. CYCLE   40 ..............................
........................................................................

 iter      E             dE          RMSdq      gap      omega  full diag
   1    -75.3224041 -0.753224E+02  0.266E-02    2.26       0.0  T
   2    -75.3224043 -0.160803E-06  0.157E-02    2.26       1.0  T
   3    -75.3224042  0.612284E-07  0.167E-03    2.26       8.8  T
   4    -75.3224043 -0.105015E-06  0.708E-04    2.26      20.6  T
   5    -75.3224044 -0.113578E-07  0.366E-04    2.26      39.8  T
     SCC iter.                  ...        0 min,  0.020 sec
     gradient                   ...        0 min,  0.006 sec
 * total energy  :   -74.3133630 Eh     change       -0.1070146E-04 Eh
   gradient norm :     0.0014175 Eh/α   predicted    -0.5900162E-05 ( -44.87%)
   displ. norm   :     0.0954681 α      lambda       -0.6545435E-05
   maximum displ.:     0.0587981 α      in ANC's #1, #3, #4, ...

........................................................................
.............................. CYCLE   41 ..............................
........................................................................

 iter      E             dE          RMSdq      gap      omega  full diag
   1    -75.3220539 -0.753221E+02  0.241E-02    2.26       0.0  T
   2    -75.3220540 -0.623548E-07  0.142E-02    2.26       1.0  T
   3    -75.3220539  0.199539E-07  0.103E-03    2.26      14.2  T
   4    -75.3220540 -0.454017E-07  0.417E-04    2.26      35.0  T
   5    -75.3220540 -0.197721E-08  0.228E-04    2.26      63.9  T
     SCC iter.                  ...        0 min,  0.012 sec
     gradient                   ...        0 min,  0.008 sec
 * total energy  :   -74.3133708 Eh     change       -0.7878546E-05 Eh
   gradient norm :     0.0014126 Eh/α   predicted    -0.3289742E-05 ( -58.24%)
   displ. norm   :     0.1445281 α      lambda       -0.1004741E-04
   maximum displ.:     0.0855119 α      in ANC's #1, #3, #4, ...

........................................................................
.............................. CYCLE   42 ..............................
........................................................................

 iter      E             dE          RMSdq      gap      omega  full diag
   1    -75.3225152 -0.753225E+02  0.349E-02    2.26       0.0  T
   2    -75.3225153 -0.930056E-07  0.206E-02    2.26       1.0  T
   3    -75.3225153  0.215417E-07  0.127E-03    2.26      11.5  T
   4    -75.3225154 -0.682981E-07  0.498E-04    2.26      29.3  T
   5    -75.3225154 -0.572626E-09  0.210E-04    2.26      69.6  T
     SCC iter.                  ...        0 min,  0.013 sec
     gradient                   ...        0 min,  0.006 sec
 * total energy  :   -74.3133805 Eh     change       -0.9641056E-05 Eh
   gradient norm :     0.0009398 Eh/α   predicted    -0.5070987E-05 ( -47.40%)
   displ. norm   :     0.1071397 α      lambda       -0.5390463E-05
   maximum displ.:     0.0692689 α      in ANC's #1, #3, #4, ...
 * RMSD in coord.:     0.4259557 α      energy gain  -0.6858714E-03 Eh

generating ANC from exact Hessian ...
Using Lindh-Hessian (1995)
 Shifting diagonal of input Hessian by   9.918284046739553E-003
 Lowest  eigenvalues of input Hessian
    0.000000    0.000000    0.000000    0.000000    0.000000    0.000000
    0.010000    0.010325    0.010472    0.010580    0.011352    0.011405
    0.011616    0.012303    0.012568    0.013112    0.013833    0.014940
 Highest eigenvalues
    1.965154    2.010705    2.025681    2.038303    2.148724    2.210534
 

........................................................................
.............................. CYCLE   43 ..............................
........................................................................

 iter      E             dE          RMSdq      gap      omega  full diag
   1    -75.3220776 -0.753221E+02  0.265E-02    2.26       0.0  T
   2    -75.3220777 -0.621385E-07  0.156E-02    2.26       1.0  T
   3    -75.3220777  0.413208E-08  0.951E-04    2.26      15.3  T
   4    -75.3220777 -0.318179E-07  0.397E-04    2.26      36.8  T
     SCC iter.                  ...        0 min,  0.011 sec
     gradient                   ...        0 min,  0.006 sec
 * total energy  :   -74.3133859 Eh     change       -0.5410059E-05 Eh
   gradient norm :     0.0006763 Eh/α   predicted     0.0000000E+00 (-100.00%)
   displ. norm   :     0.0183594 α      lambda       -0.2451191E-05
   maximum displ.:     0.0084704 α      in ANC's #1, #11, #3, ...

........................................................................
.............................. CYCLE   44 ..............................
........................................................................

 iter      E             dE          RMSdq      gap      omega  full diag
   1    -75.3223054 -0.753223E+02  0.507E-03    2.26       0.0  T
   2    -75.3223054 -0.604035E-08  0.302E-03    2.26       4.8  T
   3    -75.3223054  0.243285E-07  0.829E-04    2.26      17.6  T
   4    -75.3223054 -0.281780E-07  0.151E-04    2.26      96.4  T
     SCC iter.                  ...        0 min,  0.011 sec
     gradient                   ...        0 min,  0.006 sec
 * total energy  :   -74.3133888 Eh     change       -0.2874639E-05 Eh
   gradient norm :     0.0002345 Eh/α   predicted    -0.1239743E-05 ( -56.87%)
   displ. norm   :     0.0541227 α      lambda       -0.4670103E-05
   maximum displ.:     0.0248643 α      in ANC's #1, #3, #11, ...

   *** GEOMETRY OPTIMIZATION CONVERGED AFTER 44 ITERATIONS ***

------------------------------------------------------------------------
 total energy gain   :        -0.0385947 Eh      -24.2186 kcal/mol
 total RMSD          :         0.9215474 a0        0.4877 Å
 total power (kW/mol):        -2.3029654 (step)  -64.4270 (real)
------------------------------------------------------------------------

 ANCopt (total)                0 d,  0 h,  0 min,  1.573 sec
 optimizer setup                ...        0 min,  0.000 sec (  0.009%)
 model hessian                  ...        0 min,  0.088 sec (  5.621%)
 ANC generation                 ...        0 min,  0.008 sec (  0.483%)
 coordinate transformation      ...        0 min,  0.001 sec (  0.070%)
 single point calculation       ...        0 min,  1.409 sec ( 89.596%)
 optimization log               ...        0 min,  0.031 sec (  1.969%)
 hessian update                 ...        0 min,  0.016 sec (  1.024%)
 rational function              ...        0 min,  0.011 sec (  0.684%)

================
 final structure:
================
47
 xtb: 6.7.1 (edcfbbe)
O            7.92048835543383        0.37588770036258        2.26488591045267
C            7.56861205338553       -0.88035406566040        1.75808249057962
C            6.44137900284334       -0.83227768836684        0.72271439926185
O            5.25764502579004       -0.43863091711018        1.37971531172029
C            4.10638707307263       -0.34150523578773        0.67428695949283
C            2.98009908143593        0.05739009221035        1.40354907415026
C            1.75618536119378        0.17980536303993        0.79389823518921
C            1.60127606086123       -0.09230041731223       -0.57259771816850
C            0.33360021988185        0.00093310958959       -1.25446197232908
C           -0.84304701973462        0.39226332289289       -0.73583655468157
C           -2.04939544920469        0.41075701263548       -1.55807351570205
C           -3.30216536328117        0.89611535223076       -0.78419969792511
O           -4.31460926388706        1.14405071153913       -1.72233036202471
C           -5.58146551382947        1.42003234036459       -1.16173099394925
O           -3.02847203271167        2.04009287043583       -0.00187258713022
C           -2.59518591400757        3.15760508155180       -0.75163550157138
C           -3.62184268550611       -0.27072640786098        0.13630337818143
C           -3.43346673237971       -0.19408044250229        1.50842744295575
C           -3.70728137656773       -1.29372373821232        2.30312098064892
C           -4.16615957004193       -2.46933381485121        1.73407966650941
C           -4.35496340134138       -2.54573305693179        0.36367153310751
C           -4.07995564122303       -1.45199075708500       -0.43589569897254
O           -2.11080376054770        0.02579372176016       -2.70309811592883
C            2.73413140493302       -0.48462325531318       -1.28952543108751
C            3.96992604834161       -0.60797607457529       -0.68614913202409
H            8.12807941451281        0.97146294704079        1.53560212770695
H            7.23917633418504       -1.46316542640294        2.62024310409039
H            8.43680292132737       -1.37691436949816        1.29822760551032
H            6.32251549185919       -1.82885172692775        0.27589244422758
H            6.69363905568586       -0.11406781942517       -0.07250409790737
H            3.10551229575947        0.26145817940475        2.45506771071926
H            0.90360855507502        0.48339087133210        1.38007473543366
H            0.33397134679677       -0.28384637510476       -2.30069910042938
H           -0.95609272744239        0.70805370165484        0.28893185179577
H           -6.21034476187422        1.73505452111416       -1.99175361269582
H           -6.01018335327187        0.52986644629484       -0.68949790610497
H           -5.51804828016630        2.22048759035445       -0.41829149335271
H           -2.59995989621813        4.00031645486487       -0.06294547999413
H           -1.58304396478706        3.00282449370865       -1.14161749069573
H           -3.27034856716039        3.35589842151247       -1.58790415915421
H           -3.08771150923358        0.72973206645797        1.94441538291852
H           -3.56185580998183       -1.23070901043078        3.37166836399243
H           -4.37649266170305       -3.32589626912203        2.35756050598585
H           -4.71276460718749       -3.46101259151081       -0.08395622152146
H           -4.21504875271706       -1.49810247046055       -1.50648323209454
H            2.64136790731170       -0.69799889446029       -2.34457424828357
H            4.81630960631876       -0.91544954743165       -1.28049789090433
 
 Bond Distances (Angstroems)
 ---------------------------
O1-C2=1.3996         O1-H26=0.9642        C2-O1=1.3996         C2-C3=1.5313         C2-H27=1.0916        C2-H28=1.1008        
C3-C2=1.5313         C3-O4=1.4099         C3-H29=1.0986        C3-H30=1.1008        O4-C3=1.4099         O4-C5=1.3537         
C5-O4=1.3537         C5-C6=1.3998         C5-C25=1.3930        C6-C5=1.3998         C6-C7=1.3728         C6-H31=1.0785        
C7-C6=1.3728         C7-C8=1.4019         C7-H32=1.0783        C8-C7=1.4019         C8-C9=1.4424         C8-C24=1.3969        
C9-C8=1.4424         C9-C10=1.3441        C9-H33=1.0843        C10-C9=1.3441        C10-C11=1.4600       C10-H34=1.0783       
C11-C10=1.4600       C11-C12=1.5504       C11-O23=1.2096       C12-C11=1.5504       C12-O13=1.4024       C12-O15=1.4127       
C12-C17=1.5202       O13-C12=1.4024       O13-C14=1.4126       C14-O13=1.4126       C14-H35=1.0880       C14-H36=1.0951       
C14-H37=1.0943       O15-C12=1.4127       O15-C16=1.4138       C16-O15=1.4138       C16-H38=1.0883       C16-H39=1.0957       
C16-H40=1.0929       C17-C12=1.5202       C17-C18=1.3871       C17-C22=1.3902       C18-C17=1.3871       C18-C19=1.3841       
C18-H41=1.0785       C19-C18=1.3841       C19-C20=1.3844       C19-H42=1.0802       C20-C19=1.3844       C20-C21=1.3855       
C20-H43=1.0801       C21-C20=1.3855       C21-C22=1.3825       C21-H44=1.0799       C22-C17=1.3902       C22-C21=1.3825       
C22-H45=1.0801       O23-C11=1.2096       C24-C8=1.3969        C24-C25=1.3807       C24-H46=1.0804       C25-C5=1.3930        
C25-C24=1.3807       C25-H47=1.0790       H26-O1=0.9642        H27-C2=1.0916        H28-C2=1.1008        H29-C3=1.0986        
H30-C3=1.1008        H31-C6=1.0785        H32-C7=1.0783        H33-C9=1.0843        H34-C10=1.0783       H35-C14=1.0880       
H36-C14=1.0951       H37-C14=1.0943       H38-C16=1.0883       H39-C16=1.0957       H40-C16=1.0929       H41-C18=1.0785       
H42-C19=1.0802       H43-C20=1.0801       H44-C21=1.0799       H45-C22=1.0801       H46-C24=1.0804       H47-C25=1.0790       
 C  H  Rav=1.0868 sigma=0.0081  Rmin=1.0783  Rmax=1.1008    21
 C  C  Rav=1.4171 sigma=0.0578  Rmin=1.3441  Rmax=1.5504    18
 O  H  Rav=0.9642 sigma=0.0000  Rmin=0.9642  Rmax=0.9642     1
 O  C  Rav=1.3768 sigma=0.0659  Rmin=1.2096  Rmax=1.4138     8
 
 selected bond angles (degree)
 --------------------
H26-O1-C2=109.55               C3-C2-O1=113.69                H27-C2-O1=105.61               H27-C2-C3=109.19               
H28-C2-O1=110.97               H28-C2-C3=108.20               H28-C2-H27=109.09              O4-C3-C2=108.16                
H29-C3-C2=109.04               H29-C3-O4=110.61               H30-C3-C2=109.89               H30-C3-O4=110.30               
H30-C3-H29=108.83              C5-O4-C3=119.42                C6-C5-O4=115.67                C25-C5-O4=125.35               
C25-C5-C6=118.98               C7-C6-C5=120.76                H31-C6-C5=117.93               H31-C6-C7=121.32               
C8-C7-C6=120.94                H32-C7-C6=119.25               H32-C7-C8=119.81               C9-C8-C7=123.05                
C24-C8-C7=117.72               C24-C8-C9=119.23               C10-C9-C8=127.28               H33-C9-C8=116.03               
H33-C9-C10=116.68              C11-C10-C9=120.64              H34-C10-C9=122.94              H34-C10-C11=116.42             
 
 selected dihedral angles (degree)
 ---------------------------------
C3-C2-O1-H26=305.96           H27-C2-O1-H26=186.28          H28-C2-O1-H26= 68.19          O4-C3-C2-O1=292.54            
O4-C3-C2-H27= 50.17           O4-C3-C2-H28=168.79           H29-C3-C2-O1=172.20           H29-C3-C2-H27=289.83          
H29-C3-C2-H28= 48.45          H30-C3-C2-O1= 52.99           H30-C3-C2-H27=170.63          H30-C3-C2-H28=289.24          
C5-O4-C3-C2=180.99            C5-O4-C3-H29=300.34           C5-O4-C3-H30= 60.78           C6-C5-O4-C3=180.10            
C25-C5-O4-C3=  0.32           C7-C6-C5-O4=180.51            C7-C6-C5-C25=  0.30           H31-C6-C5-O4=  0.34           
H31-C6-C5-C25=180.14          C8-C7-C6-C5=  0.07            C8-C7-C6-H31=180.24           H32-C7-C6-C5=179.65           
H32-C7-C6-H31=359.82          C9-C8-C7-C6=178.99            C9-C8-C7-H32=359.41           C24-C8-C7-C6=359.70           
C24-C8-C7-H32=180.12          C10-C9-C8-C7=  2.59           C10-C9-C8-C24=181.87          H33-C9-C8-C7=183.02           
H33-C9-C8-C24=  2.30          C11-C10-C9-C8=181.05          C11-C10-C9-H33=  0.62         H34-C10-C9-C8=  1.21          
H34-C10-C9-H33=180.77         
           -------------------------------------------------
          |                Final Singlepoint                |
           -------------------------------------------------

          ...................................................
          :                      SETUP                      :
          :.................................................:
          :  # basis functions                 122          :
          :  # atomic orbitals                 122          :
          :  # shells                           72          :
          :  # electrons                       132          :
          :  max. iterations                   250          :
          :  Hamiltonian                  GFN2-xTB          :
          :  restarted?                      false          :
          :  GBSA solvation                  false          :
          :  PC potential                    false          :
          :  electronic temp.          300.0000000     K    :
          :  accuracy                    1.0000000          :
          :  -> integral cutoff          0.2500000E+02      :
          :  -> integral neglect         0.1000000E-07      :
          :  -> SCF convergence          0.1000000E-05 Eh   :
          :  -> wf. convergence          0.1000000E-03 e    :
          :  Broyden damping             0.4000000          :
          :  net charge                          0          :
          :  unpaired electrons                  0          :
          ...................................................

 iter      E             dE          RMSdq      gap      omega  full diag
   1    -75.3223054 -0.753223E+02  0.826E-05    2.26       0.0  T
   2    -75.3223054 -0.335234E-10  0.556E-05    2.26     262.4  T
   3    -75.3223054 -0.245564E-10  0.376E-05    2.26     388.0  T

   *** convergence criteria satisfied after 3 iterations ***

         #    Occupation            Energy/Eh            Energy/eV
      -------------------------------------------------------------
         1        2.0000           -0.7323388             -19.9280
       ...           ...                  ...                  ...
        60        2.0000           -0.4206962             -11.4477
        61        2.0000           -0.4198251             -11.4240
        62        2.0000           -0.4091356             -11.1331
        63        2.0000           -0.4071889             -11.0802
        64        2.0000           -0.4036705             -10.9844
        65        2.0000           -0.3860288             -10.5044
        66        2.0000           -0.3760230             -10.2321 (HOMO)
        67                         -0.2931005              -7.9757 (LUMO)
        68                         -0.2366479              -6.4395
        69                         -0.2306384              -6.2760
        70                         -0.2257101              -6.1419
        71                         -0.2150608              -5.8521
       ...                                ...                  ...
       122                          0.7002060              19.0536
      -------------------------------------------------------------
                  HL-Gap            0.0829225 Eh            2.2564 eV
             Fermi-level           -0.3345618 Eh           -9.1039 eV

 SCC (total)                   0 d,  0 h,  0 min,  0.018 sec
 SCC setup                      ...        0 min,  0.001 sec (  4.933%)
 Dispersion                     ...        0 min,  0.000 sec (  1.721%)
 classical contributions        ...        0 min,  0.000 sec (  1.011%)
 integral evaluation            ...        0 min,  0.001 sec (  8.003%)
 iterations                     ...        0 min,  0.008 sec ( 45.911%)
 molecular gradient             ...        0 min,  0.006 sec ( 32.874%)
 printout                       ...        0 min,  0.001 sec (  5.398%)

         :::::::::::::::::::::::::::::::::::::::::::::::::::::
         ::                     SUMMARY                     ::
         :::::::::::::::::::::::::::::::::::::::::::::::::::::
         :: total energy             -74.313388760220 Eh    ::
         :: gradient norm              0.000239942415 Eh/a0 ::
         :: HOMO-LUMO gap              2.256436135705 eV    ::
         ::.................................................::
         :: SCC energy               -75.321981100970 Eh    ::
         :: -> isotropic ES            0.102022261809 Eh    ::
         :: -> anisotropic ES          0.004546910816 Eh    ::
         :: -> anisotropic XC          0.020316849411 Eh    ::
         :: -> dispersion             -0.047806952764 Eh    ::
         :: repulsion energy           1.008592340750 Eh    ::
         :: add. restraining           0.000000000000 Eh    ::
         :: total charge               0.000000000000 e     ::
         :::::::::::::::::::::::::::::::::::::::::::::::::::::

           -------------------------------------------------
          |                Property Printout                |
           -------------------------------------------------

    * Orbital Energies and Occupations

         #    Occupation            Energy/Eh            Energy/eV
      -------------------------------------------------------------
         1        2.0000           -0.7323388             -19.9280
       ...           ...                  ...                  ...
        54        2.0000           -0.4477424             -12.1837
        55        2.0000           -0.4331393             -11.7863
        56        2.0000           -0.4316252             -11.7451
        57        2.0000           -0.4292252             -11.6798
        58        2.0000           -0.4285351             -11.6610
        59        2.0000           -0.4269443             -11.6177
        60        2.0000           -0.4206962             -11.4477
        61        2.0000           -0.4198251             -11.4240
        62        2.0000           -0.4091356             -11.1331
        63        2.0000           -0.4071889             -11.0802
        64        2.0000           -0.4036705             -10.9844
        65        2.0000           -0.3860288             -10.5044
        66        2.0000           -0.3760230             -10.2321 (HOMO)
        67                         -0.2931005              -7.9757 (LUMO)
        68                         -0.2366479              -6.4395
        69                         -0.2306384              -6.2760
        70                         -0.2257101              -6.1419
        71                         -0.2150608              -5.8521
        72                         -0.1604167              -4.3652
        73                         -0.0970858              -2.6418
        74                         -0.0879849              -2.3942
        75                          0.0028465               0.0775
        76                          0.0123314               0.3356
        77                          0.0338417               0.9209
       ...                                ...                  ...
       122                          0.7002060              19.0536
      -------------------------------------------------------------
                  HL-Gap            0.0829225 Eh            2.2564 eV
             Fermi-level           -0.3345618 Eh           -9.1039 eV

     #   Z          covCN         q      C6AA      α(0)
     1   8 O        1.656    -0.423    21.293     6.229
     2   6 C        3.674     0.074    19.561     6.338
     3   6 C        3.691     0.071    19.562     6.329
     4   8 O        1.706    -0.254    18.206     5.761
     5   6 C        2.865     0.149    24.757     8.156
     6   6 C        2.917    -0.052    29.283     8.874
     7   6 C        2.922    -0.028    28.695     8.785
     8   6 C        2.969     0.006    27.888     8.662
     9   6 C        2.907    -0.009    28.250     8.715
    10   6 C        2.894    -0.069    29.728     8.939
    11   6 C        2.832     0.211    23.536     7.950
    12   6 C        3.707     0.249    16.882     5.873
    13   8 O        1.701    -0.317    19.291     5.930
    14   6 C        3.647     0.046    20.129     6.447
    15   8 O        1.700    -0.336    19.635     5.983
    16   6 C        3.647     0.046    20.133     6.448
    17   6 C        2.985    -0.010    28.265     8.721
    18   6 C        2.921    -0.031    28.784     8.798
    19   6 C        2.921    -0.029    28.725     8.789
    20   6 C        2.920    -0.030    28.747     8.792
    21   6 C        2.920    -0.028    28.711     8.787
    22   6 C        2.923    -0.032    28.796     8.800
    23   8 O        0.857    -0.350    20.714     6.102
    24   6 C        2.929    -0.030    28.744     8.792
    25   6 C        2.913    -0.067    29.658     8.930
    26   1 H        0.805     0.291     0.750     1.360
    27   1 H        0.924     0.074     2.047     2.237
    28   1 H        0.923     0.027     2.627     2.535
    29   1 H        0.923     0.035     2.514     2.479
    30   1 H        0.923     0.033     2.540     2.492
    31   1 H        0.926     0.058     2.225     2.333
    32   1 H        0.926     0.049     2.326     2.385
    33   1 H        0.925     0.069     2.097     2.265
    34   1 H        0.926     0.054     2.272     2.357
    35   1 H        0.925     0.059     2.208     2.323
    36   1 H        0.924     0.031     2.575     2.509
    37   1 H        0.924     0.039     2.457     2.452
    38   1 H        0.925     0.057     2.240     2.340
    39   1 H        0.924     0.027     2.626     2.534
    40   1 H        0.924     0.047     2.352     2.398
    41   1 H        0.926     0.050     2.321     2.383
    42   1 H        0.926     0.036     2.500     2.472
    43   1 H        0.926     0.035     2.511     2.478
    44   1 H        0.926     0.038     2.481     2.463
    45   1 H        0.926     0.051     2.308     2.376
    46   1 H        0.926     0.046     2.372     2.409
    47   1 H        0.926     0.036     2.504     2.475

 Mol. C6AA /au·bohr⁶  :      24548.508942
 Mol. C8AA /au·bohr⁸  :     577480.510902
 Mol. α(0) /au        :        243.984795


Wiberg/Mayer (AO) data.
largest (>0.10) Wiberg bond orders for each atom

 ---------------------------------------------------------------------------
     #   Z sym  total        # sym  WBO       # sym  WBO       # sym  WBO
 ---------------------------------------------------------------------------
     1   8 O    1.975 --     2 C    1.015    26 H    0.899
     2   6 C    3.961 --     1 O    1.015     3 C    0.990    27 H    0.968
                            28 H    0.966
     3   6 C    3.950 --     2 C    0.990     4 O    0.973    29 H    0.966
                            30 H    0.964
     4   8 O    2.245 --     5 C    1.080     3 C    0.973
     5   6 C    3.923 --    25 C    1.358     6 C    1.322     4 O    1.080
     6   6 C    3.986 --     7 C    1.510     5 C    1.322    31 H    0.967
     7   6 C    3.990 --     6 C    1.510     8 C    1.329    32 H    0.965
     8   6 C    3.990 --    24 C    1.360     7 C    1.329     9 C    1.137
     9   6 C    3.977 --    10 C    1.729     8 C    1.137    33 H    0.957
    10   6 C    3.978 --     9 C    1.729    11 C    1.083    34 H    0.960
    11   6 C    3.927 --    23 O    1.806    10 C    1.083    12 C    0.898
    12   6 C    3.923 --    13 O    0.975    15 O    0.959    17 C    0.945
                            11 C    0.898
    13   8 O    2.094 --    14 C    0.983    12 C    0.975
    14   6 C    3.947 --    13 O    0.983    35 H    0.980    37 H    0.980
                            36 H    0.978
    15   8 O    2.078 --    16 C    0.983    12 C    0.959
    16   6 C    3.946 --    15 O    0.983    38 H    0.981    40 H    0.979
                            39 H    0.977
    17   6 C    3.983 --    18 C    1.412    22 C    1.404    12 C    0.945
                            20 C    0.107
    18   6 C    3.990 --    19 C    1.440    17 C    1.412    41 H    0.966
                            21 C    0.110
    19   6 C    3.991 --    20 C    1.441    18 C    1.440    42 H    0.970
                            22 C    0.111
    20   6 C    3.987 --    19 C    1.441    21 C    1.434    43 H    0.971
                            17 C    0.107
    21   6 C    3.992 --    22 C    1.449    20 C    1.434    44 H    0.971
                            18 C    0.110
    22   6 C    3.990 --    21 C    1.449    17 C    1.404    45 H    0.967
                            19 C    0.111
    23   8 O    2.068 --    11 C    1.806
    24   6 C    3.989 --    25 C    1.465     8 C    1.360    46 H    0.968
    25   6 C    3.986 --    24 C    1.465     5 C    1.358    47 H    0.966
    26   1 H    0.915 --     1 O    0.899
    27   1 H    0.995 --     2 C    0.968
    28   1 H    0.999 --     2 C    0.966
    29   1 H    0.998 --     3 C    0.966
    30   1 H    0.998 --     3 C    0.964
    31   1 H    0.996 --     6 C    0.967
    32   1 H    0.997 --     7 C    0.965
    33   1 H    0.995 --     9 C    0.957
    34   1 H    0.997 --    10 C    0.960
    35   1 H    0.996 --    14 C    0.980
    36   1 H    0.999 --    14 C    0.978
    37   1 H    0.998 --    14 C    0.980
    38   1 H    0.996 --    16 C    0.981
    39   1 H    0.999 --    16 C    0.977
    40   1 H    0.998 --    16 C    0.979
    41   1 H    0.998 --    18 C    0.966
    42   1 H    0.998 --    19 C    0.970
    43   1 H    0.998 --    20 C    0.971
    44   1 H    0.998 --    21 C    0.971
    45   1 H    0.997 --    22 C    0.967
    46   1 H    0.998 --    24 C    0.968
    47   1 H    0.998 --    25 C    0.966
 ---------------------------------------------------------------------------

Topologies differ in total number of bonds
Writing topology from bond orders to xtbtopo.mol

molecular dipole:
                 x           y           z       tot (Debye)
 q only:        1.342      -0.189       0.556
   full:        1.409      -0.146       0.298       3.679
molecular quadrupole (traceless):
                xx          xy          yy          xz          yz          zz
 q only:       18.273      -5.042       2.150     -21.103      -3.010     -20.423
  q+dip:       19.101      -6.405       1.829     -29.814      -2.539     -20.930
   full:       20.124      -6.244       4.512     -30.297      -3.932     -24.636

           -------------------------------------------------
          |                Geometry Summary                 |
           -------------------------------------------------

      molecular mass/u    :      342.3864391
   center of mass at/Å    :       -0.0375662      -0.0212618       0.0513922
  moments of inertia/u·Å² :        0.1091381E+04   0.6568570E+04   0.6940844E+04
rotational constants/cm⁻¹ :        0.1544615E-01   0.2566408E-02   0.2428758E-02

 * 44 selected distances

     #   Z          #   Z                                           value/Å
     1   8 O        2   6 C                                       1.3995751
     2   6 C        3   6 C                                       1.5313240 (max)
     3   6 C        4   8 O                                       1.4099058
     4   8 O        5   6 C                                       1.3536830
     5   6 C        6   6 C                                       1.3998092
     6   6 C        7   6 C                                       1.3728164
     7   6 C        8   6 C                                       1.4019094
     9   6 C       10   6 C                                       1.3441022
    12   6 C       13   8 O                                       1.4023566
    13   8 O       14   6 C                                       1.4125731
    12   6 C       15   8 O                                       1.4126672
    15   8 O       16   6 C                                       1.4137592
    17   6 C       18   6 C                                       1.3871139
    18   6 C       19   6 C                                       1.3840983
    19   6 C       20   6 C                                       1.3843542
    20   6 C       21   6 C                                       1.3854611
    17   6 C       22   6 C                                       1.3902033
    21   6 C       22   6 C                                       1.3824650
    11   6 C       23   8 O                                       1.2095658
     8   6 C       24   6 C                                       1.3968766
     5   6 C       25   6 C                                       1.3929878
    24   6 C       25   6 C                                       1.3807489
     1   8 O       26   1 H                                       0.9641882 (min)
     2   6 C       27   1 H                                       1.0915668
     2   6 C       28   1 H                                       1.1008153
     3   6 C       29   1 H                                       1.0986075
     3   6 C       30   1 H                                       1.1008330
     6   6 C       31   1 H                                       1.0784544
     7   6 C       32   1 H                                       1.0782646
     9   6 C       33   1 H                                       1.0843025
    10   6 C       34   1 H                                       1.0782641
    14   6 C       35   1 H                                       1.0879641
    14   6 C       36   1 H                                       1.0950793
    14   6 C       37   1 H                                       1.0942819
    16   6 C       38   1 H                                       1.0883379
    16   6 C       39   1 H                                       1.0956617
    16   6 C       40   1 H                                       1.0929366
    18   6 C       41   1 H                                       1.0784535
    19   6 C       42   1 H                                       1.0802376
    20   6 C       43   1 H                                       1.0801240
    21   6 C       44   1 H                                       1.0798746
    22   6 C       45   1 H                                       1.0800622
    24   6 C       46   1 H                                       1.0803992
    25   6 C       47   1 H                                       1.0789605

 * 4 distinct bonds (by element types)

   Z      Z             #   av. dist./Å        max./Å        min./Å
   1 H    6 C          21     1.0868324     1.1008330     1.0782641
   6 C    6 C          14     1.3953050     1.5313240     1.3441022
   1 H    8 O           1     0.9641882     0.9641882     0.9641882
   6 C    8 O           8     1.3767607     1.4137592     1.2095658


optimized geometry written to: xtbopt.xyz


           -------------------------------------------------
          | TOTAL ENERGY              -74.313388760220 Eh   |
          | GRADIENT NORM               0.000239942415 Eh/α |
          | HOMO-LUMO GAP               2.256436135705 eV   |
           -------------------------------------------------

------------------------------------------------------------------------
 * finished run on 2025/12/01 at 14:17:45.070     
------------------------------------------------------------------------
 total:
 * wall-time:     0 d,  0 h,  0 min,  1.704 sec
 *  cpu-time:     0 d,  0 h,  0 min, 38.318 sec
 * ratio c/w:    22.493 speedup
 SCF:
 * wall-time:     0 d,  0 h,  0 min,  0.069 sec
 *  cpu-time:     0 d,  0 h,  0 min,  1.610 sec
 * ratio c/w:    23.358 speedup
 ANC optimizer:
 * wall-time:     0 d,  0 h,  0 min,  1.592 sec
 *  cpu-time:     0 d,  0 h,  0 min, 36.289 sec
 * ratio c/w:    22.792 speedup

normal termination of xtb
