      -----------------------------------------------------------      
     |                   =====================                   |     
     |                           x T B                           |     
     |                   =====================                   |     
     |                         S. Grimme                         |     
     |          Mulliken Center for Theoretical Chemistry        |     
     |                    University of Bonn                     |     
      -----------------------------------------------------------      

   * xtb version 6.7.1 (edcfbbe) compiled by 'albert@albert-system' on 2024-07-22

   xtb is free software: you can redistribute it and/or modify it under
   the terms of the GNU Lesser General Public License as published by
   the Free Software Foundation, either version 3 of the License, or
   (at your option) any later version.
   
   xtb is distributed in the hope that it will be useful,
   but WITHOUT ANY WARRANTY; without even the implied warranty of
   MERCHANTABILITY or FITNESS FOR A PARTICULAR PURPOSE.  See the
   GNU Lesser General Public License for more details.
   
   Cite this work as:
   * C. Bannwarth, E. Caldeweyher, S. Ehlert, A. Hansen, P. Pracht,
     J. Seibert, S. Spicher, S. Grimme, WIREs Comput. Mol. Sci., 2020, 11,
     e01493. DOI: 10.1002/wcms.1493
   
   for GFN2-xTB:
   * C. Bannwarth, S. Ehlert and S. Grimme., J. Chem. Theory Comput., 2019,
     15, 1652-1671. DOI: 10.1021/acs.jctc.8b01176
   for GFN1-xTB:
   * S. Grimme, C. Bannwarth, P. Shushkov, J. Chem. Theory Comput., 2017,
     13, 1989-2009. DOI: 10.1021/acs.jctc.7b00118
   for GFN0-xTB:
   * P. Pracht, E. Caldeweyher, S. Ehlert, S. Grimme, ChemRxiv, 2019, preprint.
     DOI: 10.26434/chemrxiv.8326202.v1
   for GFN-FF:
   * S. Spicher and S. Grimme, Angew. Chem. Int. Ed., 2020, 59, 15665-15673.
     DOI: 10.1002/anie.202004239
   
   for ALPB and GBSA implicit solvation:
   * S. Ehlert, M. Stahn, S. Spicher, S. Grimme, J. Chem. Theory Comput.,
     2021, 17, 4250-4261. DOI: 10.1021/acs.jctc.1c00471
   
   for ddCOSMO and CPCM-X implicit solvation:
   * M. Stahn, S. Ehlert, S. Grimme, J. Phys. Chem. A,
     2023, XX, XXXX-XXXX. DOI: 10.1021/acs.jpca.3c04382
   
   for DFT-D4:
   * E. Caldeweyher, C. Bannwarth and S. Grimme, J. Chem. Phys., 2017,
     147, 034112. DOI: 10.1063/1.4993215
   * E. Caldeweyher, S. Ehlert, A. Hansen, H. Neugebauer, S. Spicher,
     C. Bannwarth and S. Grimme, J. Chem. Phys., 2019, 150, 154122.
     DOI: 10.1063/1.5090222
   * E. Caldeweyher, J.-M. Mewes, S. Ehlert and S. Grimme, Phys. Chem. Chem. Phys.
     2020, 22, 8499-8512. DOI: 10.1039/D0CP00502A
   
   for sTDA-xTB:
   * S. Grimme and C. Bannwarth, J. Chem. Phys., 2016, 145, 054103.
     DOI: 10.1063/1.4959605
   
   in the mass-spec context:
   * V. Asgeirsson, C. Bauer and S. Grimme, Chem. Sci., 2017, 8, 4879.
     DOI: 10.1039/c7sc00601b
   * J. Koopman and S. Grimme, ACS Omega 2019, 4, 12, 15120-15133.
     DOI: 10.1021/acsomega.9b02011
   
   for metadynamics refer to:
   * S. Grimme, J. Chem. Theory Comput., 2019, 155, 2847-2862
     DOI: 10.1021/acs.jctc.9b00143
   
   for SPH calculations refer to:
   * S. Spicher and S. Grimme, J. Chem. Theory Comput., 2021, 17, 1701-1714
     DOI: 10.1021/acs.jctc.0c01306
   
   for ONIOM refer to:
   * C. Plett, A. Katbashev, S. Ehlert, S. Grimme, M. Bursch,
     Phys. Chem. Chem. Phys., 2023, 25, 17860-17868. DOI: 10.1039/D3CP02178E
   
   for DIPRO refer to:
   * J. Kohn, N. Gildemeister, S. Grimme, D. Fazzi, A. Hansen,
     J. Chem. Phys., 2023, just accepted.
   
   for PTB refer to:
   * S. Grimme, M. Mueller, A. Hansen, J. Chem. Phys., 2023, 158, 124111.
     DOI: 10.1063/5.0137838
   
   with help from (in alphabetical order)
   P. Atkinson, C. Bannwarth, F. Bohle, G. Brandenburg, E. Caldeweyher
   M. Checinski, S. Dohm, S. Ehlert, S. Ehrlich, I. Gerasimov, C. Hölzer
   A. Katbashev, J. Kohn, J. Koopman, C. Lavigne, S. Lehtola, F. März, M. Müller,
   F. Musil, H. Neugebauer, J. Pisarek, C. Plett, P. Pracht, F. Pultar,
   J. Seibert, P. Shushkov, S. Spicher, M. Stahn, M. Steiner, T. Strunk,
   J. Stückrath, T. Rose, and J. Unsleber
   
 * started run on 2025/12/01 at 14:17:46.262     
   ID    Z sym.   atoms
    1    8 O      1, 4, 13, 15, 23
    2    6 C      2, 3, 5-12, 14, 16-22, 24, 25
    3    1 H      26-47

           -------------------------------------------------
          |                Calculation Setup                |
           -------------------------------------------------

          program call               : xtb pipeline_data/3_conformer_xyz/acrylates/rdkit/IWBDNDKRBBFYKG-JLHYYAGUSA-N_conf199.xyz --opt --gfn 2-xTB --iterations 250
          coordinate file            : pipeline_data/3_conformer_xyz/acrylates/rdkit/IWBDNDKRBBFYKG-JLHYYAGUSA-N_conf199.xyz
          omp threads                :                    24

########################################################################
[WARNING] Please study the warnings concerning your input carefully
-1- readin_getIntValue: could not parse '2-xTB'
########################################################################

           -------------------------------------------------
          |                 G F N 2 - x T B                 |
           -------------------------------------------------

        Reference                      10.1021/acs.jctc.8b01176
      * Hamiltonian:
        H0-scaling (s, p, d)           1.850000    2.230000    2.230000
        zeta-weighting                 0.500000
      * Dispersion:
        s8                             2.700000
        a1                             0.520000
        a2                             5.000000
        s9                             5.000000
      * Repulsion:
        kExp                           1.500000    1.000000
        rExp                           1.000000
      * Coulomb:
        alpha                          2.000000
        third order                    shell-resolved
        anisotropic                    true
        a3                             3.000000
        a5                             4.000000
        cn-shift                       1.200000
        cn-exp                         4.000000
        max-rad                        5.000000

q/qsh data taken from xtbrestart
CAMM data taken from xtbrestart

          ...................................................
          :                      SETUP                      :
          :.................................................:
          :  # basis functions                 122          :
          :  # atomic orbitals                 122          :
          :  # shells                           72          :
          :  # electrons                       132          :
          :  max. iterations                   250          :
          :  Hamiltonian                  GFN2-xTB          :
          :  restarted?                       true          :
          :  GBSA solvation                  false          :
          :  PC potential                    false          :
          :  electronic temp.          300.0000000     K    :
          :  accuracy                    1.0000000          :
          :  -> integral cutoff          0.2500000E+02      :
          :  -> integral neglect         0.1000000E-07      :
          :  -> SCF convergence          0.1000000E-05 Eh   :
          :  -> wf. convergence          0.1000000E-03 e    :
          :  Broyden damping             0.4000000          :
          :  net charge                          0          :
          :  unpaired electrons                  0          :
          ...................................................

 iter      E             dE          RMSdq      gap      omega  full diag
   1    -75.2906268 -0.752906E+02  0.356E+00    1.97       0.0  T
   2    -75.2991880 -0.856121E-02  0.211E+00    2.17       1.0  T
   3    -75.2865000  0.126879E-01  0.584E-01    2.08       1.0  T
   4    -75.3024114 -0.159114E-01  0.153E-01    2.20       1.0  T
   5    -75.3027934 -0.382046E-03  0.827E-02    2.17       1.0  T
   6    -75.3028460 -0.525079E-04  0.369E-02    2.18       1.0  T
   7    -75.3028690 -0.229986E-04  0.134E-02    2.17       1.1  T
   8    -75.3028718 -0.284307E-05  0.574E-03    2.18       2.5  T
   9    -75.3028724 -0.609411E-06  0.247E-03    2.18       5.9  T
  10    -75.3028725 -0.601836E-07  0.111E-03    2.18      13.1  T
  11    -75.3028725 -0.163035E-07  0.389E-04    2.18      37.5  T
  12    -75.3028725 -0.234704E-08  0.168E-04    2.18      86.9  T

   *** convergence criteria satisfied after 12 iterations ***

         #    Occupation            Energy/Eh            Energy/eV
      -------------------------------------------------------------
         1        2.0000           -0.7359872             -20.0272
       ...           ...                  ...                  ...
        60        2.0000           -0.4251218             -11.5682
        61        2.0000           -0.4227373             -11.5033
        62        2.0000           -0.4147702             -11.2865
        63        2.0000           -0.4126311             -11.2283
        64        2.0000           -0.4026576             -10.9569
        65        2.0000           -0.3954617             -10.7611
        66        2.0000           -0.3831680             -10.4265 (HOMO)
        67                         -0.3032097              -8.2508 (LUMO)
        68                         -0.2424383              -6.5971
        69                         -0.2334092              -6.3514
        70                         -0.2303691              -6.2687
        71                         -0.2261591              -6.1541
       ...                                ...                  ...
       122                          0.7094256              19.3045
      -------------------------------------------------------------
                  HL-Gap            0.0799582 Eh            2.1758 eV
             Fermi-level           -0.3431888 Eh           -9.3386 eV

 SCC (total)                   0 d,  0 h,  0 min,  0.085 sec
 SCC setup                      ...        0 min,  0.001 sec (  0.624%)
 Dispersion                     ...        0 min,  0.001 sec (  1.544%)
 classical contributions        ...        0 min,  0.000 sec (  0.464%)
 integral evaluation            ...        0 min,  0.004 sec (  4.821%)
 iterations                     ...        0 min,  0.069 sec ( 81.634%)
 molecular gradient             ...        0 min,  0.009 sec ( 10.525%)
 printout                       ...        0 min,  0.000 sec (  0.339%)

         :::::::::::::::::::::::::::::::::::::::::::::::::::::
         ::                     SUMMARY                     ::
         :::::::::::::::::::::::::::::::::::::::::::::::::::::
         :: total energy             -74.283610484733 Eh    ::
         :: gradient norm              0.177918899864 Eh/a0 ::
         :: HOMO-LUMO gap              2.175774616222 eV    ::
         ::.................................................::
         :: SCC energy               -75.302367982245 Eh    ::
         :: -> isotropic ES            0.102462042406 Eh    ::
         :: -> anisotropic ES          0.004714936892 Eh    ::
         :: -> anisotropic XC          0.018187324936 Eh    ::
         :: -> dispersion             -0.049526799170 Eh    ::
         :: repulsion energy           1.018757497513 Eh    ::
         :: add. restraining           0.000000000000 Eh    ::
         :: total charge              -0.000000000000 e     ::
         :::::::::::::::::::::::::::::::::::::::::::::::::::::

      ----------------------------------------------------------- 
     |                   =====================                   |
     |                        A N C O P T                        |
     |                   =====================                   |
     |               Approximate Normal Coordinate               |
     |                Rational Function Optimizer                |
      ----------------------------------------------------------- 
      ----------------------------------------------------------- 
     |                   =====================                   |
     |                        A N C O P T                        |
     |                   =====================                   |
     |               Approximate Normal Coordinate               |
     |                Rational Function Optimizer                |
      ----------------------------------------------------------- 

          ...................................................
          :                      SETUP                      :
          :.................................................:
          :   optimization level            normal          :
          :   max. optcycles                   200          :
          :   ANC micro-cycles                  20          :
          :   degrees of freedom               135          :
          :.................................................:
          :   RF solver                   davidson          :
          :   write xtbopt.log                true          :
          :   linear?                        false          :
          :   energy convergence         0.5000000E-05 Eh   :
          :   grad. convergence          0.1000000E-02 Eh/α :
          :   maxmium RF displ.          1.0000000          :
          :   Hlow (freq-cutoff)         0.1000000E-01      :
          :   Hmax (freq-cutoff)         5.0000000          :
          :   S6 in model hess.         20.0000000          :
          ...................................................

generating ANC from exact Hessian ...
Using Lindh-Hessian (1995)
 Shifting diagonal of input Hessian by   9.907669525298521E-003
 Lowest  eigenvalues of input Hessian
    0.000000    0.000000    0.000000    0.000000    0.000000    0.000000
    0.010000    0.010356    0.010481    0.010628    0.011339    0.011500
    0.011830    0.012502    0.012790    0.013640    0.014083    0.015537
 Highest eigenvalues
    1.969051    2.051951    2.060573    2.085026    2.135282    2.209616
 

........................................................................
.............................. CYCLE    1 ..............................
........................................................................

 iter      E             dE          RMSdq      gap      omega  full diag
   1    -75.3028725 -0.753029E+02  0.518E-05    2.18       0.0  T
   2    -75.3028725 -0.163993E-10  0.312E-05    2.18     467.2  T
   3    -75.3028725 -0.427747E-11  0.197E-05    2.18     740.6  T
     SCC iter.                  ...        0 min,  0.011 sec
     gradient                   ...        0 min,  0.006 sec
 * total energy  :   -74.2836105 Eh     change       -0.2625313E-09 Eh
   gradient norm :     0.1779189 Eh/α   predicted     0.0000000E+00 (-100.00%)
   displ. norm   :     0.3142959 α      lambda       -0.3384084E-01
   maximum displ.:     0.0897300 α      in ANC's #53, #81, #26, ...

........................................................................
.............................. CYCLE    2 ..............................
........................................................................

 iter      E             dE          RMSdq      gap      omega  full diag
   1    -75.3121173 -0.753121E+02  0.238E-01    2.20       0.0  T
   2    -75.3127905 -0.673119E-03  0.160E-01    2.23       1.0  T
   3    -75.3128387 -0.482265E-04  0.846E-02    2.21       1.0  T
   4    -75.3128702 -0.314987E-04  0.404E-02    2.21       1.0  T
   5    -75.3129280 -0.578096E-04  0.970E-03    2.21       1.5  T
   6    -75.3129302 -0.221659E-05  0.417E-03    2.21       3.5  T
   7    -75.3129307 -0.481144E-06  0.170E-03    2.21       8.6  T
   8    -75.3129307 -0.266186E-07  0.760E-04    2.21      19.2  T
   9    -75.3129307 -0.376137E-08  0.261E-04    2.21      55.9  T
     SCC iter.                  ...        0 min,  0.022 sec
     gradient                   ...        0 min,  0.006 sec
 * total energy  :   -74.3066799 Eh     change       -0.2306937E-01 Eh
   gradient norm :     0.0714072 Eh/α   predicted    -0.1859928E-01 ( -19.38%)
   displ. norm   :     0.2521311 α      lambda       -0.9082363E-02
   maximum displ.:     0.0910244 α      in ANC's #14, #35, #17, ...

........................................................................
.............................. CYCLE    3 ..............................
........................................................................

 iter      E             dE          RMSdq      gap      omega  full diag
   1    -75.3189632 -0.753190E+02  0.159E-01    2.24       0.0  T
   2    -75.3193379 -0.374691E-03  0.104E-01    2.25       1.0  T
   3    -75.3193776 -0.397559E-04  0.568E-02    2.24       1.0  T
   4    -75.3193816 -0.393002E-05  0.282E-02    2.24       1.0  T
   5    -75.3194096 -0.280063E-04  0.754E-03    2.24       1.9  T
   6    -75.3194111 -0.153761E-05  0.285E-03    2.24       5.1  T
   7    -75.3194114 -0.290698E-06  0.990E-04    2.24      14.7  T
   8    -75.3194114 -0.121893E-07  0.465E-04    2.24      31.4  T
     SCC iter.                  ...        0 min,  0.020 sec
     gradient                   ...        0 min,  0.005 sec
 * total energy  :   -74.3118428 Eh     change       -0.5162904E-02 Eh
   gradient norm :     0.0199268 Eh/α   predicted    -0.4832501E-02 (  -6.40%)
   displ. norm   :     0.1810247 α      lambda       -0.1100522E-02
   maximum displ.:     0.0920776 α      in ANC's #14, #6, #17, ...

........................................................................
.............................. CYCLE    4 ..............................
........................................................................

 iter      E             dE          RMSdq      gap      omega  full diag
   1    -75.3182264 -0.753182E+02  0.586E-02    2.25       0.0  T
   2    -75.3182340 -0.755223E-05  0.365E-02    2.24       1.0  T
   3    -75.3182224  0.115203E-04  0.193E-02    2.24       1.0  T
   4    -75.3182374 -0.149741E-04  0.448E-03    2.24       3.3  T
   5    -75.3182380 -0.556330E-06  0.179E-03    2.24       8.1  T
   6    -75.3182381 -0.940104E-07  0.750E-04    2.24      19.4  T
   7    -75.3182381 -0.123151E-07  0.373E-04    2.24      39.1  T
     SCC iter.                  ...        0 min,  0.017 sec
     gradient                   ...        0 min,  0.006 sec
 * total energy  :   -74.3126134 Eh     change       -0.7706470E-03 Eh
   gradient norm :     0.0094947 Eh/α   predicted    -0.5683398E-03 ( -26.25%)
   displ. norm   :     0.2322817 α      lambda       -0.5855946E-03
   maximum displ.:     0.1229071 α      in ANC's #14, #2, #6, ...

........................................................................
.............................. CYCLE    5 ..............................
........................................................................

 iter      E             dE          RMSdq      gap      omega  full diag
   1    -75.3186188 -0.753186E+02  0.555E-02    2.25       0.0  T
   2    -75.3186210 -0.217762E-05  0.331E-02    2.25       1.0  T
   3    -75.3186157  0.532286E-05  0.112E-02    2.25       1.3  T
   4    -75.3186219 -0.618092E-05  0.229E-03    2.24       6.4  T
   5    -75.3186220 -0.123493E-06  0.113E-03    2.24      12.9  T
   6    -75.3186220 -0.288213E-07  0.561E-04    2.24      26.0  T
   7    -75.3186220 -0.484044E-08  0.259E-04    2.25      56.4  T
     SCC iter.                  ...        0 min,  0.017 sec
     gradient                   ...        0 min,  0.006 sec
 * total energy  :   -74.3130103 Eh     change       -0.3968792E-03 Eh
   gradient norm :     0.0053853 Eh/α   predicted    -0.3086012E-03 ( -22.24%)
   displ. norm   :     0.2222453 α      lambda       -0.2929829E-03
   maximum displ.:     0.1115633 α      in ANC's #14, #2, #6, ...

........................................................................
.............................. CYCLE    6 ..............................
........................................................................

 iter      E             dE          RMSdq      gap      omega  full diag
   1    -75.3194666 -0.753195E+02  0.449E-02    2.25       0.0  T
   2    -75.3194676 -0.943742E-06  0.267E-02    2.25       1.0  T
   3    -75.3194671  0.461998E-06  0.422E-03    2.25       3.5  T
   4    -75.3194678 -0.663220E-06  0.107E-03    2.25      13.6  T
   5    -75.3194678 -0.160030E-07  0.622E-04    2.25      23.5  T
   6    -75.3194678 -0.555457E-08  0.328E-04    2.25      44.5  T
     SCC iter.                  ...        0 min,  0.014 sec
     gradient                   ...        0 min,  0.006 sec
 * total energy  :   -74.3132316 Eh     change       -0.2213382E-03 Eh
   gradient norm :     0.0060467 Eh/α   predicted    -0.1537273E-03 ( -30.55%)
   displ. norm   :     0.2800316 α      lambda       -0.2900542E-03
   maximum displ.:     0.1481367 α      in ANC's #2, #14, #6, ...

........................................................................
.............................. CYCLE    7 ..............................
........................................................................

 iter      E             dE          RMSdq      gap      omega  full diag
   1    -75.3202227 -0.753202E+02  0.558E-02    2.25       0.0  T
   2    -75.3202242 -0.151919E-05  0.332E-02    2.25       1.0  T
   3    -75.3202231  0.112963E-05  0.589E-03    2.25       2.5  T
   4    -75.3202246 -0.146861E-05  0.134E-03    2.25      10.9  T
   5    -75.3202246 -0.303433E-07  0.736E-04    2.25      19.8  T
   6    -75.3202246 -0.113946E-07  0.349E-04    2.25      41.8  T
     SCC iter.                  ...        0 min,  0.014 sec
     gradient                   ...        0 min,  0.008 sec
 * total energy  :   -74.3134506 Eh     change       -0.2189863E-03 Eh
   gradient norm :     0.0061650 Eh/α   predicted    -0.1564012E-03 ( -28.58%)
   displ. norm   :     0.2911892 α      lambda       -0.2484270E-03
   maximum displ.:     0.1667716 α      in ANC's #2, #14, #6, ...

........................................................................
.............................. CYCLE    8 ..............................
........................................................................

 iter      E             dE          RMSdq      gap      omega  full diag
   1    -75.3205690 -0.753206E+02  0.619E-02    2.25       0.0  T
   2    -75.3205702 -0.118530E-05  0.366E-02    2.25       1.0  T
   3    -75.3205686  0.155985E-05  0.621E-03    2.25       2.3  T
   4    -75.3205705 -0.190097E-05  0.147E-03    2.25       9.9  T
   5    -75.3205706 -0.407904E-07  0.865E-04    2.25      16.9  T
   6    -75.3205706 -0.173486E-07  0.359E-04    2.25      40.7  T
     SCC iter.                  ...        0 min,  0.019 sec
     gradient                   ...        0 min,  0.006 sec
 * total energy  :   -74.3136403 Eh     change       -0.1896647E-03 Eh
   gradient norm :     0.0057322 Eh/α   predicted    -0.1347462E-03 ( -28.96%)
   displ. norm   :     0.2877799 α      lambda       -0.2143224E-03
   maximum displ.:     0.1776864 α      in ANC's #2, #14, #13, ...

........................................................................
.............................. CYCLE    9 ..............................
........................................................................

 iter      E             dE          RMSdq      gap      omega  full diag
   1    -75.3206769 -0.753207E+02  0.668E-02    2.25       0.0  T
   2    -75.3206777 -0.767250E-06  0.395E-02    2.25       1.0  T
   3    -75.3206765  0.115272E-05  0.527E-03    2.25       2.8  T
   4    -75.3206780 -0.143958E-05  0.135E-03    2.25      10.8  T
   5    -75.3206780 -0.297788E-07  0.846E-04    2.25      17.2  T
   6    -75.3206780 -0.125907E-07  0.350E-04    2.25      41.7  T
     SCC iter.                  ...        0 min,  0.014 sec
     gradient                   ...        0 min,  0.006 sec
 * total energy  :   -74.3138050 Eh     change       -0.1647389E-03 Eh
   gradient norm :     0.0053649 Eh/α   predicted    -0.1160365E-03 ( -29.56%)
   displ. norm   :     0.2728806 α      lambda       -0.1783223E-03
   maximum displ.:     0.1804185 α      in ANC's #2, #14, #13, ...

........................................................................
.............................. CYCLE   10 ..............................
........................................................................

 iter      E             dE          RMSdq      gap      omega  full diag
   1    -75.3207474 -0.753207E+02  0.672E-02    2.25       0.0  T
   2    -75.3207483 -0.874909E-06  0.398E-02    2.25       1.0  T
   3    -75.3207472  0.107277E-05  0.519E-03    2.25       2.8  T
   4    -75.3207485 -0.132496E-05  0.157E-03    2.25       9.3  T
   5    -75.3207486 -0.630507E-07  0.885E-04    2.25      16.5  T
   6    -75.3207486 -0.117172E-07  0.375E-04    2.25      38.9  T
     SCC iter.                  ...        0 min,  0.015 sec
     gradient                   ...        0 min,  0.006 sec
 * total energy  :   -74.3139399 Eh     change       -0.1348650E-03 Eh
   gradient norm :     0.0047316 Eh/α   predicted    -0.9580107E-04 ( -28.97%)
   displ. norm   :     0.2294234 α      lambda       -0.1275377E-03
   maximum displ.:     0.1614188 α      in ANC's #2, #14, #13, ...

........................................................................
.............................. CYCLE   11 ..............................
........................................................................

 iter      E             dE          RMSdq      gap      omega  full diag
   1    -75.3211800 -0.753212E+02  0.575E-02    2.26       0.0  T
   2    -75.3211809 -0.925227E-06  0.340E-02    2.26       1.0  T
   3    -75.3211796  0.131890E-05  0.576E-03    2.26       2.5  T
   4    -75.3211811 -0.151926E-05  0.174E-03    2.26       8.4  T
   5    -75.3211812 -0.944870E-07  0.808E-04    2.26      18.0  T
   6    -75.3211812 -0.105447E-07  0.353E-04    2.26      41.3  T
     SCC iter.                  ...        0 min,  0.015 sec
     gradient                   ...        0 min,  0.006 sec
 * total energy  :   -74.3140350 Eh     change       -0.9510376E-04 Eh
   gradient norm :     0.0036161 Eh/α   predicted    -0.6712993E-04 ( -29.41%)
   displ. norm   :     0.1930324 α      lambda       -0.8574191E-04
   maximum displ.:     0.1387248 α      in ANC's #2, #14, #15, ...

........................................................................
.............................. CYCLE   12 ..............................
........................................................................

 iter      E             dE          RMSdq      gap      omega  full diag
   1    -75.3215258 -0.753215E+02  0.467E-02    2.26       0.0  T
   2    -75.3215264 -0.549913E-06  0.276E-02    2.26       1.0  T
   3    -75.3215248  0.157219E-05  0.622E-03    2.26       2.3  T
   4    -75.3215266 -0.177966E-05  0.131E-03    2.26      11.1  T
   5    -75.3215266 -0.409201E-07  0.601E-04    2.26      24.3  T
   6    -75.3215266 -0.454094E-08  0.282E-04    2.26      51.7  T
     SCC iter.                  ...        0 min,  0.015 sec
     gradient                   ...        0 min,  0.006 sec
 * total energy  :   -74.3141004 Eh     change       -0.6541020E-04 Eh
   gradient norm :     0.0028938 Eh/α   predicted    -0.4446943E-04 ( -32.01%)
   displ. norm   :     0.1738315 α      lambda       -0.6991440E-04
   maximum displ.:     0.1238783 α      in ANC's #2, #8, #15, ...

........................................................................
.............................. CYCLE   13 ..............................
........................................................................

 iter      E             dE          RMSdq      gap      omega  full diag
   1    -75.3224654 -0.753225E+02  0.409E-02    2.26       0.0  T
   2    -75.3224658 -0.394523E-06  0.241E-02    2.26       1.0  T
   3    -75.3224639  0.180294E-05  0.668E-03    2.26       2.2  T
   4    -75.3224660 -0.202316E-05  0.105E-03    2.26      13.9  T
   5    -75.3224660 -0.214970E-07  0.489E-04    2.26      29.8  T
   6    -75.3224660 -0.162825E-08  0.241E-04    2.26      60.5  T
     SCC iter.                  ...        0 min,  0.015 sec
     gradient                   ...        0 min,  0.006 sec
 * total energy  :   -74.3141524 Eh     change       -0.5199853E-04 Eh
   gradient norm :     0.0029182 Eh/α   predicted    -0.3601411E-04 ( -30.74%)
   displ. norm   :     0.2038623 α      lambda       -0.6226690E-04
   maximum displ.:     0.1409020 α      in ANC's #2, #8, #14, ...

........................................................................
.............................. CYCLE   14 ..............................
........................................................................

 iter      E             dE          RMSdq      gap      omega  full diag
   1    -75.3212294 -0.753212E+02  0.469E-02    2.26       0.0  T
   2    -75.3212299 -0.459281E-06  0.277E-02    2.26       1.0  T
   3    -75.3212278  0.206502E-05  0.715E-03    2.26       2.0  T
   4    -75.3212302 -0.233063E-05  0.120E-03    2.26      12.2  T
   5    -75.3212302 -0.324741E-07  0.595E-04    2.26      24.5  T
   6    -75.3212302 -0.945107E-09  0.250E-04    2.26      58.4  T
     SCC iter.                  ...        0 min,  0.015 sec
     gradient                   ...        0 min,  0.006 sec
 * total energy  :   -74.3141881 Eh     change       -0.3573438E-04 Eh
   gradient norm :     0.0034100 Eh/α   predicted    -0.3243422E-04 (  -9.24%)
   displ. norm   :     0.1424879 α      lambda       -0.5841465E-04
   maximum displ.:     0.0923596 α      in ANC's #2, #8, #4, ...

........................................................................
.............................. CYCLE   15 ..............................
........................................................................

 iter      E             dE          RMSdq      gap      omega  full diag
   1    -75.3228378 -0.753228E+02  0.352E-02    2.26       0.0  T
   2    -75.3228382 -0.417935E-06  0.207E-02    2.26       1.0  T
   3    -75.3228373  0.936585E-06  0.498E-03    2.26       2.9  T
   4    -75.3228383 -0.106281E-05  0.114E-03    2.26      12.8  T
   5    -75.3228384 -0.403251E-07  0.476E-04    2.26      30.7  T
   6    -75.3228384 -0.120110E-08  0.231E-04    2.26      63.1  T
     SCC iter.                  ...        0 min,  0.015 sec
     gradient                   ...        0 min,  0.006 sec
 * total energy  :   -74.3142223 Eh     change       -0.3421350E-04 Eh
   gradient norm :     0.0031075 Eh/α   predicted    -0.2980730E-04 ( -12.88%)
   displ. norm   :     0.0980680 α      lambda       -0.2376438E-04
   maximum displ.:     0.0659970 α      in ANC's #2, #8, #4, ...

........................................................................
.............................. CYCLE   16 ..............................
........................................................................

 iter      E             dE          RMSdq      gap      omega  full diag
   1    -75.3225963 -0.753226E+02  0.247E-02    2.26       0.0  T
   2    -75.3225964 -0.115727E-06  0.146E-02    2.26       1.0  T
   3    -75.3225963  0.105000E-06  0.179E-03    2.26       8.2  T
   4    -75.3225964 -0.137534E-06  0.567E-04    2.26      25.7  T
   5    -75.3225965 -0.792042E-08  0.291E-04    2.26      50.2  T
     SCC iter.                  ...        0 min,  0.013 sec
     gradient                   ...        0 min,  0.006 sec
 * total energy  :   -74.3142412 Eh     change       -0.1885654E-04 Eh
   gradient norm :     0.0023119 Eh/α   predicted    -0.1200134E-04 ( -36.35%)
   displ. norm   :     0.1347412 α      lambda       -0.3559785E-04
   maximum displ.:     0.0857331 α      in ANC's #2, #7, #4, ...

........................................................................
.............................. CYCLE   17 ..............................
........................................................................

 iter      E             dE          RMSdq      gap      omega  full diag
   1    -75.3224911 -0.753225E+02  0.387E-02    2.25       0.0  T
   2    -75.3224915 -0.376327E-06  0.229E-02    2.25       1.0  T
   3    -75.3224914  0.716745E-07  0.204E-03    2.25       7.2  T
   4    -75.3224916 -0.141389E-06  0.867E-04    2.25      16.8  T
   5    -75.3224916 -0.164067E-07  0.422E-04    2.25      34.5  T
     SCC iter.                  ...        0 min,  0.013 sec
     gradient                   ...        0 min,  0.006 sec
 * total energy  :   -74.3142613 Eh     change       -0.2010428E-04 Eh
   gradient norm :     0.0017383 Eh/α   predicted    -0.1812682E-04 (  -9.84%)
   displ. norm   :     0.1162772 α      lambda       -0.1606346E-04
   maximum displ.:     0.0680674 α      in ANC's #2, #7, #4, ...

........................................................................
.............................. CYCLE   18 ..............................
........................................................................

 iter      E             dE          RMSdq      gap      omega  full diag
   1    -75.3218113 -0.753218E+02  0.354E-02    2.25       0.0  T
   2    -75.3218116 -0.307753E-06  0.208E-02    2.25       1.0  T
   3    -75.3218114  0.196794E-06  0.248E-03    2.25       5.9  T
   4    -75.3218117 -0.268346E-06  0.765E-04    2.25      19.1  T
   5    -75.3218117 -0.136054E-07  0.365E-04    2.25      40.0  T
     SCC iter.                  ...        0 min,  0.012 sec
     gradient                   ...        0 min,  0.006 sec
 * total energy  :   -74.3142680 Eh     change       -0.6714296E-05 Eh
   gradient norm :     0.0027418 Eh/α   predicted    -0.8080556E-05 (  20.35%)
   displ. norm   :     0.0216440 α      lambda       -0.1237722E-04
   maximum displ.:     0.0114871 α      in ANC's #7, #14, #6, ...

........................................................................
.............................. CYCLE   19 ..............................
........................................................................

 iter      E             dE          RMSdq      gap      omega  full diag
   1    -75.3221715 -0.753222E+02  0.808E-03    2.25       0.0  T
   2    -75.3221716 -0.336481E-07  0.477E-03    2.25       3.1  T
   3    -75.3221715  0.239961E-07  0.833E-04    2.25      17.5  T
   4    -75.3221716 -0.303801E-07  0.215E-04    2.25      67.9  T
     SCC iter.                  ...        0 min,  0.010 sec
     gradient                   ...        0 min,  0.006 sec
 * total energy  :   -74.3142782 Eh     change       -0.1013464E-04 Eh
   gradient norm :     0.0017722 Eh/α   predicted    -0.6194386E-05 ( -38.88%)
   displ. norm   :     0.0977687 α      lambda       -0.2148331E-04
   maximum displ.:     0.0619365 α      in ANC's #7, #14, #2, ...

........................................................................
.............................. CYCLE   20 ..............................
........................................................................

 iter      E             dE          RMSdq      gap      omega  full diag
   1    -75.3228770 -0.753229E+02  0.368E-02    2.25       0.0  T
   2    -75.3228772 -0.256729E-06  0.217E-02    2.25       1.0  T
   3    -75.3228771  0.178104E-06  0.230E-03    2.25       6.3  T
   4    -75.3228773 -0.241182E-06  0.589E-04    2.25      24.8  T
   5    -75.3228773 -0.774024E-08  0.305E-04    2.25      47.8  T
     SCC iter.                  ...        0 min,  0.012 sec
     gradient                   ...        0 min,  0.005 sec
 * total energy  :   -74.3142937 Eh     change       -0.1553368E-04 Eh
   gradient norm :     0.0019639 Eh/α   predicted    -0.1079058E-04 ( -30.53%)
   displ. norm   :     0.0583863 α      lambda       -0.7019360E-05
   maximum displ.:     0.0378851 α      in ANC's #7, #2, #4, ...
 * RMSD in coord.:     0.4108762 α      energy gain  -0.3068320E-01 Eh

generating ANC from exact Hessian ...
Using Lindh-Hessian (1995)
 Shifting diagonal of input Hessian by   9.902785432581714E-003
 Lowest  eigenvalues of input Hessian
    0.000000    0.000000    0.000000    0.000000    0.000000    0.000000
    0.010000    0.010337    0.010442    0.010565    0.011279    0.011393
    0.011612    0.012243    0.012254    0.013203    0.013775    0.014965
 Highest eigenvalues
    1.926625    2.008381    2.019904    2.024341    2.139223    2.221034
 

........................................................................
.............................. CYCLE   21 ..............................
........................................................................

 iter      E             dE          RMSdq      gap      omega  full diag
   1    -75.3227801 -0.753228E+02  0.212E-02    2.25       0.0  T
   2    -75.3227801 -0.407321E-07  0.125E-02    2.25       1.2  T
   3    -75.3227801  0.352207E-07  0.959E-04    2.25      15.2  T
   4    -75.3227801 -0.511000E-07  0.242E-04    2.25      60.2  T
     SCC iter.                  ...        0 min,  0.011 sec
     gradient                   ...        0 min,  0.006 sec
 * total energy  :   -74.3143030 Eh     change       -0.9358728E-05 Eh
   gradient norm :     0.0014746 Eh/α   predicted     0.0000000E+00 (-100.00%)
   displ. norm   :     0.0217193 α      lambda       -0.2220907E-05
   maximum displ.:     0.0132444 α      in ANC's #7, #14, #11, ...

........................................................................
.............................. CYCLE   22 ..............................
........................................................................

 iter      E             dE          RMSdq      gap      omega  full diag
   1    -75.3224851 -0.753225E+02  0.724E-03    2.25       0.0  T
   2    -75.3224851 -0.589152E-07  0.430E-03    2.25       3.4  T
   3    -75.3224850  0.930729E-07  0.156E-03    2.25       9.3  T
   4    -75.3224851 -0.106127E-06  0.410E-04    2.25      35.6  T
   5    -75.3224851 -0.537233E-08  0.154E-04    2.25      94.5  T
     SCC iter.                  ...        0 min,  0.013 sec
     gradient                   ...        0 min,  0.006 sec
 * total energy  :   -74.3143094 Eh     change       -0.6312435E-05 Eh
   gradient norm :     0.0004354 Eh/α   predicted    -0.3193945E-05 ( -49.40%)
   displ. norm   :     0.0388361 α      lambda       -0.4563030E-05
   maximum displ.:     0.0257497 α      in ANC's #7, #14, #6, ...

........................................................................
.............................. CYCLE   23 ..............................
........................................................................

 iter      E             dE          RMSdq      gap      omega  full diag
   1    -75.3224006 -0.753224E+02  0.113E-02    2.25       0.0  T
   2    -75.3224006 -0.403172E-07  0.665E-03    2.25       2.2  T
   3    -75.3224005  0.103054E-06  0.152E-03    2.25       9.6  T
   4    -75.3224007 -0.118313E-06  0.322E-04    2.25      45.3  T
   5    -75.3224007 -0.257458E-08  0.161E-04    2.25      90.4  T
     SCC iter.                  ...        0 min,  0.013 sec
     gradient                   ...        0 min,  0.006 sec
 * total energy  :   -74.3143149 Eh     change       -0.5523499E-05 Eh
   gradient norm :     0.0007400 Eh/α   predicted    -0.2285862E-05 ( -58.62%)
   displ. norm   :     0.0697458 α      lambda       -0.6372917E-05
   maximum displ.:     0.0437275 α      in ANC's #7, #14, #13, ...

........................................................................
.............................. CYCLE   24 ..............................
........................................................................

 iter      E             dE          RMSdq      gap      omega  full diag
   1    -75.3223662 -0.753224E+02  0.197E-02    2.25       0.0  T
   2    -75.3223662 -0.532016E-07  0.116E-02    2.25       1.3  T
   3    -75.3223660  0.187169E-06  0.203E-03    2.25       7.2  T
   4    -75.3223663 -0.216449E-06  0.413E-04    2.25      35.3  T
   5    -75.3223663 -0.266841E-08  0.233E-04    2.25      62.7  T
     SCC iter.                  ...        0 min,  0.013 sec
     gradient                   ...        0 min,  0.006 sec
 * total energy  :   -74.3143225 Eh     change       -0.7624016E-05 Eh
   gradient norm :     0.0009437 Eh/α   predicted    -0.3199571E-05 ( -58.03%)
   displ. norm   :     0.0933300 α      lambda       -0.6748116E-05
   maximum displ.:     0.0577340 α      in ANC's #7, #14, #13, ...

........................................................................
.............................. CYCLE   25 ..............................
........................................................................

 iter      E             dE          RMSdq      gap      omega  full diag
   1    -75.3223810 -0.753224E+02  0.262E-02    2.25       0.0  T
   2    -75.3223810 -0.614131E-07  0.154E-02    2.25       1.0  T
   3    -75.3223809  0.184421E-06  0.202E-03    2.25       7.2  T
   4    -75.3223811 -0.220590E-06  0.449E-04    2.25      32.5  T
   5    -75.3223811 -0.206128E-08  0.268E-04    2.25      54.5  T
     SCC iter.                  ...        0 min,  0.013 sec
     gradient                   ...        0 min,  0.006 sec
 * total energy  :   -74.3143304 Eh     change       -0.7887489E-05 Eh
   gradient norm :     0.0008778 Eh/α   predicted    -0.3397312E-05 ( -56.93%)
   displ. norm   :     0.1001617 α      lambda       -0.6020429E-05
   maximum displ.:     0.0617444 α      in ANC's #7, #14, #13, ...

........................................................................
.............................. CYCLE   26 ..............................
........................................................................

 iter      E             dE          RMSdq      gap      omega  full diag
   1    -75.3224425 -0.753224E+02  0.287E-02    2.25       0.0  T
   2    -75.3224425 -0.623806E-07  0.169E-02    2.25       1.0  T
   3    -75.3224424  0.174283E-06  0.197E-03    2.25       7.4  T
   4    -75.3224426 -0.211718E-06  0.434E-04    2.25      33.6  T
   5    -75.3224426 -0.214517E-08  0.267E-04    2.25      54.7  T
     SCC iter.                  ...        0 min,  0.020 sec
     gradient                   ...        0 min,  0.013 sec
 * total energy  :   -74.3143372 Eh     change       -0.6831047E-05 Eh
   gradient norm :     0.0006029 Eh/α   predicted    -0.3032924E-05 ( -55.60%)
   displ. norm   :     0.0985188 α      lambda       -0.5085864E-05
   maximum displ.:     0.0605183 α      in ANC's #7, #3, #13, ...

........................................................................
.............................. CYCLE   27 ..............................
........................................................................

 iter      E             dE          RMSdq      gap      omega  full diag
   1    -75.3225559 -0.753226E+02  0.293E-02    2.25       0.0  T
   2    -75.3225559 -0.572819E-07  0.172E-02    2.25       1.0  T
   3    -75.3225558  0.102473E-06  0.161E-03    2.25       9.1  T
   4    -75.3225560 -0.135381E-06  0.413E-04    2.25      35.3  T
   5    -75.3225560 -0.146390E-08  0.261E-04    2.25      55.8  T
     SCC iter.                  ...        0 min,  0.038 sec
     gradient                   ...        0 min,  0.006 sec
 * total energy  :   -74.3143424 Eh     change       -0.5148521E-05 Eh
   gradient norm :     0.0004656 Eh/α   predicted    -0.2554515E-05 ( -50.38%)
   displ. norm   :     0.0758535 α      lambda       -0.3260818E-05
   maximum displ.:     0.0460289 α      in ANC's #7, #3, #4, ...

........................................................................
.............................. CYCLE   28 ..............................
........................................................................

 iter      E             dE          RMSdq      gap      omega  full diag
   1    -75.3226425 -0.753226E+02  0.238E-02    2.25       0.0  T
   2    -75.3226425 -0.495569E-07  0.140E-02    2.25       1.0  T
   3    -75.3226424  0.915153E-07  0.146E-03    2.25      10.0  T
   4    -75.3226425 -0.115947E-06  0.358E-04    2.25      40.7  T
   5    -75.3226425 -0.149910E-08  0.222E-04    2.25      65.7  T
     SCC iter.                  ...        0 min,  0.013 sec
     gradient                   ...        0 min,  0.006 sec
 * total energy  :   -74.3143455 Eh     change       -0.3138500E-05 Eh
   gradient norm :     0.0004308 Eh/α   predicted    -0.1639838E-05 ( -47.75%)
   displ. norm   :     0.0503666 α      lambda       -0.1880139E-05
   maximum displ.:     0.0290600 α      in ANC's #7, #3, #4, ...

   *** GEOMETRY OPTIMIZATION CONVERGED AFTER 28 ITERATIONS ***

------------------------------------------------------------------------
 total energy gain   :        -0.0307350 Eh      -19.2865 kcal/mol
 total RMSD          :         0.4307264 a0        0.2279 Å
 total power (kW/mol):        -2.8819569 (step) -106.8238 (real)
------------------------------------------------------------------------

 ANCopt (total)                0 d,  0 h,  0 min,  0.755 sec
 optimizer setup                ...        0 min,  0.000 sec (  0.016%)
 model hessian                  ...        0 min,  0.052 sec (  6.905%)
 ANC generation                 ...        0 min,  0.003 sec (  0.373%)
 coordinate transformation      ...        0 min,  0.001 sec (  0.087%)
 single point calculation       ...        0 min,  0.677 sec ( 89.658%)
 optimization log               ...        0 min,  0.010 sec (  1.379%)
 hessian update                 ...        0 min,  0.005 sec (  0.624%)
 rational function              ...        0 min,  0.004 sec (  0.528%)

================
 final structure:
================
47
 xtb: 6.7.1 (edcfbbe)
O            7.93077209866995       -0.97808909742863       -0.57383723104320
C            7.20641945564028       -0.97202210713493       -1.77285160493279
C            5.71336454181343       -1.21384352216506       -1.53942018731780
O            5.23011071156312       -0.09778103056827       -0.81351359332133
C            3.91828478859181       -0.04316834169743       -0.47532401076844
C            2.97109755184371       -1.01703825283772       -0.77995009203526
C            1.65997981411677       -0.84520759465437       -0.38402477827855
C            1.24529228052582        0.28594157773397        0.32379373910304
C           -0.14598432345814        0.39780060521674        0.69927087937173
C           -0.70679647393573        1.40331144752136        1.39120035622942
C           -2.11605110422184        1.53225621833455        1.74911616568604
C           -3.08125963108382        0.38251581942744        1.34808628292924
O           -4.30401491556171        0.67103362202949        1.98210921749076
C           -5.37820489546729       -0.16326747840906        1.60656343664397
O           -2.59922507978315       -0.88921401161043        1.73510803384009
C           -2.34737830868503       -1.01216633527531        3.12048368741075
C           -3.21300220195156        0.42467559735445       -0.16673023731396
C           -3.02601034703486       -0.70471205596570       -0.95127923997161
C           -3.16706106179221       -0.62282567645246       -2.32553330150939
C           -3.50102390777014        0.58105525548991       -2.92174088215849
C           -3.70421067905791        1.70517822942619       -2.13860681528774
C           -3.56264004781292        1.62950261853289       -0.76489623489522
O           -2.53934720114073        2.52537294704190        2.29798186174564
C            2.21135288677593        1.25530987556797        0.62362987802710
C            3.51850071067531        1.09476939118472        0.23316943585191
H            7.52916512624773       -0.32817034710692        0.01588306569081
H            7.33054045577667       -0.01551208138225       -2.29968399730953
H            7.61728999114842       -1.77512894036778       -2.38758956227084
H            5.57471913110719       -2.13446414019447       -0.95835747707479
H            5.19448559929549       -1.30518582671449       -2.50161484905460
H            3.24616514194584       -1.90723223155317       -1.32344994489288
H            0.93412979083587       -1.60744841460059       -0.62777391988093
H           -0.76838891969094       -0.42590499996452        0.38071074873476
H           -0.11724270725543        2.24401585877225        1.73334433507871
H           -6.19625199137520        0.09008242328524        2.27738828357607
H           -5.11765033974606       -1.21996726436416        1.72141018134305
H           -5.68086396313785        0.01875351078834        0.56987584796216
H           -1.45476120182883       -0.44695903908711        3.40916154487344
H           -3.19860923207843       -0.65808370932431        3.70686417736776
H           -2.18557215756795       -2.07274824195893        3.30288285418718
H           -2.77985945834621       -1.64264348507832       -0.47803016456804
H           -3.02130294283830       -1.50503403681702       -2.93182325923676
H           -3.60925215562508        0.64219434064280       -3.99465043291062
H           -3.97408070214724        2.64430455755528       -2.59827476336957
H           -3.73091638148815        2.49810336908040       -0.14583606286135
H            1.93292413963348        2.14473016069829        1.16560828849793
H            4.26237011567787        1.84214183702247        0.46115034062512
 
 Bond Distances (Angstroems)
 ---------------------------
O1-C2=1.4008         O1-H26=0.9651        C2-O1=1.4008         C2-C3=1.5304         C2-H27=1.0990        C2-H28=1.0916        
C3-C2=1.5304         C3-O4=1.4164         C3-H29=1.0975        C3-H30=1.0970        O4-C3=1.4164         O4-C5=1.3558         
C5-O4=1.3558         C5-C6=1.3923         C5-C25=1.3988        C6-C5=1.3923         C6-C7=1.3803         C6-H31=1.0787        
C7-C6=1.3803         C7-C8=1.3973         C7-H32=1.0804        C8-C7=1.3973         C8-C9=1.4454         C8-C24=1.4010        
C9-C8=1.4454         C9-C10=1.3433        C9-H33=1.0804        C10-C9=1.3433        C10-C11=1.4597       C10-H34=1.0823       
C11-C10=1.4597       C11-C12=1.5538       C11-O23=1.2111       C12-C11=1.5538       C12-O13=1.4073       C12-O15=1.4140       
C12-C17=1.5211       O13-C12=1.4073       O13-C14=1.4110       C14-O13=1.4110       C14-H35=1.0878       C14-H36=1.0944       
C14-H37=1.0952       O15-C12=1.4140       O15-C16=1.4134       C16-O15=1.4134       C16-H38=1.0952       C16-H39=1.0926       
C16-H40=1.0882       C17-C12=1.5211       C17-C18=1.3878       C17-C22=1.3898       C18-C17=1.3878       C18-C19=1.3839       
C18-H41=1.0790       C19-C18=1.3839       C19-C20=1.3843       C19-H42=1.0803       C20-C19=1.3843       C20-C21=1.3850       
C20-H43=1.0801       C21-C20=1.3850       C21-C22=1.3831       C21-H44=1.0799       C22-C17=1.3898       C22-C21=1.3831       
C22-H45=1.0798       O23-C11=1.2111       C24-C8=1.4010        C24-C25=1.3736       C24-H46=1.0781       C25-C5=1.3988        
C25-C24=1.3736       C25-H47=1.0788       H26-O1=0.9651        H27-C2=1.0990        H28-C2=1.0916        H29-C3=1.0975        
H30-C3=1.0970        H31-C6=1.0787        H32-C7=1.0804        H33-C9=1.0804        H34-C10=1.0823       H35-C14=1.0878       
H36-C14=1.0944       H37-C14=1.0952       H38-C16=1.0952       H39-C16=1.0926       H40-C16=1.0882       H41-C18=1.0790       
H42-C19=1.0803       H43-C20=1.0801       H44-C21=1.0799       H45-C22=1.0798       H46-C24=1.0781       H47-C25=1.0788       
 C  H  Rav=1.0865 sigma=0.0075  Rmin=1.0781  Rmax=1.0990    21
 C  C  Rav=1.4173 sigma=0.0583  Rmin=1.3433  Rmax=1.5538    18
 O  H  Rav=0.9651 sigma=0.0000  Rmin=0.9651  Rmax=0.9651     1
 O  C  Rav=1.3787 sigma=0.0660  Rmin=1.2111  Rmax=1.4164     8
 
 selected bond angles (degree)
 --------------------
H26-O1-C2=107.75               C3-C2-O1=111.91                H27-C2-O1=110.83               H27-C2-C3=108.71               
H28-C2-O1=106.51               H28-C2-C3=109.68               H28-C2-H27=109.14              O4-C3-C2=106.65                
H29-C3-C2=109.67               H29-C3-O4=110.28               H30-C3-C2=109.93               H30-C3-O4=110.72               
H30-C3-H29=109.56              C5-O4-C3=119.32                C6-C5-O4=125.13                C25-C5-O4=115.83               
C25-C5-C6=119.04               C7-C6-C5=119.76                H31-C6-C5=120.93               H31-C6-C7=119.31               
C8-C7-C6=121.87                H32-C7-C6=119.05               H32-C7-C8=119.08               C9-C8-C7=118.68                
C24-C8-C7=117.64               C24-C8-C9=123.68               C10-C9-C8=126.41               H33-C9-C8=114.77               
H33-C9-C10=118.82              C11-C10-C9=126.55              H34-C10-C9=121.12              H34-C10-C11=112.32             
 
 selected dihedral angles (degree)
 ---------------------------------
C3-C2-O1-H26=304.98           H27-C2-O1-H26= 66.52          H28-C2-O1-H26=185.12          O4-C3-C2-O1= 65.70            
O4-C3-C2-H27=302.95           O4-C3-C2-H28=183.69           H29-C3-C2-O1=306.29           H29-C3-C2-H27=183.54          
H29-C3-C2-H28= 64.28          H30-C3-C2-O1=185.78           H30-C3-C2-H27= 63.02          H30-C3-C2-H28=303.76          
C5-O4-C3-C2=179.49            C5-O4-C3-H29=298.50           C5-O4-C3-H30= 59.92           C6-C5-O4-C3=  0.31            
C25-C5-O4-C3=180.38           C7-C6-C5-O4=180.23            C7-C6-C5-C25=  0.15           H31-C6-C5-O4=  0.18           
H31-C6-C5-C25=180.10          C8-C7-C6-C5=359.86            C8-C7-C6-H31=179.91           H32-C7-C6-C5=179.91           
H32-C7-C6-H31=359.96          C9-C8-C7-C6=179.75            C9-C8-C7-H32=359.70           C24-C8-C7-C6=  0.06           
C24-C8-C7-H32=180.01          C10-C9-C8-C7=179.12           C10-C9-C8-C24=358.79          H33-C9-C8-C7=359.38           
H33-C9-C8-C24=179.05          C11-C10-C9-C8=178.70          C11-C10-C9-H33=358.42         H34-C10-C9-C8=359.93          
H34-C10-C9-H33=179.65         
           -------------------------------------------------
          |                Final Singlepoint                |
           -------------------------------------------------

          ...................................................
          :                      SETUP                      :
          :.................................................:
          :  # basis functions                 122          :
          :  # atomic orbitals                 122          :
          :  # shells                           72          :
          :  # electrons                       132          :
          :  max. iterations                   250          :
          :  Hamiltonian                  GFN2-xTB          :
          :  restarted?                      false          :
          :  GBSA solvation                  false          :
          :  PC potential                    false          :
          :  electronic temp.          300.0000000     K    :
          :  accuracy                    1.0000000          :
          :  -> integral cutoff          0.2500000E+02      :
          :  -> integral neglect         0.1000000E-07      :
          :  -> SCF convergence          0.1000000E-05 Eh   :
          :  -> wf. convergence          0.1000000E-03 e    :
          :  Broyden damping             0.4000000          :
          :  net charge                          0          :
          :  unpaired electrons                  0          :
          ...................................................

 iter      E             dE          RMSdq      gap      omega  full diag
   1    -75.3226425 -0.753226E+02  0.709E-05    2.25       0.0  T
   2    -75.3226425 -0.311928E-10  0.464E-05    2.25     314.2  T
   3    -75.3226425 -0.264748E-10  0.296E-05    2.25     492.7  T

   *** convergence criteria satisfied after 3 iterations ***

         #    Occupation            Energy/Eh            Energy/eV
      -------------------------------------------------------------
         1        2.0000           -0.7377270             -20.0746
       ...           ...                  ...                  ...
        60        2.0000           -0.4246387             -11.5550
        61        2.0000           -0.4225988             -11.4995
        62        2.0000           -0.4120537             -11.2126
        63        2.0000           -0.4110981             -11.1865
        64        2.0000           -0.4049229             -11.0185
        65        2.0000           -0.3902877             -10.6203
        66        2.0000           -0.3793402             -10.3224 (HOMO)
        67                         -0.2967942              -8.0762 (LUMO)
        68                         -0.2407251              -6.5505
        69                         -0.2335195              -6.3544
        70                         -0.2300469              -6.2599
        71                         -0.2223813              -6.0513
       ...                                ...                  ...
       122                          0.6958647              18.9354
      -------------------------------------------------------------
                  HL-Gap            0.0825460 Eh            2.2462 eV
             Fermi-level           -0.3380672 Eh           -9.1993 eV

 SCC (total)                   0 d,  0 h,  0 min,  0.019 sec
 SCC setup                      ...        0 min,  0.001 sec (  5.219%)
 Dispersion                     ...        0 min,  0.000 sec (  1.654%)
 classical contributions        ...        0 min,  0.000 sec (  1.064%)
 integral evaluation            ...        0 min,  0.001 sec (  7.323%)
 iterations                     ...        0 min,  0.008 sec ( 41.721%)
 molecular gradient             ...        0 min,  0.006 sec ( 31.333%)
 printout                       ...        0 min,  0.002 sec ( 11.551%)

         :::::::::::::::::::::::::::::::::::::::::::::::::::::
         ::                     SUMMARY                     ::
         :::::::::::::::::::::::::::::::::::::::::::::::::::::
         :: total energy             -74.314345509786 Eh    ::
         :: gradient norm              0.000431537570 Eh/a0 ::
         :: HOMO-LUMO gap              2.246190242265 eV    ::
         ::.................................................::
         :: SCC energy               -75.322094300818 Eh    ::
         :: -> isotropic ES            0.101767938404 Eh    ::
         :: -> anisotropic ES          0.002995197423 Eh    ::
         :: -> anisotropic XC          0.020431049231 Eh    ::
         :: -> dispersion             -0.049447750863 Eh    ::
         :: repulsion energy           1.007748791032 Eh    ::
         :: add. restraining           0.000000000000 Eh    ::
         :: total charge               0.000000000000 e     ::
         :::::::::::::::::::::::::::::::::::::::::::::::::::::

           -------------------------------------------------
          |                Property Printout                |
           -------------------------------------------------

    * Orbital Energies and Occupations

         #    Occupation            Energy/Eh            Energy/eV
      -------------------------------------------------------------
         1        2.0000           -0.7377270             -20.0746
       ...           ...                  ...                  ...
        54        2.0000           -0.4504755             -12.2581
        55        2.0000           -0.4373489             -11.9009
        56        2.0000           -0.4360678             -11.8660
        57        2.0000           -0.4342329             -11.8161
        58        2.0000           -0.4283053             -11.6548
        59        2.0000           -0.4262112             -11.5978
        60        2.0000           -0.4246387             -11.5550
        61        2.0000           -0.4225988             -11.4995
        62        2.0000           -0.4120537             -11.2126
        63        2.0000           -0.4110981             -11.1865
        64        2.0000           -0.4049229             -11.0185
        65        2.0000           -0.3902877             -10.6203
        66        2.0000           -0.3793402             -10.3224 (HOMO)
        67                         -0.2967942              -8.0762 (LUMO)
        68                         -0.2407251              -6.5505
        69                         -0.2335195              -6.3544
        70                         -0.2300469              -6.2599
        71                         -0.2223813              -6.0513
        72                         -0.1644835              -4.4758
        73                         -0.1026323              -2.7928
        74                         -0.0920504              -2.5048
        75                         -0.0063749              -0.1735
        76                          0.0091050               0.2478
        77                          0.0288958               0.7863
       ...                                ...                  ...
       122                          0.6958647              18.9354
      -------------------------------------------------------------
                  HL-Gap            0.0825460 Eh            2.2462 eV
             Fermi-level           -0.3380672 Eh           -9.1993 eV

     #   Z          covCN         q      C6AA      α(0)
     1   8 O        1.656    -0.431    21.457     6.253
     2   6 C        3.674     0.075    19.553     6.336
     3   6 C        3.690     0.068    19.625     6.340
     4   8 O        1.706    -0.270    18.479     5.804
     5   6 C        2.864     0.149    24.767     8.157
     6   6 C        2.914    -0.065    29.623     8.925
     7   6 C        2.930    -0.030    28.739     8.792
     8   6 C        2.969     0.007    27.864     8.659
     9   6 C        2.901    -0.019    28.471     8.749
    10   6 C        2.892    -0.067    29.665     8.930
    11   6 C        2.818     0.211    23.543     7.950
    12   6 C        3.701     0.248    16.913     5.881
    13   8 O        1.702    -0.316    19.267     5.926
    14   6 C        3.645     0.046    20.124     6.447
    15   8 O        1.700    -0.336    19.640     5.983
    16   6 C        3.646     0.045    20.141     6.449
    17   6 C        2.976    -0.010    28.257     8.720
    18   6 C        2.921    -0.031    28.774     8.797
    19   6 C        2.920    -0.030    28.741     8.791
    20   6 C        2.920    -0.030    28.747     8.792
    21   6 C        2.920    -0.028    28.692     8.784
    22   6 C        2.923    -0.033    28.813     8.803
    23   8 O        0.858    -0.342    20.561     6.079
    24   6 C        2.922    -0.028    28.700     8.785
    25   6 C        2.917    -0.053    29.308     8.878
    26   1 H        0.805     0.303     0.711     1.324
    27   1 H        0.923     0.039     2.462     2.454
    28   1 H        0.924     0.057     2.231     2.336
    29   1 H        0.924     0.047     2.354     2.399
    30   1 H        0.924     0.036     2.506     2.475
    31   1 H        0.926     0.039     2.459     2.452
    32   1 H        0.926     0.045     2.383     2.414
    33   1 H        0.926     0.066     2.128     2.281
    34   1 H        0.925     0.063     2.164     2.300
    35   1 H        0.925     0.060     2.196     2.317
    36   1 H        0.924     0.039     2.468     2.457
    37   1 H        0.924     0.029     2.599     2.521
    38   1 H        0.924     0.027     2.631     2.537
    39   1 H        0.924     0.050     2.320     2.382
    40   1 H        0.925     0.056     2.246     2.344
    41   1 H        0.926     0.049     2.336     2.390
    42   1 H        0.926     0.036     2.507     2.476
    43   1 H        0.926     0.036     2.504     2.475
    44   1 H        0.926     0.039     2.466     2.456
    45   1 H        0.926     0.048     2.350     2.397
    46   1 H        0.926     0.051     2.303     2.373
    47   1 H        0.926     0.053     2.277     2.360

 Mol. C6AA /au·bohr⁶  :      24538.702320
 Mol. C8AA /au·bohr⁸  :     577429.607073
 Mol. α(0) /au        :        243.931347


Wiberg/Mayer (AO) data.
largest (>0.10) Wiberg bond orders for each atom

 ---------------------------------------------------------------------------
     #   Z sym  total        # sym  WBO       # sym  WBO       # sym  WBO
 ---------------------------------------------------------------------------
     1   8 O    1.967 --     2 C    1.014    26 H    0.892
     2   6 C    3.963 --     1 O    1.014     3 C    0.990    28 H    0.971
                            27 H    0.967
     3   6 C    3.945 --     2 C    0.990    30 H    0.967    29 H    0.966
                             4 O    0.965
     4   8 O    2.231 --     5 C    1.074     3 C    0.965
     5   6 C    3.923 --     6 C    1.359    25 C    1.328     4 O    1.074
     6   6 C    3.987 --     7 C    1.466     5 C    1.359    31 H    0.966
     7   6 C    3.979 --     6 C    1.466     8 C    1.360    32 H    0.968
     8   6 C    3.990 --     7 C    1.360    24 C    1.334     9 C    1.133
     9   6 C    3.980 --    10 C    1.735     8 C    1.133    33 H    0.953
    10   6 C    3.977 --     9 C    1.735    11 C    1.088    34 H    0.955
    11   6 C    3.925 --    23 O    1.812    10 C    1.088    12 C    0.901
    12   6 C    3.923 --    13 O    0.970    15 O    0.958    17 C    0.949
                            11 C    0.901
    13   8 O    2.095 --    14 C    0.985    12 C    0.970
    14   6 C    3.948 --    13 O    0.985    35 H    0.980    36 H    0.979
                            37 H    0.978
    15   8 O    2.080 --    16 C    0.982    12 C    0.958
    16   6 C    3.946 --    15 O    0.982    40 H    0.981    39 H    0.979
                            38 H    0.978
    17   6 C    3.984 --    18 C    1.414    22 C    1.410    12 C    0.949
                            20 C    0.109
    18   6 C    3.991 --    19 C    1.440    17 C    1.414    41 H    0.965
                            21 C    0.111
    19   6 C    3.991 --    18 C    1.440    20 C    1.440    42 H    0.970
                            22 C    0.111
    20   6 C    3.990 --    19 C    1.440    21 C    1.437    43 H    0.971
                            17 C    0.109
    21   6 C    3.992 --    22 C    1.447    20 C    1.437    44 H    0.970
                            18 C    0.111
    22   6 C    3.990 --    21 C    1.447    17 C    1.410    45 H    0.968
                            19 C    0.111
    23   8 O    2.057 --    11 C    1.812
    24   6 C    3.989 --    25 C    1.505     8 C    1.334    46 H    0.964
    25   6 C    3.986 --    24 C    1.505     5 C    1.328    47 H    0.967
    26   1 H    0.908 --     1 O    0.892
    27   1 H    0.998 --     2 C    0.967
    28   1 H    0.996 --     2 C    0.971
    29   1 H    0.997 --     3 C    0.966
    30   1 H    0.998 --     3 C    0.967
    31   1 H    0.998 --     6 C    0.966
    32   1 H    0.998 --     7 C    0.968
    33   1 H    0.995 --     9 C    0.953
    34   1 H    0.995 --    10 C    0.955
    35   1 H    0.996 --    14 C    0.980
    36   1 H    0.999 --    14 C    0.979
    37   1 H    0.999 --    14 C    0.978
    38   1 H    0.999 --    16 C    0.978
    39   1 H    0.997 --    16 C    0.979
    40   1 H    0.996 --    16 C    0.981
    41   1 H    0.998 --    18 C    0.965
    42   1 H    0.998 --    19 C    0.970
    43   1 H    0.998 --    20 C    0.971
    44   1 H    0.998 --    21 C    0.970
    45   1 H    0.998 --    22 C    0.968
    46   1 H    0.997 --    24 C    0.964
    47   1 H    0.997 --    25 C    0.967
 ---------------------------------------------------------------------------

Topologies differ in total number of bonds
Writing topology from bond orders to xtbtopo.mol

molecular dipole:
                 x           y           z       tot (Debye)
 q only:        0.865      -1.086      -1.194
   full:        0.661      -1.225      -1.299       4.838
molecular quadrupole (traceless):
                xx          xy          yy          xz          yz          zz
 q only:       -4.153      12.478      -1.836       3.747      -6.655       5.989
  q+dip:      -13.181      16.105       4.358       3.354      -5.605       8.823
   full:      -11.960      16.236       1.476       4.203      -7.942      10.484

           -------------------------------------------------
          |                Geometry Summary                 |
           -------------------------------------------------

      molecular mass/u    :      342.3864391
   center of mass at/Å    :       -0.0141108       0.1868123       0.1022062
  moments of inertia/u·Å² :        0.1107110E+04   0.5883607E+04   0.6304748E+04
rotational constants/cm⁻¹ :        0.1522670E-01   0.2865186E-02   0.2673800E-02

 * 44 selected distances

     #   Z          #   Z                                           value/Å
     1   8 O        2   6 C                                       1.4008424
     2   6 C        3   6 C                                       1.5304186 (max)
     3   6 C        4   8 O                                       1.4163582
     4   8 O        5   6 C                                       1.3558180
     5   6 C        6   6 C                                       1.3922585
     6   6 C        7   6 C                                       1.3803307
     7   6 C        8   6 C                                       1.3973087
     9   6 C       10   6 C                                       1.3432532
    12   6 C       13   8 O                                       1.4072521
    13   8 O       14   6 C                                       1.4110200
    12   6 C       15   8 O                                       1.4140157
    15   8 O       16   6 C                                       1.4134391
    17   6 C       18   6 C                                       1.3878040
    18   6 C       19   6 C                                       1.3838986
    19   6 C       20   6 C                                       1.3843137
    20   6 C       21   6 C                                       1.3850042
    17   6 C       22   6 C                                       1.3898409
    21   6 C       22   6 C                                       1.3830583
    11   6 C       23   8 O                                       1.2110798
     8   6 C       24   6 C                                       1.4010175
     5   6 C       25   6 C                                       1.3988184
    24   6 C       25   6 C                                       1.3736333
     1   8 O       26   1 H                                       0.9651180 (min)
     2   6 C       27   1 H                                       1.0990314
     2   6 C       28   1 H                                       1.0916493
     3   6 C       29   1 H                                       1.0974511
     3   6 C       30   1 H                                       1.0969948
     6   6 C       31   1 H                                       1.0786565
     7   6 C       32   1 H                                       1.0804088
     9   6 C       33   1 H                                       1.0804440
    10   6 C       34   1 H                                       1.0823217
    14   6 C       35   1 H                                       1.0878389
    14   6 C       36   1 H                                       1.0943917
    14   6 C       37   1 H                                       1.0951966
    16   6 C       38   1 H                                       1.0952441
    16   6 C       39   1 H                                       1.0926165
    16   6 C       40   1 H                                       1.0882485
    18   6 C       41   1 H                                       1.0790137
    19   6 C       42   1 H                                       1.0803355
    20   6 C       43   1 H                                       1.0800863
    21   6 C       44   1 H                                       1.0798532
    22   6 C       45   1 H                                       1.0798240
    24   6 C       46   1 H                                       1.0781149
    25   6 C       47   1 H                                       1.0788340

 * 4 distinct bonds (by element types)

   Z      Z             #   av. dist./Å        max./Å        min./Å
   1 H    6 C          21     1.0865026     1.0990314     1.0781149
   6 C    6 C          14     1.3950685     1.5304186     1.3432532
   1 H    8 O           1     0.9651180     0.9651180     0.9651180
   6 C    8 O           8     1.3787281     1.4163582     1.2110798


optimized geometry written to: xtbopt.xyz


           -------------------------------------------------
          | TOTAL ENERGY              -74.314345509786 Eh   |
          | GRADIENT NORM               0.000431537570 Eh/α |
          | HOMO-LUMO GAP               2.246190242265 eV   |
           -------------------------------------------------

------------------------------------------------------------------------
 * finished run on 2025/12/01 at 14:17:47.139     
------------------------------------------------------------------------
 total:
 * wall-time:     0 d,  0 h,  0 min,  0.876 sec
 *  cpu-time:     0 d,  0 h,  0 min, 19.776 sec
 * ratio c/w:    22.571 speedup
 SCF:
 * wall-time:     0 d,  0 h,  0 min,  0.085 sec
 *  cpu-time:     0 d,  0 h,  0 min,  1.928 sec
 * ratio c/w:    22.706 speedup
 ANC optimizer:
 * wall-time:     0 d,  0 h,  0 min,  0.776 sec
 *  cpu-time:     0 d,  0 h,  0 min, 17.614 sec
 * ratio c/w:    22.712 speedup

normal termination of xtb
