      -----------------------------------------------------------      
     |                   =====================                   |     
     |                           x T B                           |     
     |                   =====================                   |     
     |                         S. Grimme                         |     
     |          Mulliken Center for Theoretical Chemistry        |     
     |                    University of Bonn                     |     
      -----------------------------------------------------------      

   * xtb version 6.7.1 (edcfbbe) compiled by 'albert@albert-system' on 2024-07-22

   xtb is free software: you can redistribute it and/or modify it under
   the terms of the GNU Lesser General Public License as published by
   the Free Software Foundation, either version 3 of the License, or
   (at your option) any later version.
   
   xtb is distributed in the hope that it will be useful,
   but WITHOUT ANY WARRANTY; without even the implied warranty of
   MERCHANTABILITY or FITNESS FOR A PARTICULAR PURPOSE.  See the
   GNU Lesser General Public License for more details.
   
   Cite this work as:
   * C. Bannwarth, E. Caldeweyher, S. Ehlert, A. Hansen, P. Pracht,
     J. Seibert, S. Spicher, S. Grimme, WIREs Comput. Mol. Sci., 2020, 11,
     e01493. DOI: 10.1002/wcms.1493
   
   for GFN2-xTB:
   * C. Bannwarth, S. Ehlert and S. Grimme., J. Chem. Theory Comput., 2019,
     15, 1652-1671. DOI: 10.1021/acs.jctc.8b01176
   for GFN1-xTB:
   * S. Grimme, C. Bannwarth, P. Shushkov, J. Chem. Theory Comput., 2017,
     13, 1989-2009. DOI: 10.1021/acs.jctc.7b00118
   for GFN0-xTB:
   * P. Pracht, E. Caldeweyher, S. Ehlert, S. Grimme, ChemRxiv, 2019, preprint.
     DOI: 10.26434/chemrxiv.8326202.v1
   for GFN-FF:
   * S. Spicher and S. Grimme, Angew. Chem. Int. Ed., 2020, 59, 15665-15673.
     DOI: 10.1002/anie.202004239
   
   for ALPB and GBSA implicit solvation:
   * S. Ehlert, M. Stahn, S. Spicher, S. Grimme, J. Chem. Theory Comput.,
     2021, 17, 4250-4261. DOI: 10.1021/acs.jctc.1c00471
   
   for ddCOSMO and CPCM-X implicit solvation:
   * M. Stahn, S. Ehlert, S. Grimme, J. Phys. Chem. A,
     2023, XX, XXXX-XXXX. DOI: 10.1021/acs.jpca.3c04382
   
   for DFT-D4:
   * E. Caldeweyher, C. Bannwarth and S. Grimme, J. Chem. Phys., 2017,
     147, 034112. DOI: 10.1063/1.4993215
   * E. Caldeweyher, S. Ehlert, A. Hansen, H. Neugebauer, S. Spicher,
     C. Bannwarth and S. Grimme, J. Chem. Phys., 2019, 150, 154122.
     DOI: 10.1063/1.5090222
   * E. Caldeweyher, J.-M. Mewes, S. Ehlert and S. Grimme, Phys. Chem. Chem. Phys.
     2020, 22, 8499-8512. DOI: 10.1039/D0CP00502A
   
   for sTDA-xTB:
   * S. Grimme and C. Bannwarth, J. Chem. Phys., 2016, 145, 054103.
     DOI: 10.1063/1.4959605
   
   in the mass-spec context:
   * V. Asgeirsson, C. Bauer and S. Grimme, Chem. Sci., 2017, 8, 4879.
     DOI: 10.1039/c7sc00601b
   * J. Koopman and S. Grimme, ACS Omega 2019, 4, 12, 15120-15133.
     DOI: 10.1021/acsomega.9b02011
   
   for metadynamics refer to:
   * S. Grimme, J. Chem. Theory Comput., 2019, 155, 2847-2862
     DOI: 10.1021/acs.jctc.9b00143
   
   for SPH calculations refer to:
   * S. Spicher and S. Grimme, J. Chem. Theory Comput., 2021, 17, 1701-1714
     DOI: 10.1021/acs.jctc.0c01306
   
   for ONIOM refer to:
   * C. Plett, A. Katbashev, S. Ehlert, S. Grimme, M. Bursch,
     Phys. Chem. Chem. Phys., 2023, 25, 17860-17868. DOI: 10.1039/D3CP02178E
   
   for DIPRO refer to:
   * J. Kohn, N. Gildemeister, S. Grimme, D. Fazzi, A. Hansen,
     J. Chem. Phys., 2023, just accepted.
   
   for PTB refer to:
   * S. Grimme, M. Mueller, A. Hansen, J. Chem. Phys., 2023, 158, 124111.
     DOI: 10.1063/5.0137838
   
   with help from (in alphabetical order)
   P. Atkinson, C. Bannwarth, F. Bohle, G. Brandenburg, E. Caldeweyher
   M. Checinski, S. Dohm, S. Ehlert, S. Ehrlich, I. Gerasimov, C. Hölzer
   A. Katbashev, J. Kohn, J. Koopman, C. Lavigne, S. Lehtola, F. März, M. Müller,
   F. Musil, H. Neugebauer, J. Pisarek, C. Plett, P. Pracht, F. Pultar,
   J. Seibert, P. Shushkov, S. Spicher, M. Stahn, M. Steiner, T. Strunk,
   J. Stückrath, T. Rose, and J. Unsleber
   
 * started run on 2025/12/01 at 14:17:47.163     
   ID    Z sym.   atoms
    1    8 O      1, 4, 13, 15, 23
    2    6 C      2, 3, 5-12, 14, 16-22, 24, 25
    3    1 H      26-47

           -------------------------------------------------
          |                Calculation Setup                |
           -------------------------------------------------

          program call               : xtb pipeline_data/3_conformer_xyz/acrylates/rdkit/IWBDNDKRBBFYKG-JLHYYAGUSA-N_conf66.xyz --opt --gfn 2-xTB --iterations 250
          coordinate file            : pipeline_data/3_conformer_xyz/acrylates/rdkit/IWBDNDKRBBFYKG-JLHYYAGUSA-N_conf66.xyz
          omp threads                :                    24

########################################################################
[WARNING] Please study the warnings concerning your input carefully
-1- readin_getIntValue: could not parse '2-xTB'
########################################################################

           -------------------------------------------------
          |                 G F N 2 - x T B                 |
           -------------------------------------------------

        Reference                      10.1021/acs.jctc.8b01176
      * Hamiltonian:
        H0-scaling (s, p, d)           1.850000    2.230000    2.230000
        zeta-weighting                 0.500000
      * Dispersion:
        s8                             2.700000
        a1                             0.520000
        a2                             5.000000
        s9                             5.000000
      * Repulsion:
        kExp                           1.500000    1.000000
        rExp                           1.000000
      * Coulomb:
        alpha                          2.000000
        third order                    shell-resolved
        anisotropic                    true
        a3                             3.000000
        a5                             4.000000
        cn-shift                       1.200000
        cn-exp                         4.000000
        max-rad                        5.000000

q/qsh data taken from xtbrestart
CAMM data taken from xtbrestart

          ...................................................
          :                      SETUP                      :
          :.................................................:
          :  # basis functions                 122          :
          :  # atomic orbitals                 122          :
          :  # shells                           72          :
          :  # electrons                       132          :
          :  max. iterations                   250          :
          :  Hamiltonian                  GFN2-xTB          :
          :  restarted?                       true          :
          :  GBSA solvation                  false          :
          :  PC potential                    false          :
          :  electronic temp.          300.0000000     K    :
          :  accuracy                    1.0000000          :
          :  -> integral cutoff          0.2500000E+02      :
          :  -> integral neglect         0.1000000E-07      :
          :  -> SCF convergence          0.1000000E-05 Eh   :
          :  -> wf. convergence          0.1000000E-03 e    :
          :  Broyden damping             0.4000000          :
          :  net charge                          0          :
          :  unpaired electrons                  0          :
          ...................................................

 iter      E             dE          RMSdq      gap      omega  full diag
   1    -75.2645489 -0.752645E+02  0.529E+00    2.25       0.0  T
   2    -75.2753915 -0.108426E-01  0.314E+00    2.23       1.0  T
   3    -75.2664579  0.893359E-02  0.577E-01    2.50       1.0  T
   4    -75.2793974 -0.129395E-01  0.154E-01    2.37       1.0  T
   5    -75.2795789 -0.181491E-03  0.864E-02    2.37       1.0  T
   6    -75.2796379 -0.589792E-04  0.320E-02    2.37       1.0  T
   7    -75.2796620 -0.241488E-04  0.116E-02    2.37       1.3  T
   8    -75.2796639 -0.187233E-05  0.531E-03    2.37       2.7  T
   9    -75.2796640 -0.161886E-06  0.298E-03    2.37       4.9  T
  10    -75.2796643 -0.210583E-06  0.109E-03    2.37      13.4  T
  11    -75.2796643 -0.176993E-07  0.444E-04    2.37      32.8  T
  12    -75.2796643 -0.183134E-08  0.205E-04    2.37      71.2  T

   *** convergence criteria satisfied after 12 iterations ***

         #    Occupation            Energy/Eh            Energy/eV
      -------------------------------------------------------------
         1        2.0000           -0.7260477             -19.7568
       ...           ...                  ...                  ...
        60        2.0000           -0.4214297             -11.4677
        61        2.0000           -0.4193222             -11.4103
        62        2.0000           -0.4110325             -11.1848
        63        2.0000           -0.4078851             -11.0991
        64        2.0000           -0.4049170             -11.0184
        65        2.0000           -0.3924304             -10.6786
        66        2.0000           -0.3873441             -10.5402 (HOMO)
        67                         -0.3001723              -8.1681 (LUMO)
        68                         -0.2394991              -6.5171
        69                         -0.2323835              -6.3235
        70                         -0.2284951              -6.2177
        71                         -0.2242727              -6.1028
       ...                                ...                  ...
       122                          0.7037874              19.1510
      -------------------------------------------------------------
                  HL-Gap            0.0871719 Eh            2.3721 eV
             Fermi-level           -0.3437582 Eh           -9.3541 eV

 SCC (total)                   0 d,  0 h,  0 min,  0.063 sec
 SCC setup                      ...        0 min,  0.000 sec (  0.620%)
 Dispersion                     ...        0 min,  0.007 sec ( 11.648%)
 classical contributions        ...        0 min,  0.000 sec (  0.176%)
 integral evaluation            ...        0 min,  0.003 sec (  4.389%)
 iterations                     ...        0 min,  0.044 sec ( 71.084%)
 molecular gradient             ...        0 min,  0.006 sec ( 10.034%)
 printout                       ...        0 min,  0.001 sec (  1.979%)

         :::::::::::::::::::::::::::::::::::::::::::::::::::::
         ::                     SUMMARY                     ::
         :::::::::::::::::::::::::::::::::::::::::::::::::::::
         :: total energy             -74.284960533882 Eh    ::
         :: gradient norm              0.160666011927 Eh/a0 ::
         :: HOMO-LUMO gap              2.372066894766 eV    ::
         ::.................................................::
         :: SCC energy               -75.279721747643 Eh    ::
         :: -> isotropic ES            0.106040731913 Eh    ::
         :: -> anisotropic ES          0.004061343205 Eh    ::
         :: -> anisotropic XC          0.019736509436 Eh    ::
         :: -> dispersion             -0.048105945053 Eh    ::
         :: repulsion energy           0.994761213761 Eh    ::
         :: add. restraining           0.000000000000 Eh    ::
         :: total charge               0.000000000000 e     ::
         :::::::::::::::::::::::::::::::::::::::::::::::::::::

      ----------------------------------------------------------- 
     |                   =====================                   |
     |                        A N C O P T                        |
     |                   =====================                   |
     |               Approximate Normal Coordinate               |
     |                Rational Function Optimizer                |
      ----------------------------------------------------------- 
      ----------------------------------------------------------- 
     |                   =====================                   |
     |                        A N C O P T                        |
     |                   =====================                   |
     |               Approximate Normal Coordinate               |
     |                Rational Function Optimizer                |
      ----------------------------------------------------------- 

          ...................................................
          :                      SETUP                      :
          :.................................................:
          :   optimization level            normal          :
          :   max. optcycles                   200          :
          :   ANC micro-cycles                  20          :
          :   degrees of freedom               135          :
          :.................................................:
          :   RF solver                   davidson          :
          :   write xtbopt.log                true          :
          :   linear?                        false          :
          :   energy convergence         0.5000000E-05 Eh   :
          :   grad. convergence          0.1000000E-02 Eh/α :
          :   maxmium RF displ.          1.0000000          :
          :   Hlow (freq-cutoff)         0.1000000E-01      :
          :   Hmax (freq-cutoff)         5.0000000          :
          :   S6 in model hess.         20.0000000          :
          ...................................................

generating ANC from exact Hessian ...
Using Lindh-Hessian (1995)
 Shifting diagonal of input Hessian by   9.878761238582612E-003
 Lowest  eigenvalues of input Hessian
    0.000000    0.000000    0.000000    0.000000    0.000000    0.000000
    0.010000    0.010331    0.010464    0.010571    0.011293    0.011466
    0.011628    0.012398    0.012602    0.013212    0.013313    0.015259
 Highest eigenvalues
    1.978510    2.002022    2.017831    2.034597    2.070576    2.155953
 

........................................................................
.............................. CYCLE    1 ..............................
........................................................................

 iter      E             dE          RMSdq      gap      omega  full diag
   1    -75.2796643 -0.752797E+02  0.538E-05    2.37       0.0  T
   2    -75.2796643 -0.236611E-10  0.330E-05    2.37     442.1  T
   3    -75.2796643 -0.891021E-11  0.214E-05    2.37     682.1  T
     SCC iter.                  ...        0 min,  0.017 sec
     gradient                   ...        0 min,  0.008 sec
 * total energy  :   -74.2849605 Eh     change       -0.6253202E-09 Eh
   gradient norm :     0.1606661 Eh/α   predicted     0.0000000E+00 (-100.00%)
   displ. norm   :     0.3250242 α      lambda       -0.2649303E-01
   maximum displ.:     0.0917307 α      in ANC's #32, #14, #13, ...

........................................................................
.............................. CYCLE    2 ..............................
........................................................................

 iter      E             dE          RMSdq      gap      omega  full diag
   1    -75.3079399 -0.753079E+02  0.212E-01    2.36       0.0  T
   2    -75.3083549 -0.415073E-03  0.138E-01    2.35       1.0  T
   3    -75.3083779 -0.229282E-04  0.718E-02    2.35       1.0  T
   4    -75.3084213 -0.433732E-04  0.237E-02    2.34       1.0  T
   5    -75.3084409 -0.196957E-04  0.645E-03    2.34       2.3  T
   6    -75.3084419 -0.939171E-06  0.337E-03    2.34       4.3  T
   7    -75.3084422 -0.341490E-06  0.138E-03    2.34      10.6  T
   8    -75.3084422 -0.144734E-07  0.611E-04    2.34      23.9  T
   9    -75.3084422 -0.420810E-08  0.216E-04    2.34      67.6  T
     SCC iter.                  ...        0 min,  0.037 sec
     gradient                   ...        0 min,  0.004 sec
 * total energy  :   -74.3035734 Eh     change       -0.1861287E-01 Eh
   gradient norm :     0.0652626 Eh/α   predicted    -0.1466128E-01 ( -21.23%)
   displ. norm   :     0.3299324 α      lambda       -0.8886675E-02
   maximum displ.:     0.1493422 α      in ANC's #14, #13, #12, ...

........................................................................
.............................. CYCLE    3 ..............................
........................................................................

 iter      E             dE          RMSdq      gap      omega  full diag
   1    -75.3206339 -0.753206E+02  0.147E-01    2.32       0.0  T
   2    -75.3208708 -0.236873E-03  0.964E-02    2.31       1.0  T
   3    -75.3209030 -0.322027E-04  0.536E-02    2.31       1.0  T
   4    -75.3209207 -0.176789E-04  0.198E-02    2.29       1.0  T
   5    -75.3209325 -0.118028E-04  0.584E-03    2.30       2.5  T
   6    -75.3209335 -0.946304E-06  0.266E-03    2.30       5.5  T
   7    -75.3209337 -0.254762E-06  0.928E-04    2.30      15.7  T
   8    -75.3209337 -0.539185E-08  0.459E-04    2.30      31.8  T
     SCC iter.                  ...        0 min,  0.023 sec
     gradient                   ...        0 min,  0.006 sec
 * total energy  :   -74.3089083 Eh     change       -0.5334900E-02 Eh
   gradient norm :     0.0169877 Eh/α   predicted    -0.4929366E-02 (  -7.60%)
   displ. norm   :     0.2778987 α      lambda       -0.1623530E-02
   maximum displ.:     0.1546912 α      in ANC's #14, #13, #12, ...

........................................................................
.............................. CYCLE    4 ..............................
........................................................................

 iter      E             dE          RMSdq      gap      omega  full diag
   1    -75.3181482 -0.753181E+02  0.717E-02    2.28       0.0  T
   2    -75.3181581 -0.990309E-05  0.438E-02    2.28       1.0  T
   3    -75.3181437  0.144006E-04  0.217E-02    2.28       1.0  T
   4    -75.3181618 -0.180780E-04  0.506E-03    2.27       2.9  T
   5    -75.3181625 -0.724970E-06  0.194E-03    2.27       7.5  T
   6    -75.3181626 -0.694907E-07  0.880E-04    2.27      16.6  T
   7    -75.3181626 -0.141857E-07  0.452E-04    2.27      32.3  T
     SCC iter.                  ...        0 min,  0.040 sec
     gradient                   ...        0 min,  0.005 sec
 * total energy  :   -74.3100729 Eh     change       -0.1164556E-02 Eh
   gradient norm :     0.0104884 Eh/α   predicted    -0.8744631E-03 ( -24.91%)
   displ. norm   :     0.3044650 α      lambda       -0.9229144E-03
   maximum displ.:     0.1805852 α      in ANC's #14, #13, #12, ...

........................................................................
.............................. CYCLE    5 ..............................
........................................................................

 iter      E             dE          RMSdq      gap      omega  full diag
   1    -75.3154268 -0.753154E+02  0.762E-02    2.27       0.0  T
   2    -75.3154300 -0.317686E-05  0.454E-02    2.27       1.0  T
   3    -75.3154275  0.245139E-05  0.920E-03    2.26       1.6  T
   4    -75.3154309 -0.342624E-05  0.240E-03    2.27       6.1  T
   5    -75.3154310 -0.730866E-07  0.125E-03    2.27      11.7  T
   6    -75.3154310 -0.178686E-07  0.649E-04    2.27      22.5  T
   7    -75.3154310 -0.606663E-08  0.269E-04    2.27      54.2  T
     SCC iter.                  ...        0 min,  0.034 sec
     gradient                   ...        0 min,  0.005 sec
 * total energy  :   -74.3106931 Eh     change       -0.6201965E-03 Eh
   gradient norm :     0.0071469 Eh/α   predicted    -0.5042379E-03 ( -18.70%)
   displ. norm   :     0.2272132 α      lambda       -0.3725986E-03
   maximum displ.:     0.1290165 α      in ANC's #14, #8, #12, ...

........................................................................
.............................. CYCLE    6 ..............................
........................................................................

 iter      E             dE          RMSdq      gap      omega  full diag
   1    -75.3146633 -0.753147E+02  0.578E-02    2.27       0.0  T
   2    -75.3146653 -0.203297E-05  0.348E-02    2.27       1.0  T
   3    -75.3146618  0.357428E-05  0.109E-02    2.27       1.3  T
   4    -75.3146660 -0.426322E-05  0.248E-03    2.27       5.9  T
   5    -75.3146662 -0.133790E-06  0.127E-03    2.27      11.4  T
   6    -75.3146662 -0.276868E-07  0.588E-04    2.27      24.8  T
   7    -75.3146662 -0.270465E-08  0.231E-04    2.27      63.1  T
     SCC iter.                  ...        0 min,  0.027 sec
     gradient                   ...        0 min,  0.008 sec
 * total energy  :   -74.3109624 Eh     change       -0.2693442E-03 Eh
   gradient norm :     0.0079376 Eh/α   predicted    -0.1959174E-03 ( -27.26%)
   displ. norm   :     0.2408627 α      lambda       -0.3167577E-03
   maximum displ.:     0.1177773 α      in ANC's #14, #8, #7, ...

........................................................................
.............................. CYCLE    7 ..............................
........................................................................

 iter      E             dE          RMSdq      gap      omega  full diag
   1    -75.3148606 -0.753149E+02  0.621E-02    2.28       0.0  T
   2    -75.3148629 -0.233071E-05  0.375E-02    2.28       1.0  T
   3    -75.3148584  0.451957E-05  0.117E-02    2.28       1.2  T
   4    -75.3148637 -0.530820E-05  0.268E-03    2.28       5.5  T
   5    -75.3148639 -0.167453E-06  0.130E-03    2.28      11.2  T
   6    -75.3148639 -0.234943E-07  0.582E-04    2.28      25.1  T
   7    -75.3148639 -0.281251E-08  0.254E-04    2.28      57.4  T
     SCC iter.                  ...        0 min,  0.022 sec
     gradient                   ...        0 min,  0.006 sec
 * total energy  :   -74.3111992 Eh     change       -0.2367501E-03 Eh
   gradient norm :     0.0089873 Eh/α   predicted    -0.1675676E-03 ( -29.22%)
   displ. norm   :     0.2835884 α      lambda       -0.3479213E-03
   maximum displ.:     0.1509176 α      in ANC's #8, #7, #14, ...

........................................................................
.............................. CYCLE    8 ..............................
........................................................................

 iter      E             dE          RMSdq      gap      omega  full diag
   1    -75.3155842 -0.753156E+02  0.739E-02    2.29       0.0  T
   2    -75.3155864 -0.218470E-05  0.443E-02    2.29       1.0  T
   3    -75.3155836  0.282966E-05  0.912E-03    2.29       1.6  T
   4    -75.3155871 -0.354283E-05  0.260E-03    2.30       5.6  T
   5    -75.3155872 -0.124592E-06  0.139E-03    2.30      10.5  T
   6    -75.3155873 -0.240127E-07  0.555E-04    2.30      26.3  T
   7    -75.3155873 -0.392562E-08  0.240E-04    2.30      60.9  T
     SCC iter.                  ...        0 min,  0.021 sec
     gradient                   ...        0 min,  0.007 sec
 * total energy  :   -74.3114649 Eh     change       -0.2657152E-03 Eh
   gradient norm :     0.0085337 Eh/α   predicted    -0.1879525E-03 ( -29.27%)
   displ. norm   :     0.3365160 α      lambda       -0.3765330E-03
   maximum displ.:     0.1792004 α      in ANC's #8, #7, #15, ...

........................................................................
.............................. CYCLE    9 ..............................
........................................................................

 iter      E             dE          RMSdq      gap      omega  full diag
   1    -75.3161632 -0.753162E+02  0.894E-02    2.30       0.0  T
   2    -75.3161651 -0.191054E-05  0.532E-02    2.30       1.0  T
   3    -75.3161625  0.265177E-05  0.836E-03    2.30       1.7  T
   4    -75.3161660 -0.354946E-05  0.224E-03    2.30       6.5  T
   5    -75.3161660 -0.264054E-07  0.127E-03    2.30      11.5  T
   6    -75.3161661 -0.258089E-07  0.544E-04    2.30      26.8  T
   7    -75.3161661 -0.609249E-08  0.209E-04    2.30      69.8  T
     SCC iter.                  ...        0 min,  0.020 sec
     gradient                   ...        0 min,  0.007 sec
 * total energy  :   -74.3117539 Eh     change       -0.2890131E-03 Eh
   gradient norm :     0.0077722 Eh/α   predicted    -0.2095881E-03 ( -27.48%)
   displ. norm   :     0.3626963 α      lambda       -0.3546365E-03
   maximum displ.:     0.2016011 α      in ANC's #7, #8, #15, ...

........................................................................
.............................. CYCLE   10 ..............................
........................................................................

 iter      E             dE          RMSdq      gap      omega  full diag
   1    -75.3167077 -0.753167E+02  0.975E-02    2.30       0.0  T
   2    -75.3167104 -0.273981E-05  0.578E-02    2.30       1.0  T
   3    -75.3166994  0.110013E-04  0.166E-02    2.30       1.0  T
   4    -75.3167121 -0.126651E-04  0.284E-03    2.30       5.1  T
   5    -75.3167122 -0.137751E-06  0.160E-03    2.30       9.1  T
   6    -75.3167122 -0.466671E-07  0.655E-04    2.30      22.3  T
   7    -75.3167123 -0.435337E-08  0.237E-04    2.30      61.7  T
     SCC iter.                  ...        0 min,  0.020 sec
     gradient                   ...        0 min,  0.007 sec
 * total energy  :   -74.3120162 Eh     change       -0.2622764E-03 Eh
   gradient norm :     0.0061284 Eh/α   predicted    -0.2006448E-03 ( -23.50%)
   displ. norm   :     0.3320516 α      lambda       -0.2381599E-03
   maximum displ.:     0.1910276 α      in ANC's #7, #8, #15, ...

........................................................................
.............................. CYCLE   11 ..............................
........................................................................

 iter      E             dE          RMSdq      gap      omega  full diag
   1    -75.3166919 -0.753167E+02  0.889E-02    2.30       0.0  T
   2    -75.3166945 -0.259173E-05  0.526E-02    2.29       1.0  T
   3    -75.3166825  0.120433E-04  0.173E-02    2.29       1.0  T
   4    -75.3166962 -0.136787E-04  0.264E-03    2.29       5.5  T
   5    -75.3166963 -0.148532E-06  0.140E-03    2.29      10.4  T
   6    -75.3166963 -0.395998E-07  0.584E-04    2.29      25.0  T
   7    -75.3166963 -0.342415E-08  0.230E-04    2.29      63.4  T
     SCC iter.                  ...        0 min,  0.020 sec
     gradient                   ...        0 min,  0.006 sec
 * total energy  :   -74.3121862 Eh     change       -0.1700739E-03 Eh
   gradient norm :     0.0052721 Eh/α   predicted    -0.1322130E-03 ( -22.26%)
   displ. norm   :     0.2585628 α      lambda       -0.2113416E-03
   maximum displ.:     0.1544091 α      in ANC's #7, #9, #15, ...

........................................................................
.............................. CYCLE   12 ..............................
........................................................................

 iter      E             dE          RMSdq      gap      omega  full diag
   1    -75.3219939 -0.753220E+02  0.737E-02    2.28       0.0  T
   2    -75.3219973 -0.335072E-05  0.432E-02    2.28       1.0  T
   3    -75.3219903  0.700102E-05  0.139E-02    2.28       1.0  T
   4    -75.3219984 -0.810968E-05  0.295E-03    2.28       4.9  T
   5    -75.3219986 -0.204864E-06  0.137E-03    2.28      10.6  T
   6    -75.3219987 -0.398429E-07  0.631E-04    2.28      23.1  T
   7    -75.3219987 -0.478475E-08  0.311E-04    2.28      46.9  T
     SCC iter.                  ...        0 min,  0.020 sec
     gradient                   ...        0 min,  0.007 sec
 * total energy  :   -74.3121657 Eh     change        0.2049740E-04 Eh
   gradient norm :     0.0149698 Eh/α   predicted    -0.1127684E-03 (-650.16%)
   displ. norm   :     0.2990743 α      lambda       -0.3703471E-03
   maximum displ.:     0.1712067 α      in ANC's #7, #8, #14, ...

........................................................................
.............................. CYCLE   13 ..............................
........................................................................

 iter      E             dE          RMSdq      gap      omega  full diag
   1    -75.3171184 -0.753171E+02  0.803E-02    2.27       0.0  T
   2    -75.3171210 -0.259878E-05  0.473E-02    2.27       1.0  T
   3    -75.3171188  0.215472E-05  0.813E-03    2.27       1.8  T
   4    -75.3171219 -0.309967E-05  0.272E-03    2.27       5.4  T
   5    -75.3171220 -0.874736E-07  0.146E-03    2.27      10.0  T
   6    -75.3171221 -0.387082E-07  0.728E-04    2.27      20.0  T
   7    -75.3171221 -0.750258E-08  0.244E-04    2.27      59.9  T
     SCC iter.                  ...        0 min,  0.020 sec
     gradient                   ...        0 min,  0.006 sec
 * total energy  :   -74.3123285 Eh     change       -0.1627378E-03 Eh
   gradient norm :     0.0060764 Eh/α   predicted    -0.2017392E-03 (  23.97%)
   displ. norm   :     0.0804641 α      lambda       -0.7735316E-04
   maximum displ.:     0.0399680 α      in ANC's #8, #15, #7, ...

........................................................................
.............................. CYCLE   14 ..............................
........................................................................

 iter      E             dE          RMSdq      gap      omega  full diag
   1    -75.3187195 -0.753187E+02  0.231E-02    2.27       0.0  T
   2    -75.3187203 -0.744438E-06  0.139E-02    2.28       1.1  T
   3    -75.3187186  0.173036E-05  0.778E-03    2.28       1.9  T
   4    -75.3187207 -0.212669E-05  0.132E-03    2.28      11.0  T
   5    -75.3187207 -0.520766E-07  0.562E-04    2.28      26.0  T
   6    -75.3187207 -0.848242E-08  0.243E-04    2.28      60.0  T
     SCC iter.                  ...        0 min,  0.018 sec
     gradient                   ...        0 min,  0.006 sec
 * total energy  :   -74.3123806 Eh     change       -0.5211349E-04 Eh
   gradient norm :     0.0021491 Eh/α   predicted    -0.3892853E-04 ( -25.30%)
   displ. norm   :     0.1803320 α      lambda       -0.9445413E-04
   maximum displ.:     0.1121463 α      in ANC's #7, #6, #14, ...

........................................................................
.............................. CYCLE   15 ..............................
........................................................................

 iter      E             dE          RMSdq      gap      omega  full diag
   1    -75.3190841 -0.753191E+02  0.499E-02    2.28       0.0  T
   2    -75.3190850 -0.953594E-06  0.296E-02    2.28       1.0  T
   3    -75.3190821  0.297509E-05  0.896E-03    2.28       1.6  T
   4    -75.3190854 -0.334907E-05  0.148E-03    2.28       9.8  T
   5    -75.3190855 -0.684656E-07  0.604E-04    2.28      24.2  T
   6    -75.3190855 -0.789606E-08  0.291E-04    2.28      50.2  T
     SCC iter.                  ...        0 min,  0.019 sec
     gradient                   ...        0 min,  0.006 sec
 * total energy  :   -74.3124539 Eh     change       -0.7336112E-04 Eh
   gradient norm :     0.0028689 Eh/α   predicted    -0.4876342E-04 ( -33.53%)
   displ. norm   :     0.3482298 α      lambda       -0.1273511E-03
   maximum displ.:     0.2106662 α      in ANC's #7, #6, #1, ...

........................................................................
.............................. CYCLE   16 ..............................
........................................................................

 iter      E             dE          RMSdq      gap      omega  full diag
   1    -75.3197672 -0.753198E+02  0.949E-02    2.28       0.0  T
   2    -75.3197687 -0.155660E-05  0.560E-02    2.28       1.0  T
   3    -75.3197660  0.272078E-05  0.881E-03    2.28       1.7  T
   4    -75.3197693 -0.330335E-05  0.205E-03    2.28       7.1  T
   5    -75.3197694 -0.767546E-07  0.108E-03    2.28      13.5  T
   6    -75.3197694 -0.136388E-07  0.500E-04    2.28      29.2  T
   7    -75.3197694 -0.432574E-08  0.157E-04    2.28      92.6  T
     SCC iter.                  ...        0 min,  0.021 sec
     gradient                   ...        0 min,  0.006 sec
 * total energy  :   -74.3125379 Eh     change       -0.8394955E-04 Eh
   gradient norm :     0.0049788 Eh/α   predicted    -0.7139875E-04 ( -14.95%)
   displ. norm   :     0.4336731 α      lambda       -0.1227647E-03
   maximum displ.:     0.2601681 α      in ANC's #7, #6, #15, ...

........................................................................
.............................. CYCLE   17 ..............................
........................................................................

 iter      E             dE          RMSdq      gap      omega  full diag
   1    -75.3155047 -0.753155E+02  0.117E-01    2.27       0.0  T
   2    -75.3155067 -0.200281E-05  0.686E-02    2.27       1.0  T
   3    -75.3155057  0.104817E-05  0.603E-03    2.27       2.4  T
   4    -75.3155074 -0.172701E-05  0.193E-03    2.27       7.5  T
   5    -75.3155074 -0.491880E-07  0.100E-03    2.27      14.6  T
   6    -75.3155074 -0.449300E-08  0.316E-04    2.27      46.1  T
   7    -75.3155074 -0.243031E-08  0.130E-04    2.27     112.0  T
     SCC iter.                  ...        0 min,  0.021 sec
     gradient                   ...        0 min,  0.006 sec
 * total energy  :   -74.3125609 Eh     change       -0.2301728E-04 Eh
   gradient norm :     0.0076873 Eh/α   predicted    -0.7292731E-04 ( 216.84%)
   displ. norm   :     0.0785072 α      lambda       -0.1347766E-03
   maximum displ.:     0.0325159 α      in ANC's #6, #10, #14, ...

........................................................................
.............................. CYCLE   18 ..............................
........................................................................

 iter      E             dE          RMSdq      gap      omega  full diag
   1    -75.3200967 -0.753201E+02  0.235E-02    2.27       0.0  T
   2    -75.3200977 -0.107986E-05  0.141E-02    2.27       1.0  T
   3    -75.3200968  0.961235E-06  0.631E-03    2.27       2.3  T
   4    -75.3200979 -0.116203E-05  0.172E-03    2.27       8.5  T
   5    -75.3200980 -0.902844E-07  0.636E-04    2.27      22.9  T
   6    -75.3200980 -0.690127E-08  0.331E-04    2.27      44.0  T
     SCC iter.                  ...        0 min,  0.018 sec
     gradient                   ...        0 min,  0.007 sec
 * total energy  :   -74.3126364 Eh     change       -0.7548448E-04 Eh
   gradient norm :     0.0039034 Eh/α   predicted    -0.6780726E-04 ( -10.17%)
   displ. norm   :     0.1762654 α      lambda       -0.1005582E-03
   maximum displ.:     0.0984275 α      in ANC's #7, #1, #8, ...

........................................................................
.............................. CYCLE   19 ..............................
........................................................................

 iter      E             dE          RMSdq      gap      omega  full diag
   1    -75.3202237 -0.753202E+02  0.505E-02    2.27       0.0  T
   2    -75.3202251 -0.142627E-05  0.297E-02    2.26       1.0  T
   3    -75.3202225  0.268242E-05  0.890E-03    2.27       1.6  T
   4    -75.3202255 -0.304915E-05  0.200E-03    2.26       7.3  T
   5    -75.3202256 -0.117799E-06  0.814E-04    2.26      17.9  T
   6    -75.3202256 -0.665950E-08  0.446E-04    2.26      32.7  T
     SCC iter.                  ...        0 min,  0.017 sec
     gradient                   ...        0 min,  0.006 sec
 * total energy  :   -74.3126574 Eh     change       -0.2095552E-04 Eh
   gradient norm :     0.0052580 Eh/α   predicted    -0.5185179E-04 ( 147.44%)
   displ. norm   :     0.1764403 α      lambda       -0.8448132E-04
   maximum displ.:     0.0970658 α      in ANC's #7, #6, #2, ...

........................................................................
.............................. CYCLE   20 ..............................
........................................................................

 iter      E             dE          RMSdq      gap      omega  full diag
   1    -75.3201780 -0.753202E+02  0.485E-02    2.26       0.0  T
   2    -75.3201786 -0.535179E-06  0.286E-02    2.26       1.0  T
   3    -75.3201783  0.246804E-06  0.325E-03    2.26       4.5  T
   4    -75.3201787 -0.356036E-06  0.132E-03    2.26      11.0  T
   5    -75.3201787 -0.450543E-07  0.606E-04    2.26      24.1  T
   6    -75.3201787 -0.198328E-08  0.288E-04    2.26      50.7  T
     SCC iter.                  ...        0 min,  0.017 sec
     gradient                   ...        0 min,  0.006 sec
 * total energy  :   -74.3127153 Eh     change       -0.5791042E-04 Eh
   gradient norm :     0.0024943 Eh/α   predicted    -0.4355690E-04 ( -24.79%)
   displ. norm   :     0.1970007 α      lambda       -0.5563291E-04
   maximum displ.:     0.0953616 α      in ANC's #7, #2, #1, ...
 * RMSD in coord.:     0.5588102 α      energy gain  -0.2775473E-01 Eh

generating ANC from exact Hessian ...
Using Lindh-Hessian (1995)
 Shifting diagonal of input Hessian by   9.879872194796331E-003
 Lowest  eigenvalues of input Hessian
    0.000000    0.000000    0.000000    0.000000    0.000000    0.000000
    0.010000    0.010306    0.010438    0.010541    0.011273    0.011385
    0.011494    0.012048    0.012554    0.012825    0.013276    0.014740
 Highest eigenvalues
    1.963635    2.012158    2.025916    2.038018    2.147026    2.183587
 

........................................................................
.............................. CYCLE   21 ..............................
........................................................................

 iter      E             dE          RMSdq      gap      omega  full diag
   1    -75.3203855 -0.753204E+02  0.521E-02    2.26       0.0  T
   2    -75.3203859 -0.433553E-06  0.307E-02    2.26       1.0  T
   3    -75.3203858  0.174311E-06  0.278E-03    2.26       5.3  T
   4    -75.3203861 -0.302599E-06  0.117E-03    2.26      12.5  T
   5    -75.3203861 -0.264272E-07  0.610E-04    2.26      23.9  T
   6    -75.3203861 -0.342233E-08  0.292E-04    2.26      50.0  T
     SCC iter.                  ...        0 min,  0.017 sec
     gradient                   ...        0 min,  0.007 sec
 * total energy  :   -74.3127543 Eh     change       -0.3899868E-04 Eh
   gradient norm :     0.0024672 Eh/α   predicted     0.0000000E+00 (-100.00%)
   displ. norm   :     0.0385604 α      lambda       -0.2899226E-04
   maximum displ.:     0.0195811 α      in ANC's #2, #14, #9, ...

........................................................................
.............................. CYCLE   22 ..............................
........................................................................

 iter      E             dE          RMSdq      gap      omega  full diag
   1    -75.3203432 -0.753203E+02  0.103E-02    2.26       0.0  T
   2    -75.3203433 -0.767025E-07  0.613E-03    2.26       2.4  T
   3    -75.3203431  0.192735E-06  0.233E-03    2.26       6.3  T
   4    -75.3203433 -0.222995E-06  0.436E-04    2.26      33.4  T
   5    -75.3203433 -0.477860E-08  0.211E-04    2.26      69.2  T
     SCC iter.                  ...        0 min,  0.014 sec
     gradient                   ...        0 min,  0.007 sec
 * total energy  :   -74.3127793 Eh     change       -0.2503645E-04 Eh
   gradient norm :     0.0010831 Eh/α   predicted    -0.1452517E-04 ( -41.98%)
   displ. norm   :     0.2371565 α      lambda       -0.8254214E-04
   maximum displ.:     0.1174107 α      in ANC's #2, #14, #9, ...

........................................................................
.............................. CYCLE   23 ..............................
........................................................................

 iter      E             dE          RMSdq      gap      omega  full diag
   1    -75.3194323 -0.753194E+02  0.601E-02    2.26       0.0  T
   2    -75.3194338 -0.146313E-05  0.357E-02    2.26       1.0  T
   3    -75.3194297  0.408516E-05  0.105E-02    2.26       1.4  T
   4    -75.3194344 -0.473418E-05  0.185E-03    2.26       7.9  T
   5    -75.3194345 -0.749109E-07  0.997E-04    2.26      14.6  T
   6    -75.3194345 -0.163466E-07  0.508E-04    2.26      28.7  T
     SCC iter.                  ...        0 min,  0.020 sec
     gradient                   ...        0 min,  0.014 sec
 * total energy  :   -74.3128452 Eh     change       -0.6590205E-04 Eh
   gradient norm :     0.0045794 Eh/α   predicted    -0.4230715E-04 ( -35.80%)
   displ. norm   :     0.0777698 α      lambda       -0.3347955E-04
   maximum displ.:     0.0421511 α      in ANC's #2, #6, #14, ...

........................................................................
.............................. CYCLE   24 ..............................
........................................................................

 iter      E             dE          RMSdq      gap      omega  full diag
   1    -75.3194513 -0.753195E+02  0.198E-02    2.26       0.0  T
   2    -75.3194514 -0.488964E-07  0.117E-02    2.26       1.3  T
   3    -75.3194513  0.554681E-07  0.123E-03    2.26      11.9  T
   4    -75.3194514 -0.787179E-07  0.315E-04    2.26      46.3  T
   5    -75.3194514 -0.613241E-09  0.164E-04    2.26      88.9  T
     SCC iter.                  ...        0 min,  0.035 sec
     gradient                   ...        0 min,  0.008 sec
 * total energy  :   -74.3128759 Eh     change       -0.3074716E-04 Eh
   gradient norm :     0.0037812 Eh/α   predicted    -0.1684296E-04 ( -45.22%)
   displ. norm   :     0.2732085 α      lambda       -0.1113353E-03
   maximum displ.:     0.1463126 α      in ANC's #2, #6, #1, ...

........................................................................
.............................. CYCLE   25 ..............................
........................................................................

 iter      E             dE          RMSdq      gap      omega  full diag
   1    -75.3191791 -0.753192E+02  0.706E-02    2.26       0.0  T
   2    -75.3191797 -0.651257E-06  0.416E-02    2.26       1.0  T
   3    -75.3191789  0.834066E-06  0.459E-03    2.26       3.2  T
   4    -75.3191800 -0.109181E-05  0.120E-03    2.26      12.2  T
   5    -75.3191800 -0.200026E-07  0.696E-04    2.26      20.9  T
   6    -75.3191800 -0.489798E-08  0.366E-04    2.26      39.9  T
     SCC iter.                  ...        0 min,  0.032 sec
     gradient                   ...        0 min,  0.006 sec
 * total energy  :   -74.3129553 Eh     change       -0.7934822E-04 Eh
   gradient norm :     0.0015084 Eh/α   predicted    -0.5982330E-04 ( -24.61%)
   displ. norm   :     0.3552861 α      lambda       -0.5317829E-04
   maximum displ.:     0.1944322 α      in ANC's #2, #6, #1, ...

........................................................................
.............................. CYCLE   26 ..............................
........................................................................

 iter      E             dE          RMSdq      gap      omega  full diag
   1    -75.3182569 -0.753183E+02  0.919E-02    2.26       0.0  T
   2    -75.3182578 -0.899160E-06  0.541E-02    2.26       1.0  T
   3    -75.3182570  0.849056E-06  0.507E-03    2.26       2.9  T
   4    -75.3182582 -0.121316E-05  0.137E-03    2.26      10.7  T
   5    -75.3182582 -0.224601E-07  0.808E-04    2.26      18.0  T
   6    -75.3182582 -0.561650E-08  0.417E-04    2.26      34.9  T
     SCC iter.                  ...        0 min,  0.018 sec
     gradient                   ...        0 min,  0.006 sec
 * total energy  :   -74.3130068 Eh     change       -0.5146029E-04 Eh
   gradient norm :     0.0032464 Eh/α   predicted    -0.2808123E-04 ( -45.43%)
   displ. norm   :     0.1361846 α      lambda       -0.4211563E-04
   maximum displ.:     0.0760509 α      in ANC's #2, #6, #1, ...

........................................................................
.............................. CYCLE   27 ..............................
........................................................................

 iter      E             dE          RMSdq      gap      omega  full diag
   1    -75.3193261 -0.753193E+02  0.354E-02    2.26       0.0  T
   2    -75.3193263 -0.147664E-06  0.208E-02    2.26       1.0  T
   3    -75.3193262  0.640400E-07  0.174E-03    2.26       8.4  T
   4    -75.3193263 -0.115371E-06  0.487E-04    2.26      30.0  T
   5    -75.3193263 -0.208473E-08  0.286E-04    2.26      51.0  T
     SCC iter.                  ...        0 min,  0.014 sec
     gradient                   ...        0 min,  0.007 sec
 * total energy  :   -74.3130432 Eh     change       -0.3642295E-04 Eh
   gradient norm :     0.0027013 Eh/α   predicted    -0.2144962E-04 ( -41.11%)
   displ. norm   :     0.3231629 α      lambda       -0.8706390E-04
   maximum displ.:     0.1793858 α      in ANC's #2, #6, #1, ...

........................................................................
.............................. CYCLE   28 ..............................
........................................................................

 iter      E             dE          RMSdq      gap      omega  full diag
   1    -75.3201069 -0.753201E+02  0.833E-02    2.26       0.0  T
   2    -75.3201076 -0.671531E-06  0.490E-02    2.26       1.0  T
   3    -75.3201072  0.397484E-06  0.371E-03    2.26       3.9  T
   4    -75.3201079 -0.670743E-06  0.109E-03    2.26      13.4  T
   5    -75.3201079 -0.964273E-08  0.696E-04    2.26      21.0  T
   6    -75.3201079 -0.626706E-08  0.278E-04    2.26      52.4  T
     SCC iter.                  ...        0 min,  0.017 sec
     gradient                   ...        0 min,  0.006 sec
 * total energy  :   -74.3131131 Eh     change       -0.6993586E-04 Eh
   gradient norm :     0.0019344 Eh/α   predicted    -0.4807847E-04 ( -31.25%)
   displ. norm   :     0.5645335 α      lambda       -0.7772374E-04
   maximum displ.:     0.3143731 α      in ANC's #2, #6, #1, ...

........................................................................
.............................. CYCLE   29 ..............................
........................................................................

 iter      E             dE          RMSdq      gap      omega  full diag
   1    -75.3192205 -0.753192E+02  0.146E-01    2.25       0.0  T
   2    -75.3192224 -0.190265E-05  0.860E-02    2.25       1.0  T
   3    -75.3192215  0.879288E-06  0.591E-03    2.25       2.5  T
   4    -75.3192232 -0.167188E-05  0.183E-03    2.25       8.0  T
   5    -75.3192232 -0.182205E-07  0.114E-03    2.25      12.8  T
   6    -75.3192232 -0.197759E-07  0.416E-04    2.25      35.1  T
   7    -75.3192232 -0.417022E-08  0.152E-04    2.25      96.0  T
     SCC iter.                  ...        0 min,  0.019 sec
     gradient                   ...        0 min,  0.006 sec
 * total energy  :   -74.3131881 Eh     change       -0.7500806E-04 Eh
   gradient norm :     0.0034748 Eh/α   predicted    -0.4436932E-04 ( -40.85%)
   displ. norm   :     0.1867631 α      lambda       -0.5531692E-04
   maximum displ.:     0.1012575 α      in ANC's #2, #1, #6, ...

........................................................................
.............................. CYCLE   30 ..............................
........................................................................

 iter      E             dE          RMSdq      gap      omega  full diag
   1    -75.3211197 -0.753211E+02  0.480E-02    2.25       0.0  T
   2    -75.3211199 -0.218638E-06  0.282E-02    2.25       1.0  T
   3    -75.3211199  0.881803E-08  0.160E-03    2.25       9.1  T
   4    -75.3211200 -0.850596E-07  0.635E-04    2.25      23.0  T
   5    -75.3211200 -0.313297E-08  0.346E-04    2.25      42.2  T
     SCC iter.                  ...        0 min,  0.014 sec
     gradient                   ...        0 min,  0.006 sec
 * total energy  :   -74.3132309 Eh     change       -0.4273544E-04 Eh
   gradient norm :     0.0025724 Eh/α   predicted    -0.2863301E-04 ( -33.00%)
   displ. norm   :     0.3408479 α      lambda       -0.6766668E-04
   maximum displ.:     0.1910247 α      in ANC's #2, #1, #6, ...

........................................................................
.............................. CYCLE   31 ..............................
........................................................................

 iter      E             dE          RMSdq      gap      omega  full diag
   1    -75.3207985 -0.753208E+02  0.904E-02    2.25       0.0  T
   2    -75.3207991 -0.599044E-06  0.532E-02    2.25       1.0  T
   3    -75.3207991  0.524201E-07  0.279E-03    2.25       5.2  T
   4    -75.3207994 -0.313787E-06  0.112E-03    2.25      13.0  T
   5    -75.3207994 -0.905918E-08  0.564E-04    2.25      25.9  T
   6    -75.3207994 -0.228964E-08  0.198E-04    2.25      73.6  T
     SCC iter.                  ...        0 min,  0.016 sec
     gradient                   ...        0 min,  0.006 sec
 * total energy  :   -74.3132845 Eh     change       -0.5367063E-04 Eh
   gradient norm :     0.0016583 Eh/α   predicted    -0.3776847E-04 ( -29.63%)
   displ. norm   :     0.5347078 α      lambda       -0.6547420E-04
   maximum displ.:     0.2928866 α      in ANC's #2, #1, #6, ...

........................................................................
.............................. CYCLE   32 ..............................
........................................................................

 iter      E             dE          RMSdq      gap      omega  full diag
   1    -75.3198306 -0.753198E+02  0.144E-01    2.24       0.0  T
   2    -75.3198320 -0.143615E-05  0.846E-02    2.24       1.0  T
   3    -75.3198315  0.573233E-06  0.535E-03    2.24       2.7  T
   4    -75.3198328 -0.130595E-05  0.187E-03    2.24       7.8  T
   5    -75.3198328 -0.520605E-08  0.993E-04    2.24      14.7  T
   6    -75.3198328 -0.159436E-07  0.411E-04    2.24      35.5  T
     SCC iter.                  ...        0 min,  0.016 sec
     gradient                   ...        0 min,  0.006 sec
 * total energy  :   -74.3133524 Eh     change       -0.6789897E-04 Eh
   gradient norm :     0.0026542 Eh/α   predicted    -0.3689803E-04 ( -45.66%)
   displ. norm   :     0.2142694 α      lambda       -0.5985971E-04
   maximum displ.:     0.1219009 α      in ANC's #1, #2, #6, ...

........................................................................
.............................. CYCLE   33 ..............................
........................................................................

 iter      E             dE          RMSdq      gap      omega  full diag
   1    -75.3214757 -0.753215E+02  0.566E-02    2.24       0.0  T
   2    -75.3214759 -0.263210E-06  0.333E-02    2.24       1.0  T
   3    -75.3214759  0.875701E-07  0.218E-03    2.24       6.7  T
   4    -75.3214761 -0.218544E-06  0.893E-04    2.24      16.3  T
   5    -75.3214761 -0.378843E-08  0.419E-04    2.24      34.8  T
     SCC iter.                  ...        0 min,  0.013 sec
     gradient                   ...        0 min,  0.006 sec
 * total energy  :   -74.3133969 Eh     change       -0.4452100E-04 Eh
   gradient norm :     0.0026338 Eh/α   predicted    -0.3130432E-04 ( -29.69%)
   displ. norm   :     0.5261034 α      lambda       -0.1014345E-03
   maximum displ.:     0.2871086 α      in ANC's #1, #2, #6, ...

........................................................................
.............................. CYCLE   34 ..............................
........................................................................

 iter      E             dE          RMSdq      gap      omega  full diag
   1    -75.3192601 -0.753193E+02  0.143E-01    2.24       0.0  T
   2    -75.3192617 -0.164456E-05  0.844E-02    2.24       1.0  T
   3    -75.3192609  0.833343E-06  0.635E-03    2.24       2.3  T
   4    -75.3192626 -0.164953E-05  0.200E-03    2.23       7.3  T
   5    -75.3192626 -0.834014E-08  0.105E-03    2.23      14.0  T
   6    -75.3192626 -0.134489E-07  0.366E-04    2.23      39.9  T
   7    -75.3192626 -0.197858E-08  0.176E-04    2.23      82.7  T
     SCC iter.                  ...        0 min,  0.018 sec
     gradient                   ...        0 min,  0.007 sec
 * total energy  :   -74.3134778 Eh     change       -0.8090171E-04 Eh
   gradient norm :     0.0032415 Eh/α   predicted    -0.6475690E-04 ( -19.96%)
   displ. norm   :     0.4409040 α      lambda       -0.1118893E-03
   maximum displ.:     0.2479190 α      in ANC's #1, #2, #6, ...

........................................................................
.............................. CYCLE   35 ..............................
........................................................................

 iter      E             dE          RMSdq      gap      omega  full diag
   1    -75.3186544 -0.753187E+02  0.116E-01    2.23       0.0  T
   2    -75.3186556 -0.115533E-05  0.684E-02    2.23       1.0  T
   3    -75.3186553  0.268300E-06  0.480E-03    2.23       3.0  T
   4    -75.3186561 -0.829005E-06  0.184E-03    2.23       7.9  T
   5    -75.3186561 -0.117320E-07  0.880E-04    2.23      16.6  T
   6    -75.3186561 -0.111809E-07  0.270E-04    2.23      54.0  T
     SCC iter.                  ...        0 min,  0.016 sec
     gradient                   ...        0 min,  0.006 sec
 * total energy  :   -74.3135627 Eh     change       -0.8480541E-04 Eh
   gradient norm :     0.0034771 Eh/α   predicted    -0.6682563E-04 ( -21.20%)
   displ. norm   :     0.3275219 α      lambda       -0.1234682E-03
   maximum displ.:     0.1738072 α      in ANC's #1, #8, #4, ...

........................................................................
.............................. CYCLE   36 ..............................
........................................................................

 iter      E             dE          RMSdq      gap      omega  full diag
   1    -75.3207351 -0.753207E+02  0.758E-02    2.23       0.0  T
   2    -75.3207360 -0.907644E-06  0.449E-02    2.23       1.0  T
   3    -75.3207356  0.356856E-06  0.436E-03    2.23       3.3  T
   4    -75.3207363 -0.699913E-06  0.160E-03    2.23       9.1  T
   5    -75.3207363 -0.127600E-07  0.988E-04    2.23      14.8  T
   6    -75.3207363 -0.167111E-07  0.368E-04    2.23      39.7  T
     SCC iter.                  ...        0 min,  0.016 sec
     gradient                   ...        0 min,  0.006 sec
 * total energy  :   -74.3136343 Eh     change       -0.7164578E-04 Eh
   gradient norm :     0.0034355 Eh/α   predicted    -0.6835719E-04 (  -4.59%)
   displ. norm   :     0.3897851 α      lambda       -0.7404048E-04
   maximum displ.:     0.2246632 α      in ANC's #1, #2, #4, ...

........................................................................
.............................. CYCLE   37 ..............................
........................................................................

 iter      E             dE          RMSdq      gap      omega  full diag
   1    -75.3176443 -0.753176E+02  0.101E-01    2.23       0.0  T
   2    -75.3176453 -0.101658E-05  0.596E-02    2.23       1.0  T
   3    -75.3176447  0.602232E-06  0.510E-03    2.23       2.9  T
   4    -75.3176458 -0.106624E-05  0.160E-03    2.23       9.1  T
   5    -75.3176458 -0.116787E-07  0.942E-04    2.23      15.5  T
   6    -75.3176458 -0.114630E-07  0.320E-04    2.23      45.7  T
     SCC iter.                  ...        0 min,  0.016 sec
     gradient                   ...        0 min,  0.006 sec
 * total energy  :   -74.3136784 Eh     change       -0.4410082E-04 Eh
   gradient norm :     0.0038155 Eh/α   predicted    -0.4264600E-04 (  -3.30%)
   displ. norm   :     0.1317706 α      lambda       -0.7702505E-04
   maximum displ.:     0.0726533 α      in ANC's #8, #1, #4, ...

........................................................................
.............................. CYCLE   38 ..............................
........................................................................

 iter      E             dE          RMSdq      gap      omega  full diag
   1    -75.3206152 -0.753206E+02  0.297E-02    2.23       0.0  T
   2    -75.3206158 -0.608589E-06  0.178E-02    2.23       1.0  T
   3    -75.3206154  0.436106E-06  0.354E-03    2.23       4.1  T
   4    -75.3206160 -0.555383E-06  0.109E-03    2.23      13.4  T
   5    -75.3206160 -0.305274E-07  0.582E-04    2.23      25.1  T
   6    -75.3206160 -0.676933E-08  0.291E-04    2.23      50.1  T
     SCC iter.                  ...        0 min,  0.016 sec
     gradient                   ...        0 min,  0.006 sec
 * total energy  :   -74.3137122 Eh     change       -0.3376000E-04 Eh
   gradient norm :     0.0035040 Eh/α   predicted    -0.3918189E-04 (  16.06%)
   displ. norm   :     0.2040431 α      lambda       -0.4686423E-04
   maximum displ.:     0.1272196 α      in ANC's #1, #2, #4, ...

........................................................................
.............................. CYCLE   39 ..............................
........................................................................

 iter      E             dE          RMSdq      gap      omega  full diag
   1    -75.3202822 -0.753203E+02  0.494E-02    2.23       0.0  T
   2    -75.3202825 -0.314258E-06  0.291E-02    2.23       1.0  T
   3    -75.3202823  0.210494E-06  0.288E-03    2.23       5.1  T
   4    -75.3202826 -0.329362E-06  0.879E-04    2.23      16.6  T
   5    -75.3202826 -0.426992E-08  0.535E-04    2.23      27.3  T
     SCC iter.                  ...        0 min,  0.014 sec
     gradient                   ...        0 min,  0.006 sec
 * total energy  :   -74.3137415 Eh     change       -0.2930579E-04 Eh
   gradient norm :     0.0023498 Eh/α   predicted    -0.2440794E-04 ( -16.71%)
   displ. norm   :     0.1949839 α      lambda       -0.3348035E-04
   maximum displ.:     0.1257395 α      in ANC's #1, #4, #2, ...

........................................................................
.............................. CYCLE   40 ..............................
........................................................................

 iter      E             dE          RMSdq      gap      omega  full diag
   1    -75.3198908 -0.753199E+02  0.459E-02    2.23       0.0  T
   2    -75.3198910 -0.221638E-06  0.271E-02    2.23       1.0  T
   3    -75.3198908  0.184006E-06  0.243E-03    2.23       6.0  T
   4    -75.3198911 -0.290866E-06  0.790E-04    2.23      18.5  T
   5    -75.3198911 -0.349914E-08  0.371E-04    2.23      39.3  T
     SCC iter.                  ...        0 min,  0.013 sec
     gradient                   ...        0 min,  0.005 sec
 * total energy  :   -74.3137658 Eh     change       -0.2431933E-04 Eh
   gradient norm :     0.0021387 Eh/α   predicted    -0.1738047E-04 ( -28.53%)
   displ. norm   :     0.1860852 α      lambda       -0.4031123E-04
   maximum displ.:     0.1241804 α      in ANC's #1, #4, #2, ...

........................................................................
.............................. CYCLE   41 ..............................
........................................................................

 iter      E             dE          RMSdq      gap      omega  full diag
   1    -75.3208399 -0.753208E+02  0.440E-02    2.23       0.0  T
   2    -75.3208401 -0.209837E-06  0.260E-02    2.23       1.0  T
   3    -75.3208399  0.175402E-06  0.245E-03    2.23       6.0  T
   4    -75.3208402 -0.270573E-06  0.727E-04    2.23      20.1  T
   5    -75.3208402 -0.239044E-08  0.413E-04    2.23      35.3  T
     SCC iter.                  ...        0 min,  0.013 sec
     gradient                   ...        0 min,  0.005 sec
 * total energy  :   -74.3137923 Eh     change       -0.2656293E-04 Eh
   gradient norm :     0.0020575 Eh/α   predicted    -0.2085490E-04 ( -21.49%)
   displ. norm   :     0.2128647 α      lambda       -0.2836496E-04
   maximum displ.:     0.1445379 α      in ANC's #1, #4, #2, ...

........................................................................
.............................. CYCLE   42 ..............................
........................................................................

 iter      E             dE          RMSdq      gap      omega  full diag
   1    -75.3207692 -0.753208E+02  0.521E-02    2.23       0.0  T
   2    -75.3207695 -0.243144E-06  0.307E-02    2.23       1.0  T
   3    -75.3207694  0.452286E-07  0.202E-03    2.23       7.2  T
   4    -75.3207696 -0.160896E-06  0.823E-04    2.23      17.7  T
   5    -75.3207696 -0.301566E-08  0.399E-04    2.23      36.6  T
     SCC iter.                  ...        0 min,  0.013 sec
     gradient                   ...        0 min,  0.006 sec
 * total energy  :   -74.3138115 Eh     change       -0.1916272E-04 Eh
   gradient norm :     0.0023255 Eh/α   predicted    -0.1482969E-04 ( -22.61%)
   displ. norm   :     0.1874933 α      lambda       -0.2703715E-04
   maximum displ.:     0.1318798 α      in ANC's #1, #4, #2, ...
 * RMSD in coord.:     0.7922869 α      energy gain  -0.1096250E-02 Eh

generating ANC from exact Hessian ...
Using Lindh-Hessian (1995)
 Shifting diagonal of input Hessian by   9.892151149281629E-003
 Lowest  eigenvalues of input Hessian
    0.000000    0.000000    0.000000    0.000000    0.000000    0.000000
    0.010000    0.010341    0.010445    0.010509    0.011289    0.011446
    0.011601    0.012165    0.012617    0.012905    0.013305    0.014833
 Highest eigenvalues
    1.965106    2.011240    2.025040    2.036644    2.145950    2.184856
 

........................................................................
.............................. CYCLE   43 ..............................
........................................................................

 iter      E             dE          RMSdq      gap      omega  full diag
   1    -75.3208116 -0.753208E+02  0.454E-02    2.23       0.0  T
   2    -75.3208119 -0.268578E-06  0.268E-02    2.23       1.0  T
   3    -75.3208118  0.893428E-07  0.221E-03    2.23       6.6  T
   4    -75.3208120 -0.197972E-06  0.813E-04    2.23      17.9  T
   5    -75.3208120 -0.334995E-08  0.495E-04    2.23      29.5  T
     SCC iter.                  ...        0 min,  0.012 sec
     gradient                   ...        0 min,  0.007 sec
 * total energy  :   -74.3138313 Eh     change       -0.1980198E-04 Eh
   gradient norm :     0.0018670 Eh/α   predicted     0.0000000E+00 (-100.00%)
   displ. norm   :     0.0348545 α      lambda       -0.3488173E-05
   maximum displ.:     0.0185545 α      in ANC's #1, #9, #18, ...

........................................................................
.............................. CYCLE   44 ..............................
........................................................................

 iter      E             dE          RMSdq      gap      omega  full diag
   1    -75.3220390 -0.753220E+02  0.112E-02    2.23       0.0  T
   2    -75.3220391 -0.557507E-07  0.668E-03    2.23       2.2  T
   3    -75.3220390  0.572396E-07  0.137E-03    2.23      10.7  T
   4    -75.3220391 -0.729111E-07  0.318E-04    2.23      45.9  T
   5    -75.3220391 -0.171288E-08  0.186E-04    2.23      78.4  T
     SCC iter.                  ...        0 min,  0.012 sec
     gradient                   ...        0 min,  0.006 sec
 * total energy  :   -74.3138450 Eh     change       -0.1363819E-04 Eh
   gradient norm :     0.0005888 Eh/α   predicted    -0.6760606E-05 ( -50.43%)
   displ. norm   :     0.0600259 α      lambda       -0.1039228E-04
   maximum displ.:     0.0346101 α      in ANC's #1, #9, #8, ...

........................................................................
.............................. CYCLE   45 ..............................
........................................................................

 iter      E             dE          RMSdq      gap      omega  full diag
   1    -75.3223826 -0.753224E+02  0.145E-02    2.23       0.0  T
   2    -75.3223827 -0.638168E-07  0.859E-03    2.23       1.7  T
   3    -75.3223826  0.467208E-07  0.125E-03    2.23      11.6  T
   4    -75.3223827 -0.661075E-07  0.333E-04    2.23      43.8  T
   5    -75.3223827 -0.121361E-08  0.182E-04    2.23      80.3  T
     SCC iter.                  ...        0 min,  0.013 sec
     gradient                   ...        0 min,  0.006 sec
 * total energy  :   -74.3138563 Eh     change       -0.1132568E-04 Eh
   gradient norm :     0.0009448 Eh/α   predicted    -0.5226734E-05 ( -53.85%)
   displ. norm   :     0.0838981 α      lambda       -0.9696237E-05
   maximum displ.:     0.0506322 α      in ANC's #1, #9, #8, ...

........................................................................
.............................. CYCLE   46 ..............................
........................................................................

 iter      E             dE          RMSdq      gap      omega  full diag
   1    -75.3220529 -0.753221E+02  0.175E-02    2.23       0.0  T
   2    -75.3220529 -0.502866E-07  0.104E-02    2.23       1.4  T
   3    -75.3220529  0.180361E-07  0.970E-04    2.23      15.0  T
   4    -75.3220529 -0.385602E-07  0.385E-04    2.23      37.9  T
     SCC iter.                  ...        0 min,  0.010 sec
     gradient                   ...        0 min,  0.006 sec
 * total energy  :   -74.3138673 Eh     change       -0.1102239E-04 Eh
   gradient norm :     0.0009941 Eh/α   predicted    -0.4884972E-05 ( -55.68%)
   displ. norm   :     0.0943227 α      lambda       -0.9168478E-05
   maximum displ.:     0.0592489 α      in ANC's #1, #8, #2, ...

........................................................................
.............................. CYCLE   47 ..............................
........................................................................

 iter      E             dE          RMSdq      gap      omega  full diag
   1    -75.3217198 -0.753217E+02  0.188E-02    2.23       0.0  T
   2    -75.3217199 -0.602487E-07  0.112E-02    2.23       1.3  T
   3    -75.3217198  0.707748E-07  0.143E-03    2.23      10.2  T
   4    -75.3217199 -0.987262E-07  0.412E-04    2.23      35.4  T
   5    -75.3217199 -0.994419E-09  0.221E-04    2.23      66.1  T
     SCC iter.                  ...        0 min,  0.013 sec
     gradient                   ...        0 min,  0.006 sec
 * total energy  :   -74.3138783 Eh     change       -0.1101756E-04 Eh
   gradient norm :     0.0007763 Eh/α   predicted    -0.4602694E-05 ( -58.22%)
   displ. norm   :     0.1029240 α      lambda       -0.9310142E-05
   maximum displ.:     0.0668314 α      in ANC's #1, #2, #8, ...

........................................................................
.............................. CYCLE   48 ..............................
........................................................................

 iter      E             dE          RMSdq      gap      omega  full diag
   1    -75.3213852 -0.753214E+02  0.214E-02    2.23       0.0  T
   2    -75.3213853 -0.737925E-07  0.126E-02    2.23       1.2  T
   3    -75.3213852  0.698610E-07  0.148E-03    2.23       9.8  T
   4    -75.3213853 -0.100211E-06  0.413E-04    2.23      35.3  T
   5    -75.3213853 -0.142860E-08  0.218E-04    2.23      66.8  T
     SCC iter.                  ...        0 min,  0.012 sec
     gradient                   ...        0 min,  0.007 sec
 * total energy  :   -74.3138896 Eh     change       -0.1126709E-04 Eh
   gradient norm :     0.0005911 Eh/α   predicted    -0.4677338E-05 ( -58.49%)
   displ. norm   :     0.1072173 α      lambda       -0.9149341E-05
   maximum displ.:     0.0710780 α      in ANC's #1, #2, #4, ...

........................................................................
.............................. CYCLE   49 ..............................
........................................................................

 iter      E             dE          RMSdq      gap      omega  full diag
   1    -75.3213153 -0.753213E+02  0.232E-02    2.23       0.0  T
   2    -75.3213154 -0.623853E-07  0.137E-02    2.23       1.1  T
   3    -75.3213153  0.492423E-07  0.136E-03    2.23      10.7  T
   4    -75.3213154 -0.757858E-07  0.419E-04    2.23      34.8  T
   5    -75.3213154 -0.122483E-08  0.246E-04    2.23      59.3  T
     SCC iter.                  ...        0 min,  0.016 sec
     gradient                   ...        0 min,  0.012 sec
 * total energy  :   -74.3139006 Eh     change       -0.1103702E-04 Eh
   gradient norm :     0.0006926 Eh/α   predicted    -0.4599983E-05 ( -58.32%)
   displ. norm   :     0.1174182 α      lambda       -0.9539241E-05
   maximum displ.:     0.0782742 α      in ANC's #1, #2, #4, ...

........................................................................
.............................. CYCLE   50 ..............................
........................................................................

 iter      E             dE          RMSdq      gap      omega  full diag
   1    -75.3214731 -0.753215E+02  0.259E-02    2.23       0.0  T
   2    -75.3214731 -0.565150E-07  0.153E-02    2.23       1.0  T
   3    -75.3214731  0.818591E-08  0.962E-04    2.23      15.2  T
   4    -75.3214731 -0.342722E-07  0.422E-04    2.23      34.6  T
     SCC iter.                  ...        0 min,  0.017 sec
     gradient                   ...        0 min,  0.007 sec
 * total energy  :   -74.3139122 Eh     change       -0.1161948E-04 Eh
   gradient norm :     0.0008084 Eh/α   predicted    -0.4798939E-05 ( -58.70%)
   displ. norm   :     0.1274527 α      lambda       -0.9594268E-05
   maximum displ.:     0.0853004 α      in ANC's #1, #2, #4, ...

........................................................................
.............................. CYCLE   51 ..............................
........................................................................

 iter      E             dE          RMSdq      gap      omega  full diag
   1    -75.3216803 -0.753217E+02  0.279E-02    2.23       0.0  T
   2    -75.3216804 -0.682085E-07  0.165E-02    2.23       1.0  T
   3    -75.3216803  0.311695E-07  0.131E-03    2.23      11.2  T
   4    -75.3216804 -0.663104E-07  0.505E-04    2.23      28.9  T
   5    -75.3216804 -0.586965E-09  0.287E-04    2.23      50.8  T
     SCC iter.                  ...        0 min,  0.012 sec
     gradient                   ...        0 min,  0.008 sec
 * total energy  :   -74.3139243 Eh     change       -0.1206898E-04 Eh
   gradient norm :     0.0007186 Eh/α   predicted    -0.4832174E-05 ( -59.96%)
   displ. norm   :     0.1312510 α      lambda       -0.8931645E-05
   maximum displ.:     0.0895229 α      in ANC's #1, #2, #4, ...

........................................................................
.............................. CYCLE   52 ..............................
........................................................................

 iter      E             dE          RMSdq      gap      omega  full diag
   1    -75.3219347 -0.753219E+02  0.290E-02    2.23       0.0  T
   2    -75.3219348 -0.890285E-07  0.171E-02    2.23       1.0  T
   3    -75.3219347  0.487658E-07  0.146E-03    2.23      10.0  T
   4    -75.3219348 -0.927268E-07  0.530E-04    2.23      27.5  T
   5    -75.3219348 -0.110740E-08  0.266E-04    2.23      54.9  T
     SCC iter.                  ...        0 min,  0.012 sec
     gradient                   ...        0 min,  0.006 sec
 * total energy  :   -74.3139355 Eh     change       -0.1123792E-04 Eh
   gradient norm :     0.0004781 Eh/α   predicted    -0.4500795E-05 ( -59.95%)
   displ. norm   :     0.1123696 α      lambda       -0.6849274E-05
   maximum displ.:     0.0787759 α      in ANC's #1, #2, #4, ...

........................................................................
.............................. CYCLE   53 ..............................
........................................................................

 iter      E             dE          RMSdq      gap      omega  full diag
   1    -75.3221153 -0.753221E+02  0.253E-02    2.23       0.0  T
   2    -75.3221153 -0.665602E-07  0.150E-02    2.23       1.0  T
   3    -75.3221153  0.285217E-07  0.120E-03    2.23      12.1  T
   4    -75.3221154 -0.633420E-07  0.473E-04    2.23      30.8  T
   5    -75.3221154 -0.107021E-08  0.193E-04    2.23      75.7  T
     SCC iter.                  ...        0 min,  0.013 sec
     gradient                   ...        0 min,  0.006 sec
 * total energy  :   -74.3139444 Eh     change       -0.8888231E-05 Eh
   gradient norm :     0.0003840 Eh/α   predicted    -0.3445296E-05 ( -61.24%)
   displ. norm   :     0.0939190 α      lambda       -0.5848170E-05
   maximum displ.:     0.0673547 α      in ANC's #1, #3, #4, ...

........................................................................
.............................. CYCLE   54 ..............................
........................................................................

 iter      E             dE          RMSdq      gap      omega  full diag
   1    -75.3221998 -0.753222E+02  0.215E-02    2.23       0.0  T
   2    -75.3221998 -0.448348E-07  0.127E-02    2.23       1.1  T
   3    -75.3221998  0.153273E-07  0.958E-04    2.23      15.2  T
   4    -75.3221999 -0.393866E-07  0.402E-04    2.23      36.3  T
     SCC iter.                  ...        0 min,  0.010 sec
     gradient                   ...        0 min,  0.006 sec
 * total energy  :   -74.3139524 Eh     change       -0.7964664E-05 Eh
   gradient norm :     0.0004400 Eh/α   predicted    -0.2937522E-05 ( -63.12%)
   displ. norm   :     0.0942423 α      lambda       -0.6460356E-05
   maximum displ.:     0.0674633 α      in ANC's #1, #3, #4, ...

........................................................................
.............................. CYCLE   55 ..............................
........................................................................

 iter      E             dE          RMSdq      gap      omega  full diag
   1    -75.3221992 -0.753222E+02  0.217E-02    2.23       0.0  T
   2    -75.3221992 -0.458199E-07  0.128E-02    2.23       1.1  T
   3    -75.3221992  0.147387E-07  0.926E-04    2.23      15.7  T
   4    -75.3221992 -0.396766E-07  0.417E-04    2.23      34.9  T
     SCC iter.                  ...        0 min,  0.010 sec
     gradient                   ...        0 min,  0.006 sec
 * total energy  :   -74.3139614 Eh     change       -0.8957313E-05 Eh
   gradient norm :     0.0004963 Eh/α   predicted    -0.3247574E-05 ( -63.74%)
   displ. norm   :     0.1201369 α      lambda       -0.8312771E-05
   maximum displ.:     0.0851135 α      in ANC's #1, #3, #4, ...

........................................................................
.............................. CYCLE   56 ..............................
........................................................................

 iter      E             dE          RMSdq      gap      omega  full diag
   1    -75.3220252 -0.753220E+02  0.272E-02    2.23       0.0  T
   2    -75.3220253 -0.780705E-07  0.161E-02    2.23       1.0  T
   3    -75.3220253  0.345480E-07  0.127E-03    2.23      11.5  T
   4    -75.3220254 -0.744103E-07  0.531E-04    2.23      27.4  T
   5    -75.3220254 -0.214477E-08  0.226E-04    2.23      64.4  T
     SCC iter.                  ...        0 min,  0.013 sec
     gradient                   ...        0 min,  0.006 sec
 * total energy  :   -74.3139725 Eh     change       -0.1118386E-04 Eh
   gradient norm :     0.0004334 Eh/α   predicted    -0.4187550E-05 ( -62.56%)
   displ. norm   :     0.1379691 α      lambda       -0.8382545E-05
   maximum displ.:     0.0977329 α      in ANC's #1, #3, #4, ...

........................................................................
.............................. CYCLE   57 ..............................
........................................................................

 iter      E             dE          RMSdq      gap      omega  full diag
   1    -75.3218074 -0.753218E+02  0.305E-02    2.23       0.0  T
   2    -75.3218075 -0.106387E-06  0.180E-02    2.23       1.0  T
   3    -75.3218075  0.488169E-07  0.151E-03    2.23       9.6  T
   4    -75.3218076 -0.102304E-06  0.619E-04    2.23      23.6  T
   5    -75.3218076 -0.253628E-08  0.272E-04    2.23      53.6  T
     SCC iter.                  ...        0 min,  0.012 sec
     gradient                   ...        0 min,  0.006 sec
 * total energy  :   -74.3139832 Eh     change       -0.1066764E-04 Eh
   gradient norm :     0.0003591 Eh/α   predicted    -0.4229164E-05 ( -60.36%)
   displ. norm   :     0.1119794 α      lambda       -0.5486524E-05
   maximum displ.:     0.0807702 α      in ANC's #1, #4, #3, ...

........................................................................
.............................. CYCLE   58 ..............................
........................................................................

 iter      E             dE          RMSdq      gap      omega  full diag
   1    -75.3217232 -0.753217E+02  0.237E-02    2.23       0.0  T
   2    -75.3217232 -0.688887E-07  0.140E-02    2.23       1.0  T
   3    -75.3217232  0.377567E-07  0.124E-03    2.23      11.8  T
   4    -75.3217233 -0.728230E-07  0.492E-04    2.23      29.6  T
   5    -75.3217233 -0.183020E-08  0.197E-04    2.23      74.0  T
     SCC iter.                  ...        0 min,  0.016 sec
     gradient                   ...        0 min,  0.005 sec
 * total energy  :   -74.3139902 Eh     change       -0.6981689E-05 Eh
   gradient norm :     0.0003023 Eh/α   predicted    -0.2762151E-05 ( -60.44%)
   displ. norm   :     0.0760874 α      lambda       -0.3440102E-05
   maximum displ.:     0.0564739 α      in ANC's #1, #4, #3, ...

........................................................................
.............................. CYCLE   59 ..............................
........................................................................

 iter      E             dE          RMSdq      gap      omega  full diag
   1    -75.3217762 -0.753218E+02  0.153E-02    2.23       0.0  T
   2    -75.3217763 -0.299216E-07  0.908E-03    2.23       1.6  T
   3    -75.3217762  0.118787E-07  0.806E-04    2.23      18.1  T
   4    -75.3217763 -0.284471E-07  0.349E-04    2.23      41.8  T
     SCC iter.                  ...        0 min,  0.012 sec
     gradient                   ...        0 min,  0.005 sec
 * total energy  :   -74.3139948 Eh     change       -0.4571299E-05 Eh
   gradient norm :     0.0002601 Eh/α   predicted    -0.1725299E-05 ( -62.26%)
   displ. norm   :     0.0578256 α      lambda       -0.2848418E-05
   maximum displ.:     0.0438340 α      in ANC's #1, #4, #3, ...

   *** GEOMETRY OPTIMIZATION CONVERGED AFTER 59 ITERATIONS ***

------------------------------------------------------------------------
 total energy gain   :        -0.0290342 Eh      -18.2193 kcal/mol
 total RMSD          :         1.2559244 a0        0.6646 Å
 total power (kW/mol):        -1.2920230 (step)  -42.3084 (real)
------------------------------------------------------------------------

 ANCopt (total)                0 d,  0 h,  0 min,  1.802 sec
 optimizer setup                ...        0 min,  0.000 sec (  0.007%)
 model hessian                  ...        0 min,  0.067 sec (  3.721%)
 ANC generation                 ...        0 min,  0.010 sec (  0.572%)
 coordinate transformation      ...        0 min,  0.001 sec (  0.082%)
 single point calculation       ...        0 min,  1.615 sec ( 89.620%)
 optimization log               ...        0 min,  0.056 sec (  3.113%)
 hessian update                 ...        0 min,  0.019 sec (  1.046%)
[...]
C24-C8-C7-H32=180.19          C10-C9-C8-C7=178.30           C10-C9-C8-C24=359.11          H33-C9-C8-C7=359.01           
H33-C9-C8-C24=179.82          C11-C10-C9-C8=182.61          C11-C10-C9-H33=  1.89         H34-C10-C9-C8=  0.12          
H34-C10-C9-H33=179.40         
           -------------------------------------------------
          |                Final Singlepoint                |
           -------------------------------------------------

          ...................................................
          :                      SETUP                      :
          :.................................................:
          :  # basis functions                 122          :
          :  # atomic orbitals                 122          :
          :  # shells                           72          :
          :  # electrons                       132          :
          :  max. iterations                   250          :
          :  Hamiltonian                  GFN2-xTB          :
          :  restarted?                      false          :
          :  GBSA solvation                  false          :
          :  PC potential                    false          :
          :  electronic temp.          300.0000000     K    :
          :  accuracy                    1.0000000          :
          :  -> integral cutoff          0.2500000E+02      :
          :  -> integral neglect         0.1000000E-07      :
          :  -> SCF convergence          0.1000000E-05 Eh   :
          :  -> wf. convergence          0.1000000E-03 e    :
          :  Broyden damping             0.4000000          :
          :  net charge                          0          :
          :  unpaired electrons                  0          :
          ...................................................

 iter      E             dE          RMSdq      gap      omega  full diag
   1    -75.3217763 -0.753218E+02  0.133E-04    2.23       0.0  T
   2    -75.3217763 -0.604956E-10  0.104E-04    2.23     140.3  T
   3    -75.3217763 -0.286221E-09  0.574E-05    2.23     254.1  T

   *** convergence criteria satisfied after 3 iterations ***

         #    Occupation            Energy/Eh            Energy/eV
      -------------------------------------------------------------
         1        2.0000           -0.7321052             -19.9216
       ...           ...                  ...                  ...
        60        2.0000           -0.4203009             -11.4370
        61        2.0000           -0.4146446             -11.2831
        62        2.0000           -0.4059079             -11.0453
        63        2.0000           -0.4056160             -11.0374
        64        2.0000           -0.4032483             -10.9729
        65        2.0000           -0.3855114             -10.4903
        66        2.0000           -0.3756966             -10.2232 (HOMO)
        67                         -0.2937400              -7.9931 (LUMO)
        68                         -0.2362452              -6.4286
        69                         -0.2296431              -6.2489
        70                         -0.2219899              -6.0407
        71                         -0.2129033              -5.7934
       ...                                ...                  ...
       122                          0.6930857              18.8598
      -------------------------------------------------------------
                  HL-Gap            0.0819566 Eh            2.2302 eV
             Fermi-level           -0.3347183 Eh           -9.1081 eV

 SCC (total)                   0 d,  0 h,  0 min,  0.015 sec
 SCC setup                      ...        0 min,  0.000 sec (  1.167%)
 Dispersion                     ...        0 min,  0.000 sec (  1.314%)
 classical contributions        ...        0 min,  0.000 sec (  0.094%)
 integral evaluation            ...        0 min,  0.001 sec (  8.585%)
 iterations                     ...        0 min,  0.007 sec ( 48.883%)
 molecular gradient             ...        0 min,  0.006 sec ( 37.142%)
 printout                       ...        0 min,  0.000 sec (  2.627%)

         :::::::::::::::::::::::::::::::::::::::::::::::::::::
         ::                     SUMMARY                     ::
         :::::::::::::::::::::::::::::::::::::::::::::::::::::
         :: total energy             -74.313994763510 Eh    ::
         :: gradient norm              0.000259723408 Eh/a0 ::
         :: HOMO-LUMO gap              2.230152342942 eV    ::
         ::.................................................::
         :: SCC energy               -75.321672116675 Eh    ::
         :: -> isotropic ES            0.103445006789 Eh    ::
         :: -> anisotropic ES          0.003030458678 Eh    ::
         :: -> anisotropic XC          0.020362767873 Eh    ::
         :: -> dispersion             -0.047330325227 Eh    ::
         :: repulsion energy           1.007677353165 Eh    ::
         :: add. restraining           0.000000000000 Eh    ::
         :: total charge               0.000000000000 e     ::
         :::::::::::::::::::::::::::::::::::::::::::::::::::::

           -------------------------------------------------
          |                Property Printout                |
           -------------------------------------------------

    * Orbital Energies and Occupations

         #    Occupation            Energy/Eh            Energy/eV
      -------------------------------------------------------------
         1        2.0000           -0.7321052             -19.9216
       ...           ...                  ...                  ...
        54        2.0000           -0.4487259             -12.2105
        55        2.0000           -0.4322765             -11.7628
        56        2.0000           -0.4313161             -11.7367
        57        2.0000           -0.4292191             -11.6796
        58        2.0000           -0.4284921             -11.6599
        59        2.0000           -0.4216839             -11.4746
        60        2.0000           -0.4203009             -11.4370
        61        2.0000           -0.4146446             -11.2831
        62        2.0000           -0.4059079             -11.0453
        63        2.0000           -0.4056160             -11.0374
        64        2.0000           -0.4032483             -10.9729
        65        2.0000           -0.3855114             -10.4903
        66        2.0000           -0.3756966             -10.2232 (HOMO)
        67                         -0.2937400              -7.9931 (LUMO)
        68                         -0.2362452              -6.4286
        69                         -0.2296431              -6.2489
        70                         -0.2219899              -6.0407
        71                         -0.2129033              -5.7934
        72                         -0.1587528              -4.3199
        73                         -0.0931926              -2.5359
        74                         -0.0870149              -2.3678
        75                          0.0030521               0.0831
        76                          0.0152256               0.4143
        77                          0.0340601               0.9268
       ...                                ...                  ...
       122                          0.6930857              18.8598
      -------------------------------------------------------------
                  HL-Gap            0.0819566 Eh            2.2302 eV
             Fermi-level           -0.3347183 Eh           -9.1081 eV

     #   Z          covCN         q      C6AA      α(0)
     1   8 O        1.656    -0.423    21.295     6.229
     2   6 C        3.674     0.074    19.562     6.338
     3   6 C        3.691     0.071    19.562     6.329
     4   8 O        1.706    -0.254    18.206     5.761
     5   6 C        2.865     0.149    24.754     8.155
     6   6 C        2.913    -0.067    29.656     8.930
     7   6 C        2.929    -0.030    28.739     8.792
     8   6 C        2.969     0.007    27.872     8.660
     9   6 C        2.909    -0.007    28.195     8.707
    10   6 C        2.892    -0.067    29.661     8.929
    11   6 C        2.834     0.212    23.525     7.948
    12   6 C        3.701     0.251    16.872     5.874
    13   8 O        1.700    -0.342    19.735     5.998
    14   6 C        3.645     0.047    20.121     6.447
    15   8 O        1.701    -0.320    19.349     5.939
    16   6 C        3.645     0.045    20.146     6.451
    17   6 C        2.985    -0.006    28.156     8.704
    18   6 C        2.921    -0.026    28.642     8.776
    19   6 C        2.921    -0.027    28.673     8.781
    20   6 C        2.920    -0.030    28.747     8.792
    21   6 C        2.920    -0.030    28.750     8.793
    22   6 C        2.922    -0.035    28.870     8.811
    23   8 O        0.857    -0.369    21.063     6.153
    24   6 C        2.922    -0.028    28.689     8.784
    25   6 C        2.917    -0.052    29.282     8.874
    26   1 H        0.805     0.291     0.750     1.360
    27   1 H        0.923     0.027     2.628     2.535
    28   1 H        0.924     0.074     2.045     2.236
    29   1 H        0.923     0.035     2.515     2.480
    30   1 H        0.923     0.033     2.538     2.491
    31   1 H        0.926     0.036     2.507     2.476
    32   1 H        0.926     0.046     2.373     2.409
    33   1 H        0.925     0.069     2.094     2.263
    34   1 H        0.926     0.064     2.150     2.293
    35   1 H        0.924     0.044     2.397     2.421
    36   1 H        0.924     0.032     2.562     2.503
    37   1 H        0.925     0.055     2.258     2.350
    38   1 H        0.924     0.036     2.509     2.477
    39   1 H        0.924     0.042     2.422     2.434
    40   1 H        0.925     0.056     2.242     2.342
    41   1 H        0.926     0.060     2.198     2.318
    42   1 H        0.926     0.038     2.472     2.459
    43   1 H        0.926     0.035     2.519     2.482
    44   1 H        0.926     0.034     2.529     2.487
    45   1 H        0.926     0.037     2.490     2.468
    46   1 H        0.926     0.051     2.307     2.375
    47   1 H        0.926     0.058     2.226     2.333

 Mol. C6AA /au·bohr⁶  :      24542.716340
 Mol. C8AA /au·bohr⁸  :     577370.754956
 Mol. α(0) /au        :        243.946644


Wiberg/Mayer (AO) data.
largest (>0.10) Wiberg bond orders for each atom

 ---------------------------------------------------------------------------
     #   Z sym  total        # sym  WBO       # sym  WBO       # sym  WBO
 ---------------------------------------------------------------------------
     1   8 O    1.975 --     2 C    1.015    26 H    0.899
     2   6 C    3.961 --     1 O    1.015     3 C    0.990    28 H    0.968
                            27 H    0.966
     3   6 C    3.950 --     2 C    0.990     4 O    0.973    29 H    0.966
                            30 H    0.964
     4   8 O    2.245 --     5 C    1.080     3 C    0.973
     5   6 C    3.922 --     6 C    1.357    25 C    1.322     4 O    1.080
     6   6 C    3.986 --     7 C    1.466     5 C    1.357    31 H    0.966
     7   6 C    3.989 --     6 C    1.466     8 C    1.359    32 H    0.968
     8   6 C    3.989 --     7 C    1.359    24 C    1.329     9 C    1.139
     9   6 C    3.976 --    10 C    1.723     8 C    1.139    33 H    0.957
    10   6 C    3.977 --     9 C    1.723    11 C    1.091    34 H    0.957
    11   6 C    3.924 --    23 O    1.785    10 C    1.091    12 C    0.902
    12   6 C    3.923 --    15 O    0.977    13 O    0.956    17 C    0.944
                            11 C    0.902
    13   8 O    2.075 --    14 C    0.981    12 C    0.956
    14   6 C    3.946 --    37 H    0.981    13 O    0.981    35 H    0.979
                            36 H    0.978
    15   8 O    2.092 --    16 C    0.980    12 C    0.977
    16   6 C    3.946 --    40 H    0.981    38 H    0.980    15 O    0.980
                            39 H    0.979
    17   6 C    3.982 --    18 C    1.410    22 C    1.406    12 C    0.944
                            20 C    0.107
    18   6 C    3.988 --    19 C    1.443    17 C    1.410    41 H    0.965
                            21 C    0.111
    19   6 C    3.992 --    18 C    1.443    20 C    1.439    42 H    0.970
                            22 C    0.111
    20   6 C    3.991 --    19 C    1.439    21 C    1.436    43 H    0.971
                            17 C    0.107
    21   6 C    3.992 --    22 C    1.446    20 C    1.436    44 H    0.971
                            18 C    0.111
    22   6 C    3.991 --    21 C    1.446    17 C    1.406    45 H    0.968
                            19 C    0.111
    23   8 O    2.053 --    11 C    1.785
    24   6 C    3.990 --    25 C    1.510     8 C    1.329    46 H    0.964
    25   6 C    3.986 --    24 C    1.510     5 C    1.322    47 H    0.967
    26   1 H    0.916 --     1 O    0.899
    27   1 H    0.999 --     2 C    0.966
    28   1 H    0.995 --     2 C    0.968
    29   1 H    0.998 --     3 C    0.966
    30   1 H    0.998 --     3 C    0.964
    31   1 H    0.998 --     6 C    0.966
    32   1 H    0.998 --     7 C    0.968
    33   1 H    0.995 --     9 C    0.957
    34   1 H    0.996 --    10 C    0.957
    35   1 H    0.998 --    14 C    0.979
    36   1 H    0.999 --    14 C    0.978
    37   1 H    0.996 --    14 C    0.981
    38   1 H    0.999 --    16 C    0.980
    39   1 H    0.998 --    16 C    0.979
    40   1 H    0.996 --    16 C    0.981
    41   1 H    0.996 --    18 C    0.965
    42   1 H    0.998 --    19 C    0.970
    43   1 H    0.998 --    20 C    0.971
    44   1 H    0.998 --    21 C    0.971
    45   1 H    0.999 --    22 C    0.968
    46   1 H    0.997 --    24 C    0.964
    47   1 H    0.996 --    25 C    0.967
 ---------------------------------------------------------------------------

Topologies differ in total number of bonds
Writing topology from bond orders to xtbtopo.mol

molecular dipole:
                 x           y           z       tot (Debye)
 q only:        1.331      -0.081      -0.400
   full:        1.374      -0.270      -0.267       3.624
molecular quadrupole (traceless):
                xx          xy          yy          xz          yz          zz
 q only:        9.170     -19.897      -1.066      13.876       7.181      -8.104
  q+dip:        8.316     -26.791       1.493      16.925       7.918      -9.809
   full:        6.655     -28.009       1.780      18.469      10.037      -8.434

           -------------------------------------------------
          |                Geometry Summary                 |
           -------------------------------------------------

      molecular mass/u    :      342.3864391
   center of mass at/Å    :       -0.0560892      -0.0655384      -0.0615087
  moments of inertia/u·Å² :        0.1052292E+04   0.7031840E+04   0.7334078E+04
rotational constants/cm⁻¹ :        0.1601992E-01   0.2397329E-02   0.2298535E-02

 * 44 selected distances

     #   Z          #   Z                                           value/Å
     1   8 O        2   6 C                                       1.3996528
     2   6 C        3   6 C                                       1.5314421 (max)
     3   6 C        4   8 O                                       1.4099667
     4   8 O        5   6 C                                       1.3537832
     5   6 C        6   6 C                                       1.3931653
     6   6 C        7   6 C                                       1.3806276
     7   6 C        8   6 C                                       1.3971961
     9   6 C       10   6 C                                       1.3453401
    12   6 C       13   8 O                                       1.4142708
    13   8 O       14   6 C                                       1.4144225
    12   6 C       15   8 O                                       1.4029174
    15   8 O       16   6 C                                       1.4144830
    17   6 C       18   6 C                                       1.3871666
    18   6 C       19   6 C                                       1.3835769
    19   6 C       20   6 C                                       1.3845442
    20   6 C       21   6 C                                       1.3847928
    17   6 C       22   6 C                                       1.3896591
    21   6 C       22   6 C                                       1.3830687
    11   6 C       23   8 O                                       1.2140903
     8   6 C       24   6 C                                       1.4020636
     5   6 C       25   6 C                                       1.3998735
    24   6 C       25   6 C                                       1.3729423
     1   8 O       26   1 H                                       0.9642506 (min)
     2   6 C       27   1 H                                       1.1008005
     2   6 C       28   1 H                                       1.0916258
     3   6 C       29   1 H                                       1.0986753
     3   6 C       30   1 H                                       1.1008857
     6   6 C       31   1 H                                       1.0789897
     7   6 C       32   1 H                                       1.0804321
     9   6 C       33   1 H                                       1.0844920
    10   6 C       34   1 H                                       1.0763191
    14   6 C       35   1 H                                       1.0930388
    14   6 C       36   1 H                                       1.0946400
    14   6 C       37   1 H                                       1.0882609
    16   6 C       38   1 H                                       1.0944496
    16   6 C       39   1 H                                       1.0935522
    16   6 C       40   1 H                                       1.0886069
    18   6 C       41   1 H                                       1.0774677
    19   6 C       42   1 H                                       1.0800495
    20   6 C       43   1 H                                       1.0802139
    21   6 C       44   1 H                                       1.0802793
    22   6 C       45   1 H                                       1.0802414
    24   6 C       46   1 H                                       1.0782826
    25   6 C       47   1 H                                       1.0785395

 * 4 distinct bonds (by element types)

   Z      Z             #   av. dist./Å        max./Å        min./Å
   1 H    6 C          21     1.0866592     1.1008857     1.0763191
   6 C    6 C          14     1.3953899     1.5314421     1.3453401
   1 H    8 O           1     0.9642506     0.9642506     0.9642506
   6 C    8 O           8     1.3779483     1.4144830     1.2140903


optimized geometry written to: xtbopt.xyz


           -------------------------------------------------
          | TOTAL ENERGY              -74.313994763510 Eh   |
          | GRADIENT NORM               0.000259723408 Eh/α |
          | HOMO-LUMO GAP               2.230152342942 eV   |
           -------------------------------------------------

------------------------------------------------------------------------
 * finished run on 2025/12/01 at 14:17:49.061     
------------------------------------------------------------------------
 total:
 * wall-time:     0 d,  0 h,  0 min,  1.898 sec
 *  cpu-time:     0 d,  0 h,  0 min, 43.010 sec
 * ratio c/w:    22.664 speedup
 SCF:
 * wall-time:     0 d,  0 h,  0 min,  0.063 sec
 *  cpu-time:     0 d,  0 h,  0 min,  1.416 sec
 * ratio c/w:    22.555 speedup
 ANC optimizer:
 * wall-time:     0 d,  0 h,  0 min,  1.818 sec
 *  cpu-time:     0 d,  0 h,  0 min, 41.366 sec
 * ratio c/w:    22.755 speedup

normal termination of xtb
