      -----------------------------------------------------------      
     |                   =====================                   |     
     |                           x T B                           |     
     |                   =====================                   |     
     |                         S. Grimme                         |     
     |          Mulliken Center for Theoretical Chemistry        |     
     |                    University of Bonn                     |     
      -----------------------------------------------------------      

   * xtb version 6.7.1 (edcfbbe) compiled by 'albert@albert-system' on 2024-07-22

   xtb is free software: you can redistribute it and/or modify it under
   the terms of the GNU Lesser General Public License as published by
   the Free Software Foundation, either version 3 of the License, or
   (at your option) any later version.
   
   xtb is distributed in the hope that it will be useful,
   but WITHOUT ANY WARRANTY; without even the implied warranty of
   MERCHANTABILITY or FITNESS FOR A PARTICULAR PURPOSE.  See the
   GNU Lesser General Public License for more details.
   
   Cite this work as:
   * C. Bannwarth, E. Caldeweyher, S. Ehlert, A. Hansen, P. Pracht,
     J. Seibert, S. Spicher, S. Grimme, WIREs Comput. Mol. Sci., 2020, 11,
     e01493. DOI: 10.1002/wcms.1493
   
   for GFN2-xTB:
   * C. Bannwarth, S. Ehlert and S. Grimme., J. Chem. Theory Comput., 2019,
     15, 1652-1671. DOI: 10.1021/acs.jctc.8b01176
   for GFN1-xTB:
   * S. Grimme, C. Bannwarth, P. Shushkov, J. Chem. Theory Comput., 2017,
     13, 1989-2009. DOI: 10.1021/acs.jctc.7b00118
   for GFN0-xTB:
   * P. Pracht, E. Caldeweyher, S. Ehlert, S. Grimme, ChemRxiv, 2019, preprint.
     DOI: 10.26434/chemrxiv.8326202.v1
   for GFN-FF:
   * S. Spicher and S. Grimme, Angew. Chem. Int. Ed., 2020, 59, 15665-15673.
     DOI: 10.1002/anie.202004239
   
   for ALPB and GBSA implicit solvation:
   * S. Ehlert, M. Stahn, S. Spicher, S. Grimme, J. Chem. Theory Comput.,
     2021, 17, 4250-4261. DOI: 10.1021/acs.jctc.1c00471
   
   for ddCOSMO and CPCM-X implicit solvation:
   * M. Stahn, S. Ehlert, S. Grimme, J. Phys. Chem. A,
     2023, XX, XXXX-XXXX. DOI: 10.1021/acs.jpca.3c04382
   
   for DFT-D4:
   * E. Caldeweyher, C. Bannwarth and S. Grimme, J. Chem. Phys., 2017,
     147, 034112. DOI: 10.1063/1.4993215
   * E. Caldeweyher, S. Ehlert, A. Hansen, H. Neugebauer, S. Spicher,
     C. Bannwarth and S. Grimme, J. Chem. Phys., 2019, 150, 154122.
     DOI: 10.1063/1.5090222
   * E. Caldeweyher, J.-M. Mewes, S. Ehlert and S. Grimme, Phys. Chem. Chem. Phys.
     2020, 22, 8499-8512. DOI: 10.1039/D0CP00502A
   
   for sTDA-xTB:
   * S. Grimme and C. Bannwarth, J. Chem. Phys., 2016, 145, 054103.
     DOI: 10.1063/1.4959605
   
   in the mass-spec context:
   * V. Asgeirsson, C. Bauer and S. Grimme, Chem. Sci., 2017, 8, 4879.
     DOI: 10.1039/c7sc00601b
   * J. Koopman and S. Grimme, ACS Omega 2019, 4, 12, 15120-15133.
     DOI: 10.1021/acsomega.9b02011
   
   for metadynamics refer to:
   * S. Grimme, J. Chem. Theory Comput., 2019, 155, 2847-2862
     DOI: 10.1021/acs.jctc.9b00143
   
   for SPH calculations refer to:
   * S. Spicher and S. Grimme, J. Chem. Theory Comput., 2021, 17, 1701-1714
     DOI: 10.1021/acs.jctc.0c01306
   
   for ONIOM refer to:
   * C. Plett, A. Katbashev, S. Ehlert, S. Grimme, M. Bursch,
     Phys. Chem. Chem. Phys., 2023, 25, 17860-17868. DOI: 10.1039/D3CP02178E
   
   for DIPRO refer to:
   * J. Kohn, N. Gildemeister, S. Grimme, D. Fazzi, A. Hansen,
     J. Chem. Phys., 2023, just accepted.
   
   for PTB refer to:
   * S. Grimme, M. Mueller, A. Hansen, J. Chem. Phys., 2023, 158, 124111.
     DOI: 10.1063/5.0137838
   
   with help from (in alphabetical order)
   P. Atkinson, C. Bannwarth, F. Bohle, G. Brandenburg, E. Caldeweyher
   M. Checinski, S. Dohm, S. Ehlert, S. Ehrlich, I. Gerasimov, C. Hölzer
   A. Katbashev, J. Kohn, J. Koopman, C. Lavigne, S. Lehtola, F. März, M. Müller,
   F. Musil, H. Neugebauer, J. Pisarek, C. Plett, P. Pracht, F. Pultar,
   J. Seibert, P. Shushkov, S. Spicher, M. Stahn, M. Steiner, T. Strunk,
   J. Stückrath, T. Rose, and J. Unsleber
   
 * started run on 2025/12/01 at 14:17:45.079     
   ID    Z sym.   atoms
    1    8 O      1, 4, 13, 15, 23
    2    6 C      2, 3, 5-12, 14, 16-22, 24, 25
    3    1 H      26-47

           -------------------------------------------------
          |                Calculation Setup                |
           -------------------------------------------------

          program call               : xtb pipeline_data/3_conformer_xyz/acrylates/rdkit/IWBDNDKRBBFYKG-JLHYYAGUSA-N_conf191.xyz --opt --gfn 2-xTB --iterations 250
          coordinate file            : pipeline_data/3_conformer_xyz/acrylates/rdkit/IWBDNDKRBBFYKG-JLHYYAGUSA-N_conf191.xyz
          omp threads                :                    24

########################################################################
[WARNING] Please study the warnings concerning your input carefully
-1- readin_getIntValue: could not parse '2-xTB'
########################################################################

           -------------------------------------------------
          |                 G F N 2 - x T B                 |
           -------------------------------------------------

        Reference                      10.1021/acs.jctc.8b01176
      * Hamiltonian:
        H0-scaling (s, p, d)           1.850000    2.230000    2.230000
        zeta-weighting                 0.500000
      * Dispersion:
        s8                             2.700000
        a1                             0.520000
        a2                             5.000000
        s9                             5.000000
      * Repulsion:
        kExp                           1.500000    1.000000
        rExp                           1.000000
      * Coulomb:
        alpha                          2.000000
        third order                    shell-resolved
        anisotropic                    true
        a3                             3.000000
        a5                             4.000000
        cn-shift                       1.200000
        cn-exp                         4.000000
        max-rad                        5.000000

q/qsh data taken from xtbrestart
CAMM data taken from xtbrestart

          ...................................................
          :                      SETUP                      :
          :.................................................:
          :  # basis functions                 122          :
          :  # atomic orbitals                 122          :
          :  # shells                           72          :
          :  # electrons                       132          :
          :  max. iterations                   250          :
          :  Hamiltonian                  GFN2-xTB          :
          :  restarted?                       true          :
          :  GBSA solvation                  false          :
          :  PC potential                    false          :
          :  electronic temp.          300.0000000     K    :
          :  accuracy                    1.0000000          :
          :  -> integral cutoff          0.2500000E+02      :
          :  -> integral neglect         0.1000000E-07      :
          :  -> SCF convergence          0.1000000E-05 Eh   :
          :  -> wf. convergence          0.1000000E-03 e    :
          :  Broyden damping             0.4000000          :
          :  net charge                          0          :
          :  unpaired electrons                  0          :
          ...................................................

 iter      E             dE          RMSdq      gap      omega  full diag
   1    -75.2695085 -0.752695E+02  0.548E+00    2.15       0.0  T
   2    -75.2801524 -0.106440E-01  0.325E+00    2.01       1.0  T
   3    -75.2687372  0.114153E-01  0.598E-01    2.23       1.0  T
   4    -75.2834990 -0.147618E-01  0.159E-01    2.13       1.0  T
   5    -75.2839488 -0.449762E-03  0.869E-02    2.12       1.0  T
   6    -75.2839845 -0.357336E-04  0.441E-02    2.14       1.0  T
   7    -75.2840234 -0.389270E-04  0.127E-02    2.12       1.1  T
   8    -75.2840262 -0.276747E-05  0.587E-03    2.13       2.5  T
   9    -75.2840265 -0.319012E-06  0.274E-03    2.13       5.3  T
  10    -75.2840267 -0.140427E-06  0.927E-04    2.13      15.7  T
  11    -75.2840267 -0.988727E-08  0.388E-04    2.13      37.6  T

   *** convergence criteria satisfied after 11 iterations ***

         #    Occupation            Energy/Eh            Energy/eV
      -------------------------------------------------------------
         1        2.0000           -0.7251722             -19.7329
       ...           ...                  ...                  ...
        60        2.0000           -0.4244116             -11.5488
        61        2.0000           -0.4229604             -11.5093
        62        2.0000           -0.4118171             -11.2061
        63        2.0000           -0.4104844             -11.1698
        64        2.0000           -0.3990118             -10.8577
        65        2.0000           -0.3932249             -10.7002
        66        2.0000           -0.3805128             -10.3543 (HOMO)
        67                         -0.3023542              -8.2275 (LUMO)
        68                         -0.2401032              -6.5335
        69                         -0.2333567              -6.3500
        70                         -0.2294512              -6.2437
        71                         -0.2246499              -6.1130
       ...                                ...                  ...
       122                          0.7028328              19.1251
      -------------------------------------------------------------
                  HL-Gap            0.0781586 Eh            2.1268 eV
             Fermi-level           -0.3414335 Eh           -9.2909 eV

 SCC (total)                   0 d,  0 h,  0 min,  0.053 sec
 SCC setup                      ...        0 min,  0.000 sec (  0.598%)
 Dispersion                     ...        0 min,  0.001 sec (  1.248%)
 classical contributions        ...        0 min,  0.000 sec (  0.187%)
 integral evaluation            ...        0 min,  0.003 sec (  6.612%)
 iterations                     ...        0 min,  0.040 sec ( 75.565%)
 molecular gradient             ...        0 min,  0.008 sec ( 14.638%)
 printout                       ...        0 min,  0.001 sec (  1.089%)

         :::::::::::::::::::::::::::::::::::::::::::::::::::::
         ::                     SUMMARY                     ::
         :::::::::::::::::::::::::::::::::::::::::::::::::::::
         :: total energy             -74.279819841957 Eh    ::
         :: gradient norm              0.166482446907 Eh/a0 ::
         :: HOMO-LUMO gap              2.126804286378 eV    ::
         ::.................................................::
         :: SCC energy               -75.283561448780 Eh    ::
         :: -> isotropic ES            0.106270352254 Eh    ::
         :: -> anisotropic ES          0.004784686620 Eh    ::
         :: -> anisotropic XC          0.019272702953 Eh    ::
         :: -> dispersion             -0.049385511281 Eh    ::
         :: repulsion energy           1.003741606822 Eh    ::
         :: add. restraining           0.000000000000 Eh    ::
         :: total charge              -0.000000000000 e     ::
         :::::::::::::::::::::::::::::::::::::::::::::::::::::

      ----------------------------------------------------------- 
     |                   =====================                   |
     |                        A N C O P T                        |
     |                   =====================                   |
     |               Approximate Normal Coordinate               |
     |                Rational Function Optimizer                |
      ----------------------------------------------------------- 
      ----------------------------------------------------------- 
     |                   =====================                   |
     |                        A N C O P T                        |
     |                   =====================                   |
     |               Approximate Normal Coordinate               |
     |                Rational Function Optimizer                |
      ----------------------------------------------------------- 

          ...................................................
          :                      SETUP                      :
          :.................................................:
          :   optimization level            normal          :
          :   max. optcycles                   200          :
          :   ANC micro-cycles                  20          :
          :   degrees of freedom               135          :
          :.................................................:
          :   RF solver                   davidson          :
          :   write xtbopt.log                true          :
          :   linear?                        false          :
          :   energy convergence         0.5000000E-05 Eh   :
          :   grad. convergence          0.1000000E-02 Eh/α :
          :   maxmium RF displ.          1.0000000          :
          :   Hlow (freq-cutoff)         0.1000000E-01      :
          :   Hmax (freq-cutoff)         5.0000000          :
          :   S6 in model hess.         20.0000000          :
          ...................................................

generating ANC from exact Hessian ...
Using Lindh-Hessian (1995)
 Shifting diagonal of input Hessian by   9.908597464737729E-003
 Lowest  eigenvalues of input Hessian
    0.000000    0.000000    0.000000    0.000000    0.000000    0.000000
    0.010000    0.010332    0.010509    0.010622    0.011285    0.011652
    0.011913    0.012435    0.012689    0.013202    0.013682    0.015335
 Highest eigenvalues
    1.955142    2.018988    2.040582    2.048243    2.117859    2.196588
 

........................................................................
.............................. CYCLE    1 ..............................
........................................................................

 iter      E             dE          RMSdq      gap      omega  full diag
   1    -75.2840267 -0.752840E+02  0.169E-04    2.13       0.0  T
   2    -75.2840267 -0.330104E-09  0.106E-04    2.13     138.0  T
   3    -75.2840267 -0.185949E-09  0.639E-05    2.13     228.2  T
     SCC iter.                  ...        0 min,  0.010 sec
     gradient                   ...        0 min,  0.005 sec
 * total energy  :   -74.2798198 Eh     change       -0.1339885E-08 Eh
   gradient norm :     0.1664824 Eh/α   predicted     0.0000000E+00 (-100.00%)
   displ. norm   :     0.3455465 α      lambda       -0.3113736E-01
   maximum displ.:     0.1049616 α      in ANC's #52, #27, #48, ...

........................................................................
.............................. CYCLE    2 ..............................
........................................................................

 iter      E             dE          RMSdq      gap      omega  full diag
   1    -75.3022812 -0.753023E+02  0.246E-01    2.17       0.0  T
   2    -75.3028936 -0.612385E-03  0.168E-01    2.22       1.0  T
   3    -75.3029246 -0.310000E-04  0.857E-02    2.19       1.0  T
   4    -75.3029869 -0.623000E-04  0.417E-02    2.20       1.0  T
   5    -75.3030471 -0.602111E-04  0.856E-03    2.20       1.7  T
   6    -75.3030490 -0.194281E-05  0.365E-03    2.20       4.0  T
   7    -75.3030493 -0.315794E-06  0.166E-03    2.20       8.8  T
   8    -75.3030494 -0.221869E-07  0.736E-04    2.20      19.8  T
   9    -75.3030494 -0.292935E-08  0.269E-04    2.20      54.3  T
     SCC iter.                  ...        0 min,  0.091 sec
     gradient                   ...        0 min,  0.006 sec
 * total energy  :   -74.3015517 Eh     change       -0.2173189E-01 Eh
   gradient norm :     0.0682521 Eh/α   predicted    -0.1743935E-01 ( -19.75%)
   displ. norm   :     0.3145030 α      lambda       -0.9791243E-02
   maximum displ.:     0.1099676 α      in ANC's #27, #11, #30, ...

........................................................................
.............................. CYCLE    3 ..............................
........................................................................

 iter      E             dE          RMSdq      gap      omega  full diag
   1    -75.3132801 -0.753133E+02  0.182E-01    2.25       0.0  T
   2    -75.3136734 -0.393338E-03  0.120E-01    2.27       1.0  T
   3    -75.3137082 -0.348143E-04  0.636E-02    2.26       1.0  T
   4    -75.3137297 -0.214231E-04  0.304E-02    2.26       1.0  T
   5    -75.3137627 -0.330566E-04  0.755E-03    2.26       1.9  T
   6    -75.3137643 -0.160944E-05  0.274E-03    2.26       5.3  T
   7    -75.3137646 -0.237423E-06  0.101E-03    2.26      14.5  T
   8    -75.3137646 -0.115202E-07  0.482E-04    2.26      30.3  T
   9    -75.3137646 -0.497181E-09  0.191E-04    2.26      76.3  T
     SCC iter.                  ...        0 min,  0.026 sec
     gradient                   ...        0 min,  0.006 sec
 * total energy  :   -74.3072294 Eh     change       -0.5677620E-02 Eh
   gradient norm :     0.0195412 Eh/α   predicted    -0.5382012E-02 (  -5.21%)
   displ. norm   :     0.2304459 α      lambda       -0.1422367E-02
   maximum displ.:     0.1200556 α      in ANC's #11, #5, #14, ...

........................................................................
.............................. CYCLE    4 ..............................
........................................................................

 iter      E             dE          RMSdq      gap      omega  full diag
   1    -75.3132112 -0.753132E+02  0.683E-02    2.28       0.0  T
   2    -75.3132222 -0.109669E-04  0.439E-02    2.27       1.0  T
   3    -75.3132088  0.133903E-04  0.220E-02    2.27       1.0  T
   4    -75.3132270 -0.181862E-04  0.501E-03    2.27       2.9  T
   5    -75.3132276 -0.605312E-06  0.210E-03    2.27       7.0  T
   6    -75.3132278 -0.151783E-06  0.803E-04    2.27      18.2  T
   7    -75.3132278 -0.104735E-07  0.423E-04    2.27      34.5  T
     SCC iter.                  ...        0 min,  0.020 sec
     gradient                   ...        0 min,  0.005 sec
 * total energy  :   -74.3082380 Eh     change       -0.1008678E-02 Eh
   gradient norm :     0.0100013 Eh/α   predicted    -0.7489615E-03 ( -25.75%)
   displ. norm   :     0.2968042 α      lambda       -0.8390666E-03
   maximum displ.:     0.1726645 α      in ANC's #11, #5, #6, ...

........................................................................
.............................. CYCLE    5 ..............................
........................................................................

 iter      E             dE          RMSdq      gap      omega  full diag
   1    -75.3136555 -0.753137E+02  0.639E-02    2.28       0.0  T
   2    -75.3136590 -0.353911E-05  0.389E-02    2.27       1.0  T
   3    -75.3136523  0.673015E-05  0.131E-02    2.27       1.1  T
   4    -75.3136602 -0.793977E-05  0.284E-03    2.27       5.1  T
   5    -75.3136604 -0.147458E-06  0.143E-03    2.27      10.2  T
   6    -75.3136604 -0.527057E-07  0.679E-04    2.27      21.5  T
   7    -75.3136604 -0.464739E-08  0.308E-04    2.27      47.3  T
     SCC iter.                  ...        0 min,  0.020 sec
     gradient                   ...        0 min,  0.006 sec
 * total energy  :   -74.3088266 Eh     change       -0.5885556E-03 Eh
   gradient norm :     0.0065747 Eh/α   predicted    -0.4564943E-03 ( -22.44%)
   displ. norm   :     0.3074175 α      lambda       -0.4982013E-03
   maximum displ.:     0.1751136 α      in ANC's #11, #5, #6, ...

........................................................................
.............................. CYCLE    6 ..............................
........................................................................

 iter      E             dE          RMSdq      gap      omega  full diag
   1    -75.3142655 -0.753143E+02  0.572E-02    2.28       0.0  T
   2    -75.3142670 -0.145200E-05  0.342E-02    2.27       1.0  T
   3    -75.3142667  0.304117E-06  0.425E-03    2.27       3.4  T
   4    -75.3142673 -0.621424E-06  0.190E-03    2.27       7.7  T
   5    -75.3142674 -0.643194E-07  0.986E-04    2.27      14.8  T
   6    -75.3142674 -0.955379E-08  0.503E-04    2.27      29.0  T
     SCC iter.                  ...        0 min,  0.017 sec
     gradient                   ...        0 min,  0.005 sec
 * total energy  :   -74.3091998 Eh     change       -0.3732489E-03 Eh
   gradient norm :     0.0086267 Eh/α   predicted    -0.2726425E-03 ( -26.95%)
   displ. norm   :     0.3537594 α      lambda       -0.4573947E-03
   maximum displ.:     0.1823922 α      in ANC's #11, #5, #6, ...

........................................................................
.............................. CYCLE    7 ..............................
........................................................................

 iter      E             dE          RMSdq      gap      omega  full diag
   1    -75.3149706 -0.753150E+02  0.645E-02    2.27       0.0  T
   2    -75.3149727 -0.203723E-05  0.386E-02    2.27       1.0  T
   3    -75.3149719  0.768942E-06  0.574E-03    2.27       2.5  T
   4    -75.3149731 -0.123181E-05  0.198E-03    2.27       7.4  T
   5    -75.3149732 -0.669827E-07  0.110E-03    2.27      13.3  T
   6    -75.3149732 -0.138771E-07  0.622E-04    2.27      23.4  T
   7    -75.3149732 -0.533475E-08  0.248E-04    2.27      58.8  T
     SCC iter.                  ...        0 min,  0.020 sec
     gradient                   ...        0 min,  0.005 sec
 * total energy  :   -74.3095381 Eh     change       -0.3382966E-03 Eh
   gradient norm :     0.0098652 Eh/α   predicted    -0.2573188E-03 ( -23.94%)
   displ. norm   :     0.3212619 α      lambda       -0.3783454E-03
   maximum displ.:     0.1317133 α      in ANC's #11, #5, #2, ...

........................................................................
.............................. CYCLE    8 ..............................
........................................................................

 iter      E             dE          RMSdq      gap      omega  full diag
   1    -75.3160695 -0.753161E+02  0.627E-02    2.26       0.0  T
   2    -75.3160712 -0.174449E-05  0.374E-02    2.27       1.0  T
   3    -75.3160703  0.884558E-06  0.569E-03    2.27       2.6  T
   4    -75.3160716 -0.126930E-05  0.185E-03    2.27       7.9  T
   5    -75.3160717 -0.629706E-07  0.994E-04    2.27      14.7  T
   6    -75.3160717 -0.141498E-07  0.581E-04    2.27      25.1  T
     SCC iter.                  ...        0 min,  0.017 sec
     gradient                   ...        0 min,  0.006 sec
 * total energy  :   -74.3098198 Eh     change       -0.2816874E-03 Eh
   gradient norm :     0.0086295 Eh/α   predicted    -0.2086980E-03 ( -25.91%)
   displ. norm   :     0.2920291 α      lambda       -0.3373849E-03
   maximum displ.:     0.1364467 α      in ANC's #2, #5, #15, ...

........................................................................
.............................. CYCLE    9 ..............................
........................................................................

 iter      E             dE          RMSdq      gap      omega  full diag
   1    -75.3171723 -0.753172E+02  0.654E-02    2.26       0.0  T
   2    -75.3171735 -0.125932E-05  0.389E-02    2.26       1.0  T
   3    -75.3171728  0.738825E-06  0.525E-03    2.26       2.8  T
   4    -75.3171739 -0.109361E-05  0.196E-03    2.26       7.4  T
   5    -75.3171740 -0.640099E-07  0.101E-03    2.26      14.5  T
   6    -75.3171740 -0.124015E-07  0.516E-04    2.26      28.3  T
   7    -75.3171740 -0.443507E-08  0.168E-04    2.26      86.6  T
     SCC iter.                  ...        0 min,  0.020 sec
     gradient                   ...        0 min,  0.006 sec
 * total energy  :   -74.3100784 Eh     change       -0.2585789E-03 Eh
   gradient norm :     0.0079927 Eh/α   predicted    -0.1830809E-03 ( -29.20%)
   displ. norm   :     0.3138534 α      lambda       -0.3634236E-03
   maximum displ.:     0.1678693 α      in ANC's #2, #15, #5, ...

........................................................................
.............................. CYCLE   10 ..............................
........................................................................

 iter      E             dE          RMSdq      gap      omega  full diag
   1    -75.3176878 -0.753177E+02  0.774E-02    2.26       0.0  T
   2    -75.3176894 -0.165944E-05  0.460E-02    2.26       1.0  T
   3    -75.3176878  0.167214E-05  0.702E-03    2.26       2.1  T
   4    -75.3176901 -0.231129E-05  0.200E-03    2.26       7.3  T
   5    -75.3176901 -0.436331E-07  0.108E-03    2.26      13.5  T
   6    -75.3176901 -0.816702E-08  0.534E-04    2.26      27.3  T
   7    -75.3176901 -0.566166E-08  0.198E-04    2.26      73.7  T
     SCC iter.                  ...        0 min,  0.020 sec
     gradient                   ...        0 min,  0.005 sec
 * total energy  :   -74.3103566 Eh     change       -0.2781959E-03 Eh
   gradient norm :     0.0084526 Eh/α   predicted    -0.1996183E-03 ( -28.25%)
   displ. norm   :     0.3273656 α      lambda       -0.3831911E-03
   maximum displ.:     0.1876934 α      in ANC's #2, #15, #3, ...

........................................................................
.............................. CYCLE   11 ..............................
........................................................................

 iter      E             dE          RMSdq      gap      omega  full diag
   1    -75.3181584 -0.753182E+02  0.827E-02    2.27       0.0  T
   2    -75.3181606 -0.222143E-05  0.492E-02    2.27       1.0  T
   3    -75.3181580  0.261131E-05  0.840E-03    2.27       1.7  T
   4    -75.3181614 -0.343123E-05  0.213E-03    2.27       6.9  T
   5    -75.3181615 -0.621462E-07  0.127E-03    2.27      11.4  T
   6    -75.3181615 -0.189580E-07  0.623E-04    2.27      23.4  T
   7    -75.3181615 -0.711583E-08  0.230E-04    2.27      63.4  T
     SCC iter.                  ...        0 min,  0.020 sec
     gradient                   ...        0 min,  0.005 sec
 * total energy  :   -74.3106406 Eh     change       -0.2839968E-03 Eh
   gradient norm :     0.0072205 Eh/α   predicted    -0.2121296E-03 ( -25.31%)
   displ. norm   :     0.3973426 α      lambda       -0.3731404E-03
   maximum displ.:     0.2219765 α      in ANC's #2, #14, #3, ...

........................................................................
.............................. CYCLE   12 ..............................
........................................................................

 iter      E             dE          RMSdq      gap      omega  full diag
   1    -75.3140978 -0.753141E+02  0.979E-02    2.28       0.0  T
   2    -75.3141027 -0.487454E-05  0.581E-02    2.28       1.0  T
   3    -75.3140986  0.404483E-05  0.111E-02    2.27       1.3  T
   4    -75.3141040 -0.538325E-05  0.376E-03    2.27       3.9  T
   5    -75.3141043 -0.295519E-06  0.208E-03    2.27       7.0  T
   6    -75.3141044 -0.798283E-07  0.909E-04    2.27      16.0  T
   7    -75.3141044 -0.694790E-08  0.385E-04    2.27      37.9  T
     SCC iter.                  ...        0 min,  0.036 sec
     gradient                   ...        0 min,  0.006 sec
 * total energy  :   -74.3106833 Eh     change       -0.4271158E-04 Eh
   gradient norm :     0.0214036 Eh/α   predicted    -0.2160267E-03 ( 405.78%)
   displ. norm   :     0.2472157 α      lambda       -0.8125172E-03
   maximum displ.:     0.1481162 α      in ANC's #11, #2, #7, ...

........................................................................
.............................. CYCLE   13 ..............................
........................................................................

 iter      E             dE          RMSdq      gap      omega  full diag
   1    -75.3193395 -0.753193E+02  0.622E-02    2.28       0.0  T
   2    -75.3193451 -0.557038E-05  0.368E-02    2.28       1.0  T
   3    -75.3193414  0.365280E-05  0.125E-02    2.28       1.2  T
   4    -75.3193469 -0.547145E-05  0.465E-03    2.28       3.1  T
   5    -75.3193473 -0.373563E-06  0.212E-03    2.28       6.9  T
   6    -75.3193473 -0.428284E-07  0.116E-03    2.28      12.6  T
   7    -75.3193473 -0.123708E-07  0.397E-04    2.28      36.8  T
   8    -75.3193473 -0.292762E-08  0.103E-04    2.28     142.0  T
     SCC iter.                  ...        0 min,  0.054 sec
     gradient                   ...        0 min,  0.007 sec
 * total energy  :   -74.3110005 Eh     change       -0.3172276E-03 Eh
   gradient norm :     0.0092697 Eh/α   predicted    -0.4310896E-03 (  35.89%)
   displ. norm   :     0.1103956 α      lambda       -0.1623942E-03
   maximum displ.:     0.0543335 α      in ANC's #2, #14, #3, ...

........................................................................
.............................. CYCLE   14 ..............................
........................................................................

 iter      E             dE          RMSdq      gap      omega  full diag
   1    -75.3178123 -0.753178E+02  0.284E-02    2.28       0.0  T
   2    -75.3178132 -0.870072E-06  0.171E-02    2.28       1.0  T
   3    -75.3178118  0.145734E-05  0.664E-03    2.28       2.2  T
   4    -75.3178135 -0.173943E-05  0.144E-03    2.28      10.1  T
   5    -75.3178136 -0.559068E-07  0.634E-04    2.28      23.0  T
   6    -75.3178136 -0.660874E-08  0.313E-04    2.28      46.6  T
     SCC iter.                  ...        0 min,  0.021 sec
     gradient                   ...        0 min,  0.006 sec
 * total energy  :   -74.3111156 Eh     change       -0.1150382E-03 Eh
   gradient norm :     0.0048220 Eh/α   predicted    -0.8218780E-04 ( -28.56%)
   displ. norm   :     0.1251958 α      lambda       -0.1342438E-03
   maximum displ.:     0.0516188 α      in ANC's #8, #2, #3, ...

........................................................................
.............................. CYCLE   15 ..............................
........................................................................

 iter      E             dE          RMSdq      gap      omega  full diag
   1    -75.3190585 -0.753191E+02  0.368E-02    2.27       0.0  T
   2    -75.3190600 -0.151716E-05  0.222E-02    2.28       1.0  T
   3    -75.3190572  0.278355E-05  0.929E-03    2.28       1.6  T
   4    -75.3190605 -0.335055E-05  0.175E-03    2.28       8.3  T
   5    -75.3190606 -0.939332E-07  0.683E-04    2.28      21.4  T
   6    -75.3190606 -0.895623E-08  0.340E-04    2.28      42.9  T
     SCC iter.                  ...        0 min,  0.018 sec
     gradient                   ...        0 min,  0.006 sec
 * total energy  :   -74.3111932 Eh     change       -0.7764081E-04 Eh
   gradient norm :     0.0062519 Eh/α   predicted    -0.6817476E-04 ( -12.19%)
   displ. norm   :     0.0996992 α      lambda       -0.6939688E-04
   maximum displ.:     0.0454124 α      in ANC's #8, #3, #2, ...

........................................................................
.............................. CYCLE   16 ..............................
........................................................................

 iter      E             dE          RMSdq      gap      omega  full diag
   1    -75.3180402 -0.753180E+02  0.294E-02    2.27       0.0  T
   2    -75.3180410 -0.817014E-06  0.175E-02    2.27       1.0  T
   3    -75.3180403  0.743628E-06  0.491E-03    2.27       3.0  T
   4    -75.3180412 -0.936845E-06  0.121E-03    2.27      12.1  T
   5    -75.3180412 -0.343781E-07  0.586E-04    2.27      24.9  T
   6    -75.3180413 -0.437190E-08  0.317E-04    2.27      46.0  T
     SCC iter.                  ...        0 min,  0.018 sec
     gradient                   ...        0 min,  0.007 sec
 * total energy  :   -74.3112286 Eh     change       -0.3537591E-04 Eh
   gradient norm :     0.0042919 Eh/α   predicted    -0.3504772E-04 (  -0.93%)
   displ. norm   :     0.1005881 α      lambda       -0.5376452E-04
   maximum displ.:     0.0521827 α      in ANC's #8, #3, #2, ...

........................................................................
.............................. CYCLE   17 ..............................
........................................................................

 iter      E             dE          RMSdq      gap      omega  full diag
   1    -75.3186136 -0.753186E+02  0.267E-02    2.27       0.0  T
   2    -75.3186138 -0.243459E-06  0.158E-02    2.27       1.0  T
   3    -75.3186138  0.311710E-07  0.176E-03    2.27       8.3  T
   4    -75.3186139 -0.972046E-07  0.729E-04    2.27      20.0  T
   5    -75.3186139 -0.864729E-08  0.407E-04    2.27      35.8  T
     SCC iter.                  ...        0 min,  0.016 sec
     gradient                   ...        0 min,  0.006 sec
 * total energy  :   -74.3112669 Eh     change       -0.3831620E-04 Eh
   gradient norm :     0.0029493 Eh/α   predicted    -0.2715501E-04 ( -29.13%)
   displ. norm   :     0.1338991 α      lambda       -0.5342717E-04
   maximum displ.:     0.0680176 α      in ANC's #8, #3, #2, ...

........................................................................
.............................. CYCLE   18 ..............................
........................................................................

 iter      E             dE          RMSdq      gap      omega  full diag
   1    -75.3190334 -0.753190E+02  0.367E-02    2.27       0.0  T
   2    -75.3190339 -0.507631E-06  0.217E-02    2.27       1.0  T
   3    -75.3190331  0.802734E-06  0.462E-03    2.27       3.2  T
   4    -75.3190341 -0.984441E-06  0.993E-04    2.27      14.7  T
   5    -75.3190341 -0.157316E-07  0.560E-04    2.27      26.0  T
     SCC iter.                  ...        0 min,  0.014 sec
     gradient                   ...        0 min,  0.006 sec
 * total energy  :   -74.3113029 Eh     change       -0.3603695E-04 Eh
   gradient norm :     0.0021234 Eh/α   predicted    -0.2719358E-04 ( -24.54%)
   displ. norm   :     0.1324438 α      lambda       -0.4368503E-04
   maximum displ.:     0.0682879 α      in ANC's #3, #8, #6, ...

........................................................................
.............................. CYCLE   19 ..............................
........................................................................

 iter      E             dE          RMSdq      gap      omega  full diag
   1    -75.3193000 -0.753193E+02  0.383E-02    2.27       0.0  T
   2    -75.3193004 -0.365281E-06  0.225E-02    2.27       1.0  T
   3    -75.3192997  0.703807E-06  0.422E-03    2.27       3.5  T
   4    -75.3193005 -0.857716E-06  0.801E-04    2.27      18.2  T
   5    -75.3193005 -0.898424E-08  0.465E-04    2.27      31.3  T
     SCC iter.                  ...        0 min,  0.014 sec
     gradient                   ...        0 min,  0.006 sec
 * total energy  :   -74.3113321 Eh     change       -0.2915865E-04 Eh
   gradient norm :     0.0026184 Eh/α   predicted    -0.2222733E-04 ( -23.77%)
   displ. norm   :     0.1386677 α      lambda       -0.3415801E-04
   maximum displ.:     0.0778082 α      in ANC's #3, #6, #8, ...

........................................................................
.............................. CYCLE   20 ..............................
........................................................................

 iter      E             dE          RMSdq      gap      omega  full diag
   1    -75.3187719 -0.753188E+02  0.407E-02    2.27       0.0  T
   2    -75.3187721 -0.251105E-06  0.240E-02    2.27       1.0  T
   3    -75.3187719  0.196621E-06  0.263E-03    2.26       5.6  T
   4    -75.3187722 -0.297214E-06  0.703E-04    2.26      20.7  T
   5    -75.3187722 -0.304536E-08  0.448E-04    2.26      32.6  T
     SCC iter.                  ...        0 min,  0.015 sec
     gradient                   ...        0 min,  0.006 sec
 * total energy  :   -74.3113544 Eh     change       -0.2226056E-04 Eh
   gradient norm :     0.0023866 Eh/α   predicted    -0.1740858E-04 ( -21.80%)
   displ. norm   :     0.1281852 α      lambda       -0.3340320E-04
   maximum displ.:     0.0550878 α      in ANC's #7, #6, #3, ...
 * RMSD in coord.:     0.4433092 α      energy gain  -0.3153452E-01 Eh

generating ANC from exact Hessian ...
Using Lindh-Hessian (1995)
 Shifting diagonal of input Hessian by   9.900747122089710E-003
 Lowest  eigenvalues of input Hessian
    0.000000    0.000000    0.000000    0.000000    0.000000    0.000000
    0.010000    0.010301    0.010498    0.010565    0.011221    0.011568
    0.012023    0.012220    0.012274    0.013170    0.013314    0.014854
 Highest eigenvalues
    1.927561    2.009465    2.018069    2.025423    2.139695    2.221297
 

........................................................................
.............................. CYCLE   21 ..............................
........................................................................

 iter      E             dE          RMSdq      gap      omega  full diag
   1    -75.3202009 -0.753202E+02  0.328E-02    2.26       0.0  T
   2    -75.3202011 -0.184736E-06  0.193E-02    2.26       1.0  T
   3    -75.3202011  0.330998E-07  0.166E-03    2.26       8.8  T
   4    -75.3202012 -0.884273E-07  0.541E-04    2.26      27.0  T
   5    -75.3202012 -0.211209E-08  0.295E-04    2.26      49.5  T
     SCC iter.                  ...        0 min,  0.014 sec
     gradient                   ...        0 min,  0.006 sec
 * total energy  :   -74.3113687 Eh     change       -0.1434850E-04 Eh
   gradient norm :     0.0029068 Eh/α   predicted     0.0000000E+00 (-100.00%)
   displ. norm   :     0.0250378 α      lambda       -0.1797757E-04
   maximum displ.:     0.0106093 α      in ANC's #8, #4, #15, ...

........................................................................
.............................. CYCLE   22 ..............................
........................................................................

 iter      E             dE          RMSdq      gap      omega  full diag
   1    -75.3194426 -0.753194E+02  0.646E-03    2.26       0.0  T
   2    -75.3194426 -0.737370E-07  0.389E-03    2.26       3.8  T
   3    -75.3194426  0.696152E-07  0.149E-03    2.26       9.8  T
   4    -75.3194426 -0.859163E-07  0.413E-04    2.26      35.4  T
   5    -75.3194426 -0.472144E-08  0.179E-04    2.26      81.6  T
     SCC iter.                  ...        0 min,  0.014 sec
     gradient                   ...        0 min,  0.005 sec
 * total energy  :   -74.3113834 Eh     change       -0.1467614E-04 Eh
   gradient norm :     0.0012713 Eh/α   predicted    -0.9286869E-05 ( -36.72%)
   displ. norm   :     0.0966618 α      lambda       -0.2479523E-04
   maximum displ.:     0.0406103 α      in ANC's #4, #8, #15, ...

........................................................................
.............................. CYCLE   23 ..............................
........................................................................

 iter      E             dE          RMSdq      gap      omega  full diag
   1    -75.3181588 -0.753182E+02  0.207E-02    2.26       0.0  T
   2    -75.3181594 -0.555515E-06  0.124E-02    2.27       1.2  T
   3    -75.3181585  0.894598E-06  0.510E-03    2.27       2.9  T
   4    -75.3181595 -0.106984E-05  0.119E-03    2.27      12.3  T
   5    -75.3181596 -0.340805E-07  0.556E-04    2.27      26.3  T
   6    -75.3181596 -0.703619E-08  0.259E-04    2.27      56.3  T
     SCC iter.                  ...        0 min,  0.036 sec
     gradient                   ...        0 min,  0.011 sec
 * total energy  :   -74.3114011 Eh     change       -0.1770478E-04 Eh
   gradient norm :     0.0026684 Eh/α   predicted    -0.1244922E-04 ( -29.68%)
   displ. norm   :     0.0266002 α      lambda       -0.8359973E-05
   maximum displ.:     0.0125175 α      in ANC's #4, #3, #6, ...

........................................................................
.............................. CYCLE   24 ..............................
........................................................................

 iter      E             dE          RMSdq      gap      omega  full diag
   1    -75.3184711 -0.753185E+02  0.549E-03    2.27       0.0  T
   2    -75.3184711 -0.918135E-08  0.326E-03    2.27       4.5  T
   3    -75.3184711  0.189099E-07  0.686E-04    2.27      21.3  T
   4    -75.3184711 -0.224588E-07  0.181E-04    2.27      80.4  T
     SCC iter.                  ...        0 min,  0.026 sec
     gradient                   ...        0 min,  0.006 sec
 * total energy  :   -74.3114089 Eh     change       -0.7782180E-05 Eh
   gradient norm :     0.0020306 Eh/α   predicted    -0.4277104E-05 ( -45.04%)
   displ. norm   :     0.1278712 α      lambda       -0.3229693E-04
   maximum displ.:     0.0604090 α      in ANC's #4, #3, #6, ...

........................................................................
.............................. CYCLE   25 ..............................
........................................................................

 iter      E             dE          RMSdq      gap      omega  full diag
   1    -75.3193663 -0.753194E+02  0.261E-02    2.27       0.0  T
   2    -75.3193665 -0.169113E-06  0.155E-02    2.27       1.0  T
   3    -75.3193662  0.225476E-06  0.238E-03    2.27       6.1  T
   4    -75.3193665 -0.289116E-06  0.687E-04    2.27      21.2  T
   5    -75.3193665 -0.859870E-08  0.419E-04    2.27      34.8  T
     SCC iter.                  ...        0 min,  0.017 sec
     gradient                   ...        0 min,  0.005 sec
 * total energy  :   -74.3114298 Eh     change       -0.2094507E-04 Eh
   gradient norm :     0.0009238 Eh/α   predicted    -0.1641866E-04 ( -21.61%)
   displ. norm   :     0.1261102 α      lambda       -0.9463019E-05
   maximum displ.:     0.0629549 α      in ANC's #4, #3, #6, ...

........................................................................
.............................. CYCLE   26 ..............................
........................................................................

 iter      E             dE          RMSdq      gap      omega  full diag
   1    -75.3195250 -0.753195E+02  0.255E-02    2.27       0.0  T
   2    -75.3195251 -0.125674E-06  0.151E-02    2.27       1.0  T
   3    -75.3195250  0.167211E-06  0.213E-03    2.27       6.9  T
   4    -75.3195252 -0.229867E-06  0.524E-04    2.27      27.9  T
   5    -75.3195252 -0.188925E-08  0.295E-04    2.27      49.4  T
     SCC iter.                  ...        0 min,  0.016 sec
     gradient                   ...        0 min,  0.005 sec
 * total energy  :   -74.3114396 Eh     change       -0.9753179E-05 Eh
   gradient norm :     0.0013606 Eh/α   predicted    -0.4767418E-05 ( -51.12%)
   displ. norm   :     0.0901095 α      lambda       -0.7725688E-05
   maximum displ.:     0.0467923 α      in ANC's #4, #3, #2, ...

........................................................................
.............................. CYCLE   27 ..............................
........................................................................

 iter      E             dE          RMSdq      gap      omega  full diag
   1    -75.3194246 -0.753194E+02  0.185E-02    2.27       0.0  T
   2    -75.3194247 -0.720063E-07  0.109E-02    2.27       1.3  T
   3    -75.3194246  0.758318E-07  0.159E-03    2.27       9.2  T
   4    -75.3194247 -0.102987E-06  0.399E-04    2.27      36.6  T
   5    -75.3194247 -0.171914E-08  0.236E-04    2.27      61.8  T
     SCC iter.                  ...        0 min,  0.015 sec
     gradient                   ...        0 min,  0.005 sec
 * total energy  :   -74.3114493 Eh     change       -0.9757849E-05 Eh
   gradient norm :     0.0008133 Eh/α   predicted    -0.3887464E-05 ( -60.16%)
   displ. norm   :     0.1519576 α      lambda       -0.1301298E-04
   maximum displ.:     0.0768753 α      in ANC's #4, #3, #2, ...

........................................................................
.............................. CYCLE   28 ..............................
........................................................................

 iter      E             dE          RMSdq      gap      omega  full diag
   1    -75.3191436 -0.753191E+02  0.317E-02    2.27       0.0  T
   2    -75.3191437 -0.166889E-06  0.187E-02    2.26       1.0  T
   3    -75.3191437  0.751590E-07  0.176E-03    2.26       8.3  T
   4    -75.3191438 -0.132562E-06  0.556E-04    2.26      26.2  T
   5    -75.3191438 -0.366546E-08  0.293E-04    2.26      49.8  T
     SCC iter.                  ...        0 min,  0.014 sec
     gradient                   ...        0 min,  0.006 sec
 * total energy  :   -74.3114633 Eh     change       -0.1402216E-04 Eh
   gradient norm :     0.0008717 Eh/α   predicted    -0.6574876E-05 ( -53.11%)
   displ. norm   :     0.1426028 α      lambda       -0.8706577E-05
   maximum displ.:     0.0722696 α      in ANC's #4, #3, #2, ...

........................................................................
.............................. CYCLE   29 ..............................
........................................................................

 iter      E             dE          RMSdq      gap      omega  full diag
   1    -75.3189781 -0.753190E+02  0.302E-02    2.26       0.0  T
   2    -75.3189782 -0.138722E-06  0.178E-02    2.26       1.0  T
   3    -75.3189780  0.227545E-06  0.239E-03    2.26       6.1  T
   4    -75.3189783 -0.283585E-06  0.593E-04    2.26      24.6  T
   5    -75.3189783 -0.712092E-08  0.330E-04    2.26      44.2  T
     SCC iter.                  ...        0 min,  0.014 sec
     gradient                   ...        0 min,  0.006 sec
 * total energy  :   -74.3114718 Eh     change       -0.8427051E-05 Eh
   gradient norm :     0.0012270 Eh/α   predicted    -0.4393756E-05 ( -47.86%)
   displ. norm   :     0.1098203 α      lambda       -0.6055350E-05
   maximum displ.:     0.0559850 α      in ANC's #4, #3, #2, ...

........................................................................
.............................. CYCLE   30 ..............................
........................................................................

 iter      E             dE          RMSdq      gap      omega  full diag
   1    -75.3190928 -0.753191E+02  0.243E-02    2.26       0.0  T
   2    -75.3190929 -0.707053E-07  0.143E-02    2.26       1.0  T
   3    -75.3190925  0.351557E-06  0.298E-03    2.26       4.9  T
   4    -75.3190929 -0.407795E-06  0.489E-04    2.26      29.8  T
   5    -75.3190929 -0.347303E-08  0.294E-04    2.26      49.7  T
     SCC iter.                  ...        0 min,  0.015 sec
     gradient                   ...        0 min,  0.005 sec
 * total energy  :   -74.3114781 Eh     change       -0.6354709E-05 Eh
   gradient norm :     0.0008711 Eh/α   predicted    -0.3047762E-05 ( -52.04%)
   displ. norm   :     0.0902522 α      lambda       -0.4695711E-05
   maximum displ.:     0.0477721 α      in ANC's #3, #4, #2, ...

........................................................................
.............................. CYCLE   31 ..............................
........................................................................

 iter      E             dE          RMSdq      gap      omega  full diag
   1    -75.3192757 -0.753193E+02  0.212E-02    2.26       0.0  T
   2    -75.3192758 -0.790677E-07  0.125E-02    2.26       1.2  T
   3    -75.3192754  0.397814E-06  0.313E-03    2.26       4.7  T
   4    -75.3192759 -0.455433E-06  0.500E-04    2.26      29.1  T
   5    -75.3192759 -0.441260E-08  0.280E-04    2.26      52.1  T
     SCC iter.                  ...        0 min,  0.014 sec
     gradient                   ...        0 min,  0.006 sec
 * total energy  :   -74.3114835 Eh     change       -0.5328325E-05 Eh
   gradient norm :     0.0004315 Eh/α   predicted    -0.2358080E-05 ( -55.74%)
   displ. norm   :     0.0863216 α      lambda       -0.4101043E-05
   maximum displ.:     0.0470565 α      in ANC's #3, #4, #6, ...

........................................................................
.............................. CYCLE   32 ..............................
........................................................................

 iter      E             dE          RMSdq      gap      omega  full diag
   1    -75.3193192 -0.753193E+02  0.215E-02    2.26       0.0  T
   2    -75.3193193 -0.851738E-07  0.127E-02    2.26       1.1  T
   3    -75.3193188  0.447058E-06  0.325E-03    2.26       4.5  T
   4    -75.3193193 -0.510924E-06  0.522E-04    2.26      27.9  T
   5    -75.3193193 -0.406146E-08  0.299E-04    2.26      48.7  T
     SCC iter.                  ...        0 min,  0.015 sec
     gradient                   ...        0 min,  0.006 sec
 * total energy  :   -74.3114880 Eh     change       -0.4530059E-05 Eh
   gradient norm :     0.0005328 Eh/α   predicted    -0.2058347E-05 ( -54.56%)
   displ. norm   :     0.0752968 α      lambda       -0.3297501E-05
   maximum displ.:     0.0407126 α      in ANC's #3, #4, #6, ...

   *** GEOMETRY OPTIMIZATION CONVERGED AFTER 32 ITERATIONS ***

------------------------------------------------------------------------
 total energy gain   :        -0.0316681 Eh      -19.8721 kcal/mol
 total RMSD          :         0.4708773 a0        0.2492 Å
 total power (kW/mol):        -2.5982722 (step)  -77.4223 (real)
------------------------------------------------------------------------

 ANCopt (total)                0 d,  0 h,  0 min,  1.074 sec
 optimizer setup                ...        0 min,  0.000 sec (  0.011%)
 model hessian                  ...        0 min,  0.053 sec (  4.963%)
 ANC generation                 ...        0 min,  0.006 sec (  0.531%)
 coordinate transformation      ...        0 min,  0.001 sec (  0.073%)
 single point calculation       ...        0 min,  0.972 sec ( 90.544%)
 optimization log               ...        0 min,  0.023 sec (  2.180%)
 hessian update                 ...        0 min,  0.006 sec (  0.541%)
 rational function              ...        0 min,  0.006 sec (  0.538%)

================
 final structure:
================
47
 xtb: 6.7.1 (edcfbbe)
O            7.79312788696098       -2.69677385013522        0.83435714484905
C            7.27299901623312       -1.39295162045813        0.72107431493551
C            5.77061701608965       -1.51593860978112        0.48084971625568
O            5.25221541425339       -0.21084601256098        0.34499457257575
C            3.92304213558650       -0.05163880447041        0.13091200337804
C            3.48024448853881        1.27023605834216        0.00711123334089
C            2.15320763572654        1.55015813628922       -0.20929487069795
C            1.20715646576919        0.52144902169297       -0.31304563601269
C           -0.20265000737931        0.74690939627619       -0.53593645352998
C           -0.81328963144481        1.93871164916303       -0.64532790504531
C           -2.24071210632957        2.16899053471861       -0.84090029350311
C           -3.16165062531454        0.93433364238812       -1.04803830910669
O           -4.41046166608728        1.45191211230248       -1.44025821545929
C           -5.45004811546131        0.50120790347649       -1.51509422237602
O           -2.65915045741179        0.03703980800155       -2.01768263819586
C           -2.45297045889613        0.61707878417002       -3.28967043874004
C           -3.24770391846889        0.21883177697109        0.29178208908315
C           -2.99657569767384       -1.14068240383254        0.41365814822045
C           -3.09463682959668       -1.75397732043229        1.65029265065589
C           -3.44935371415799       -1.01768760102753        2.76765934834553
C           -3.71714600166463        0.33549466328897        2.64445081526064
C           -3.61867901921491        0.95404153475524        1.41125559509684
O           -2.71238779073538        3.28399306460666       -0.79918468997320
C            1.66402808907897       -0.79340519416063       -0.18924395204879
C            2.99531900309833       -1.08559631334793        0.02890701817518
H            8.74259967025743       -2.64375500875041        0.98380625986911
H            7.44440817509476       -0.81464692091444        1.63866462531324
H            7.72726536873821       -0.85402644309933       -0.12093963685819
H            5.31233680661706       -2.03729522674573        1.33048351713242
H            5.60099022653970       -2.10530716778257       -0.42899205904989
H            4.21120329752736        2.05933242769365        0.08757711310975
H            1.84288515256414        2.57871271116507       -0.30056603437657
H           -0.79685266086482       -0.15181506962610       -0.61657722511180
H           -0.25476013142144        2.86214947009981       -0.56330031602391
H           -6.29433880846320        1.02268202580095       -1.96108262259182
H           -5.72665125251106        0.13322380751650       -0.52127506653629
H           -5.16531813313552       -0.34879719349609       -2.14301813749098
H           -3.33654128291257        1.17052042422653       -3.61684375277798
H           -2.26065117572747       -0.21136217851872       -3.96861525870131
H           -1.59167005494511        1.29345016763201       -3.27858313618898
H           -2.73454090761011       -1.71094383991226       -0.46405785826463
H           -2.89825687815936       -2.81249406375566        1.73926732836168
H           -3.52341867574727       -1.49877905490171        3.73183929948648
H           -4.00354530560001        0.91203342970828        3.51148209062605
H           -3.83601348084113        2.00637531917186        1.30504556469597
H            0.95425614275531       -1.60452445861875       -0.26509065197673
H            3.30207179634659       -2.11562851313221        0.11826193186217
 
 Bond Distances (Angstroems)
 ---------------------------
O1-C2=1.4083         O1-H26=0.9626        C2-O1=1.4083         C2-C3=1.5264         C2-H27=1.0981        C2-H28=1.0981        
C3-C2=1.5264         C3-O4=1.4108         C3-H29=1.0971        C3-H30=1.0972        O4-C3=1.4108         O4-C5=1.3557         
C5-O4=1.3557         C5-C6=1.3996         C5-C25=1.3929        C6-C5=1.3996         C6-C7=1.3734         C6-H31=1.0786        
C7-C6=1.3734         C7-C8=1.4014         C7-H32=1.0782        C8-C7=1.4014         C8-C9=1.4450         C8-C24=1.3975        
C9-C8=1.4450         C9-C10=1.3436        C9-H33=1.0804        C10-C9=1.3436        C10-C11=1.4590       C10-H34=1.0823       
C11-C10=1.4590       C11-C12=1.5542       C11-O23=1.2114       C12-C11=1.5542       C12-O13=1.4076       C12-O15=1.4135       
C12-C17=1.5213       O13-C12=1.4076       O13-C14=1.4107       C14-O13=1.4107       C14-H35=1.0880       C14-H36=1.0953       
C14-H37=1.0945       O15-C12=1.4135       O15-C16=1.4131       C16-O15=1.4131       C16-H38=1.0927       C16-H39=1.0882       
C16-H40=1.0952       C17-C12=1.5213       C17-C18=1.3879       C17-C22=1.3897       C18-C17=1.3879       C18-C19=1.3838       
C18-H41=1.0790       C19-C18=1.3838       C19-C20=1.3844       C19-H42=1.0802       C20-C19=1.3844       C20-C21=1.3849       
C20-H43=1.0801       C21-C20=1.3849       C21-C22=1.3831       C21-H44=1.0799       C22-C17=1.3897       C22-C21=1.3831       
C22-H45=1.0798       O23-C11=1.2114       C24-C8=1.3975        C24-C25=1.3803       C24-H46=1.0805       C25-C5=1.3929        
C25-C24=1.3803       C25-H47=1.0784       H26-O1=0.9626        H27-C2=1.0981        H28-C2=1.0981        H29-C3=1.0971        
H30-C3=1.0972        H31-C6=1.0786        H32-C7=1.0782        H33-C9=1.0804        H34-C10=1.0823       H35-C14=1.0880       
H36-C14=1.0953       H37-C14=1.0945       H38-C16=1.0927       H39-C16=1.0882       H40-C16=1.0952       H41-C18=1.0790       
H42-C19=1.0802       H43-C20=1.0801       H44-C21=1.0799       H45-C22=1.0798       H46-C24=1.0805       H47-C25=1.0784       
 C  H  Rav=1.0868 sigma=0.0078  Rmin=1.0782  Rmax=1.0981    21
 C  C  Rav=1.4171 sigma=0.0579  Rmin=1.3436  Rmax=1.5542    18
 O  H  Rav=0.9626 sigma=0.0000  Rmin=0.9626  Rmax=0.9626     1
 O  C  Rav=1.3789 sigma=0.0658  Rmin=1.2114  Rmax=1.4135     8
 
 selected bond angles (degree)
 --------------------
H26-O1-C2=109.01               C3-C2-O1=107.55                H27-C2-O1=111.27               H27-C2-C3=109.12               
H28-C2-O1=111.30               H28-C2-C3=109.03               H28-C2-H27=108.52              O4-C3-C2=107.59                
H29-C3-C2=109.12               H29-C3-O4=111.14               H30-C3-C2=109.02               H30-C3-O4=111.11               
H30-C3-H29=108.80              C5-O4-C3=118.95                C6-C5-O4=115.79                C25-C5-O4=125.27               
C25-C5-C6=118.94               C7-C6-C5=120.81                H31-C6-C5=118.03               H31-C6-C7=121.16               
C8-C7-C6=120.95                H32-C7-C6=119.07               H32-C7-C8=119.98               C9-C8-C7=123.75                
C24-C8-C7=117.61               C24-C8-C9=118.65               C10-C9-C8=126.47               H33-C9-C8=114.73               
H33-C9-C10=118.80              C11-C10-C9=126.55              H34-C10-C9=121.07              H34-C10-C11=112.36             
 
 selected dihedral angles (degree)
 ---------------------------------
C3-C2-O1-H26=179.82           H27-C2-O1-H26=299.28          H28-C2-O1-H26= 60.45          O4-C3-C2-O1=180.96            
O4-C3-C2-H27= 60.14           O4-C3-C2-H28=301.76           H29-C3-C2-O1= 60.27           H29-C3-C2-H27=299.45          
H29-C3-C2-H28=181.08          H30-C3-C2-O1=301.56           H30-C3-C2-H27=180.74          H30-C3-C2-H28= 62.37          
C5-O4-C3-C2=180.43            C5-O4-C3-H29=299.84           C5-O4-C3-H30= 61.15           C6-C5-O4-C3=179.96            
C25-C5-O4-C3=359.96           C7-C6-C5-O4=180.11            C7-C6-C5-C25=  0.11           H31-C6-C5-O4=  0.06           
H31-C6-C5-C25=180.06          C8-C7-C6-C5=359.95            C8-C7-C6-H31=180.00           H32-C7-C6-C5=180.01           
H32-C7-C6-H31=  0.07          C9-C8-C7-C6=179.81            C9-C8-C7-H32=359.75           C24-C8-C7-C6=359.96           
C24-C8-C7-H32=179.90          C10-C9-C8-C7=358.45           C10-C9-C8-C24=178.29          H33-C9-C8-C7=178.54           
H33-C9-C8-C24=358.39          C11-C10-C9-C8=181.46          C11-C10-C9-H33=  1.36         H34-C10-C9-C8=359.66          
H34-C10-C9-H33=179.56         
           -------------------------------------------------
          |                Final Singlepoint                |
           -------------------------------------------------

          ...................................................
          :                      SETUP                      :
          :.................................................:
          :  # basis functions                 122          :
          :  # atomic orbitals                 122          :
          :  # shells                           72          :
          :  # electrons                       132          :
          :  max. iterations                   250          :
          :  Hamiltonian                  GFN2-xTB          :
          :  restarted?                      false          :
          :  GBSA solvation                  false          :
          :  PC potential                    false          :
          :  electronic temp.          300.0000000     K    :
          :  accuracy                    1.0000000          :
          :  -> integral cutoff          0.2500000E+02      :
          :  -> integral neglect         0.1000000E-07      :
          :  -> SCF convergence          0.1000000E-05 Eh   :
          :  -> wf. convergence          0.1000000E-03 e    :
          :  Broyden damping             0.4000000          :
          :  net charge                          0          :
          :  unpaired electrons                  0          :
          ...................................................

 iter      E             dE          RMSdq      gap      omega  full diag
   1    -75.3193193 -0.753193E+02  0.134E-04    2.26       0.0  T
   2    -75.3193193 -0.101991E-09  0.894E-05    2.26     163.1  T
   3    -75.3193193 -0.513154E-10  0.619E-05    2.26     235.6  T

   *** convergence criteria satisfied after 3 iterations ***

         #    Occupation            Energy/Eh            Energy/eV
      -------------------------------------------------------------
         1        2.0000           -0.7321955             -19.9241
       ...           ...                  ...                  ...
        60        2.0000           -0.4203525             -11.4384
        61        2.0000           -0.4202374             -11.4352
        62        2.0000           -0.4097616             -11.1502
        63        2.0000           -0.4087785             -11.1234
        64        2.0000           -0.4028228             -10.9614
        65        2.0000           -0.3855464             -10.4913
        66        2.0000           -0.3764976             -10.2450 (HOMO)
        67                         -0.2932994              -7.9811 (LUMO)
        68                         -0.2361781              -6.4267
        69                         -0.2311418              -6.2897
        70                         -0.2276381              -6.1943
        71                         -0.2186292              -5.9492
       ...                                ...                  ...
       122                          0.6982160              18.9994
      -------------------------------------------------------------
                  HL-Gap            0.0831982 Eh            2.2639 eV
             Fermi-level           -0.3348985 Eh           -9.1131 eV

 SCC (total)                   0 d,  0 h,  0 min,  0.018 sec
 SCC setup                      ...        0 min,  0.001 sec (  4.802%)
 Dispersion                     ...        0 min,  0.000 sec (  1.314%)
 classical contributions        ...        0 min,  0.000 sec (  0.875%)
 integral evaluation            ...        0 min,  0.001 sec (  7.338%)
 iterations                     ...        0 min,  0.009 sec ( 47.034%)
 molecular gradient             ...        0 min,  0.006 sec ( 31.614%)
 printout                       ...        0 min,  0.001 sec (  6.882%)

         :::::::::::::::::::::::::::::::::::::::::::::::::::::
         ::                     SUMMARY                     ::
         :::::::::::::::::::::::::::::::::::::::::::::::::::::
         :: total energy             -74.311487991028 Eh    ::
         :: gradient norm              0.000531682290 Eh/a0 ::
         :: HOMO-LUMO gap              2.263939182829 eV    ::
         ::.................................................::
         :: SCC energy               -75.318834324063 Eh    ::
         :: -> isotropic ES            0.102439491636 Eh    ::
         :: -> anisotropic ES          0.003206582193 Eh    ::
         :: -> anisotropic XC          0.020533449549 Eh    ::
         :: -> dispersion             -0.049250122422 Eh    ::
         :: repulsion energy           1.007346333035 Eh    ::
         :: add. restraining           0.000000000000 Eh    ::
         :: total charge              -0.000000000000 e     ::
         :::::::::::::::::::::::::::::::::::::::::::::::::::::

           -------------------------------------------------
          |                Property Printout                |
           -------------------------------------------------

    * Orbital Energies and Occupations

         #    Occupation            Energy/Eh            Energy/eV
      -------------------------------------------------------------
         1        2.0000           -0.7321955             -19.9241
       ...           ...                  ...                  ...
        54        2.0000           -0.4479264             -12.1887
        55        2.0000           -0.4342366             -11.8162
        56        2.0000           -0.4325461             -11.7702
        57        2.0000           -0.4303871             -11.7114
        58        2.0000           -0.4280380             -11.6475
        59        2.0000           -0.4256434             -11.5823
        60        2.0000           -0.4203525             -11.4384
        61        2.0000           -0.4202374             -11.4352
        62        2.0000           -0.4097616             -11.1502
        63        2.0000           -0.4087785             -11.1234
        64        2.0000           -0.4028228             -10.9614
        65        2.0000           -0.3855464             -10.4913
        66        2.0000           -0.3764976             -10.2450 (HOMO)
        67                         -0.2932994              -7.9811 (LUMO)
        68                         -0.2361781              -6.4267
        69                         -0.2311418              -6.2897
        70                         -0.2276381              -6.1943
        71                         -0.2186292              -5.9492
        72                         -0.1609130              -4.3787
        73                         -0.1003147              -2.7297
        74                         -0.0878981              -2.3918
        75                         -0.0168913              -0.4596
        76                          0.0114611               0.3119
        77                          0.0313716               0.8537
       ...                                ...                  ...
       122                          0.6982160              18.9994
      -------------------------------------------------------------
                  HL-Gap            0.0831982 Eh            2.2639 eV
             Fermi-level           -0.3348985 Eh           -9.1131 eV

     #   Z          covCN         q      C6AA      α(0)
     1   8 O        1.656    -0.439    21.629     6.278
     2   6 C        3.673     0.080    19.468     6.323
     3   6 C        3.694     0.078    19.449     6.310
     4   8 O        1.706    -0.267    18.434     5.797
     5   6 C        2.866     0.151    24.719     8.150
     6   6 C        2.917    -0.052    29.298     8.876
     7   6 C        2.922    -0.028    28.700     8.785
     8   6 C        2.969     0.006    27.880     8.661
     9   6 C        2.901    -0.018    28.461     8.747
    10   6 C        2.892    -0.068    29.682     8.932
    11   6 C        2.818     0.210    23.548     7.951
    12   6 C        3.701     0.248    16.915     5.881
    13   8 O        1.702    -0.316    19.271     5.927
    14   6 C        3.645     0.047    20.120     6.447
    15   8 O        1.700    -0.336    19.634     5.982
    16   6 C        3.646     0.045    20.140     6.449
    17   6 C        2.976    -0.010    28.252     8.719
    18   6 C        2.921    -0.031    28.777     8.797
    19   6 C        2.920    -0.030    28.742     8.792
    20   6 C        2.920    -0.030    28.749     8.793
    21   6 C        2.920    -0.028    28.694     8.784
    22   6 C        2.923    -0.033    28.811     8.802
    23   8 O        0.858    -0.344    20.599     6.085
    24   6 C        2.930    -0.029    28.737     8.791
    25   6 C        2.913    -0.065    29.630     8.926
    26   1 H        0.805     0.298     0.726     1.339
    27   1 H        0.923     0.037     2.489     2.467
    28   1 H        0.923     0.037     2.483     2.464
    29   1 H        0.924     0.049     2.327     2.386
    30   1 H        0.924     0.050     2.319     2.382
    31   1 H        0.926     0.055     2.259     2.350
    32   1 H        0.926     0.051     2.306     2.375
    33   1 H        0.926     0.065     2.137     2.286
    34   1 H        0.925     0.063     2.169     2.303
    35   1 H        0.925     0.060     2.201     2.320
    36   1 H        0.924     0.029     2.601     2.522
    37   1 H        0.924     0.038     2.472     2.459
    38   1 H        0.924     0.049     2.328     2.386
    39   1 H        0.925     0.056     2.249     2.345
    40   1 H        0.924     0.027     2.629     2.536
    41   1 H        0.926     0.049     2.334     2.389
    42   1 H        0.926     0.036     2.509     2.477
    43   1 H        0.926     0.036     2.508     2.476
    44   1 H        0.926     0.038     2.471     2.458
    45   1 H        0.926     0.048     2.344     2.394
    46   1 H        0.926     0.045     2.382     2.413
    47   1 H        0.926     0.042     2.426     2.436

 Mol. C6AA /au·bohr⁶  :      24542.213817
 Mol. C8AA /au·bohr⁸  :     577420.537911
 Mol. α(0) /au        :        243.948472


Wiberg/Mayer (AO) data.
largest (>0.10) Wiberg bond orders for each atom

 ---------------------------------------------------------------------------
     #   Z sym  total        # sym  WBO       # sym  WBO       # sym  WBO
 ---------------------------------------------------------------------------
     1   8 O    1.951 --     2 C    1.002    26 H    0.898
     2   6 C    3.958 --     1 O    1.002     3 C    0.996    27 H    0.970
                            28 H    0.970
     3   6 C    3.943 --     2 C    0.996     4 O    0.970    29 H    0.966
                            30 H    0.966
     4   8 O    2.235 --     5 C    1.077     3 C    0.970
     5   6 C    3.920 --    25 C    1.357     6 C    1.325     4 O    1.077
     6   6 C    3.986 --     7 C    1.507     5 C    1.325    31 H    0.967
     7   6 C    3.989 --     6 C    1.507     8 C    1.332    32 H    0.964
     8   6 C    3.990 --    24 C    1.358     7 C    1.332     9 C    1.135
     9   6 C    3.980 --    10 C    1.732     8 C    1.135    33 H    0.953
    10   6 C    3.977 --     9 C    1.732    11 C    1.090    34 H    0.955
    11   6 C    3.925 --    23 O    1.809    10 C    1.090    12 C    0.900
    12   6 C    3.923 --    13 O    0.970    15 O    0.959    17 C    0.948
                            11 C    0.900
    13   8 O    2.094 --    14 C    0.985    12 C    0.970
    14   6 C    3.948 --    13 O    0.985    35 H    0.980    37 H    0.979
                            36 H    0.978
    15   8 O    2.080 --    16 C    0.982    12 C    0.959
    16   6 C    3.946 --    15 O    0.982    39 H    0.981    38 H    0.979
                            40 H    0.977
    17   6 C    3.984 --    18 C    1.413    22 C    1.410    12 C    0.948
                            20 C    0.109
    18   6 C    3.991 --    19 C    1.441    17 C    1.413    41 H    0.965
                            21 C    0.111
    19   6 C    3.991 --    18 C    1.441    20 C    1.440    42 H    0.970
                            22 C    0.111
    20   6 C    3.990 --    19 C    1.440    21 C    1.437    43 H    0.971
                            17 C    0.109
    21   6 C    3.992 --    22 C    1.447    20 C    1.437    44 H    0.971
                            18 C    0.111
    22   6 C    3.990 --    21 C    1.447    17 C    1.410    45 H    0.968
                            19 C    0.111
    23   8 O    2.055 --    11 C    1.809
    24   6 C    3.979 --    25 C    1.468     8 C    1.358    46 H    0.968
    25   6 C    3.986 --    24 C    1.468     5 C    1.357    47 H    0.965
    26   1 H    0.911 --     1 O    0.898
    27   1 H    0.999 --     2 C    0.970
    28   1 H    0.999 --     2 C    0.970
    29   1 H    0.997 --     3 C    0.966
    30   1 H    0.997 --     3 C    0.966
    31   1 H    0.996 --     6 C    0.967
    32   1 H    0.997 --     7 C    0.964
    33   1 H    0.995 --     9 C    0.953
    34   1 H    0.995 --    10 C    0.955
    35   1 H    0.996 --    14 C    0.980
    36   1 H    0.999 --    14 C    0.978
    37   1 H    0.999 --    14 C    0.979
    38   1 H    0.998 --    16 C    0.979
    39   1 H    0.996 --    16 C    0.981
    40   1 H    0.999 --    16 C    0.977
    41   1 H    0.998 --    18 C    0.965
    42   1 H    0.998 --    19 C    0.970
    43   1 H    0.998 --    20 C    0.971
    44   1 H    0.998 --    21 C    0.971
    45   1 H    0.998 --    22 C    0.968
    46   1 H    0.998 --    24 C    0.968
    47   1 H    0.998 --    25 C    0.965
 ---------------------------------------------------------------------------

Topologies differ in total number of bonds
Writing topology from bond orders to xtbtopo.mol

molecular dipole:
                 x           y           z       tot (Debye)
 q only:        1.691      -1.352       0.319
   full:        1.883      -1.490       0.294       6.148
molecular quadrupole (traceless):
                xx          xy          yy          xz          yz          zz
 q only:       19.177      13.210     -19.450       0.291       2.337       0.273
  q+dip:       22.068      15.960     -21.249       1.054       3.073      -0.818
   full:       23.316      16.222     -24.506       1.031       2.897       1.190

           -------------------------------------------------
          |                Geometry Summary                 |
           -------------------------------------------------

      molecular mass/u    :      342.3864391
   center of mass at/Å    :       -0.0492462       0.1782593      -0.0862108
  moments of inertia/u·Å² :        0.1139013E+04   0.5993895E+04   0.6427621E+04
rotational constants/cm⁻¹ :        0.1480021E-01   0.2812467E-02   0.2622686E-02

 * 44 selected distances

     #   Z          #   Z                                           value/Å
     1   8 O        2   6 C                                       1.4083039
     2   6 C        3   6 C                                       1.5264291 (max)
     3   6 C        4   8 O                                       1.4108380
     4   8 O        5   6 C                                       1.3556844
     5   6 C        6   6 C                                       1.3995535
     6   6 C        7   6 C                                       1.3733955
     7   6 C        8   6 C                                       1.4014349
     9   6 C       10   6 C                                       1.3435923
    12   6 C       13   8 O                                       1.4075700
    13   8 O       14   6 C                                       1.4107371
    12   6 C       15   8 O                                       1.4134543
    15   8 O       16   6 C                                       1.4131202
    17   6 C       18   6 C                                       1.3878755
    18   6 C       19   6 C                                       1.3838395
    19   6 C       20   6 C                                       1.3843610
    20   6 C       21   6 C                                       1.3849172
    17   6 C       22   6 C                                       1.3897400
    21   6 C       22   6 C                                       1.3831366
    11   6 C       23   8 O                                       1.2113831
     8   6 C       24   6 C                                       1.3974622
     5   6 C       25   6 C                                       1.3928904
    24   6 C       25   6 C                                       1.3803265
     1   8 O       26   1 H                                       0.9626229 (min)
     2   6 C       27   1 H                                       1.0980845
     2   6 C       28   1 H                                       1.0980829
     3   6 C       29   1 H                                       1.0971378
     3   6 C       30   1 H                                       1.0972424
     6   6 C       31   1 H                                       1.0786329
     7   6 C       32   1 H                                       1.0782185
     9   6 C       33   1 H                                       1.0804099
    10   6 C       34   1 H                                       1.0823222
    14   6 C       35   1 H                                       1.0879650
    14   6 C       36   1 H                                       1.0952618
    14   6 C       37   1 H                                       1.0944718
    16   6 C       38   1 H                                       1.0927203
    16   6 C       39   1 H                                       1.0882405
    16   6 C       40   1 H                                       1.0951894
    18   6 C       41   1 H                                       1.0790023
    19   6 C       42   1 H                                       1.0802497
    20   6 C       43   1 H                                       1.0800823
    21   6 C       44   1 H                                       1.0798912
    22   6 C       45   1 H                                       1.0797784
    24   6 C       46   1 H                                       1.0804830
    25   6 C       47   1 H                                       1.0784471

 * 4 distinct bonds (by element types)

   Z      Z             #   av. dist./Å        max./Å        min./Å
   1 H    6 C          21     1.0867578     1.0980845     1.0782185
   6 C    6 C          14     1.3949253     1.5264291     1.3435923
   1 H    8 O           1     0.9626229     0.9626229     0.9626229
   6 C    8 O           8     1.3788864     1.4134543     1.2113831


optimized geometry written to: xtbopt.xyz


           -------------------------------------------------
          | TOTAL ENERGY              -74.311487991028 Eh   |
          | GRADIENT NORM               0.000531682290 Eh/α |
          | HOMO-LUMO GAP               2.263939182829 eV   |
           -------------------------------------------------

------------------------------------------------------------------------
 * finished run on 2025/12/01 at 14:17:46.239     
------------------------------------------------------------------------
 total:
 * wall-time:     0 d,  0 h,  0 min,  1.159 sec
 *  cpu-time:     0 d,  0 h,  0 min, 26.239 sec
 * ratio c/w:    22.638 speedup
 SCF:
 * wall-time:     0 d,  0 h,  0 min,  0.053 sec
 *  cpu-time:     0 d,  0 h,  0 min,  1.234 sec
 * ratio c/w:    23.294 speedup
 ANC optimizer:
 * wall-time:     0 d,  0 h,  0 min,  1.093 sec
 *  cpu-time:     0 d,  0 h,  0 min, 24.807 sec
 * ratio c/w:    22.688 speedup

normal termination of xtb
