      -----------------------------------------------------------      
     |                   =====================                   |     
     |                           x T B                           |     
     |                   =====================                   |     
     |                         S. Grimme                         |     
     |          Mulliken Center for Theoretical Chemistry        |     
     |                    University of Bonn                     |     
      -----------------------------------------------------------      

   * xtb version 6.7.1 (edcfbbe) compiled by 'albert@albert-system' on 2024-07-22

   xtb is free software: you can redistribute it and/or modify it under
   the terms of the GNU Lesser General Public License as published by
   the Free Software Foundation, either version 3 of the License, or
   (at your option) any later version.
   
   xtb is distributed in the hope that it will be useful,
   but WITHOUT ANY WARRANTY; without even the implied warranty of
   MERCHANTABILITY or FITNESS FOR A PARTICULAR PURPOSE.  See the
   GNU Lesser General Public License for more details.
   
   Cite this work as:
   * C. Bannwarth, E. Caldeweyher, S. Ehlert, A. Hansen, P. Pracht,
     J. Seibert, S. Spicher, S. Grimme, WIREs Comput. Mol. Sci., 2020, 11,
     e01493. DOI: 10.1002/wcms.1493
   
   for GFN2-xTB:
   * C. Bannwarth, S. Ehlert and S. Grimme., J. Chem. Theory Comput., 2019,
     15, 1652-1671. DOI: 10.1021/acs.jctc.8b01176
   for GFN1-xTB:
   * S. Grimme, C. Bannwarth, P. Shushkov, J. Chem. Theory Comput., 2017,
     13, 1989-2009. DOI: 10.1021/acs.jctc.7b00118
   for GFN0-xTB:
   * P. Pracht, E. Caldeweyher, S. Ehlert, S. Grimme, ChemRxiv, 2019, preprint.
     DOI: 10.26434/chemrxiv.8326202.v1
   for GFN-FF:
   * S. Spicher and S. Grimme, Angew. Chem. Int. Ed., 2020, 59, 15665-15673.
     DOI: 10.1002/anie.202004239
   
   for ALPB and GBSA implicit solvation:
   * S. Ehlert, M. Stahn, S. Spicher, S. Grimme, J. Chem. Theory Comput.,
     2021, 17, 4250-4261. DOI: 10.1021/acs.jctc.1c00471
   
   for ddCOSMO and CPCM-X implicit solvation:
   * M. Stahn, S. Ehlert, S. Grimme, J. Phys. Chem. A,
     2023, XX, XXXX-XXXX. DOI: 10.1021/acs.jpca.3c04382
   
   for DFT-D4:
   * E. Caldeweyher, C. Bannwarth and S. Grimme, J. Chem. Phys., 2017,
     147, 034112. DOI: 10.1063/1.4993215
   * E. Caldeweyher, S. Ehlert, A. Hansen, H. Neugebauer, S. Spicher,
     C. Bannwarth and S. Grimme, J. Chem. Phys., 2019, 150, 154122.
     DOI: 10.1063/1.5090222
   * E. Caldeweyher, J.-M. Mewes, S. Ehlert and S. Grimme, Phys. Chem. Chem. Phys.
     2020, 22, 8499-8512. DOI: 10.1039/D0CP00502A
   
   for sTDA-xTB:
   * S. Grimme and C. Bannwarth, J. Chem. Phys., 2016, 145, 054103.
     DOI: 10.1063/1.4959605
   
   in the mass-spec context:
   * V. Asgeirsson, C. Bauer and S. Grimme, Chem. Sci., 2017, 8, 4879.
     DOI: 10.1039/c7sc00601b
   * J. Koopman and S. Grimme, ACS Omega 2019, 4, 12, 15120-15133.
     DOI: 10.1021/acsomega.9b02011
   
   for metadynamics refer to:
   * S. Grimme, J. Chem. Theory Comput., 2019, 155, 2847-2862
     DOI: 10.1021/acs.jctc.9b00143
   
   for SPH calculations refer to:
   * S. Spicher and S. Grimme, J. Chem. Theory Comput., 2021, 17, 1701-1714
     DOI: 10.1021/acs.jctc.0c01306
   
   for ONIOM refer to:
   * C. Plett, A. Katbashev, S. Ehlert, S. Grimme, M. Bursch,
     Phys. Chem. Chem. Phys., 2023, 25, 17860-17868. DOI: 10.1039/D3CP02178E
   
   for DIPRO refer to:
   * J. Kohn, N. Gildemeister, S. Grimme, D. Fazzi, A. Hansen,
     J. Chem. Phys., 2023, just accepted.
   
   for PTB refer to:
   * S. Grimme, M. Mueller, A. Hansen, J. Chem. Phys., 2023, 158, 124111.
     DOI: 10.1063/5.0137838
   
   with help from (in alphabetical order)
   P. Atkinson, C. Bannwarth, F. Bohle, G. Brandenburg, E. Caldeweyher
   M. Checinski, S. Dohm, S. Ehlert, S. Ehrlich, I. Gerasimov, C. Hölzer
   A. Katbashev, J. Kohn, J. Koopman, C. Lavigne, S. Lehtola, F. März, M. Müller,
   F. Musil, H. Neugebauer, J. Pisarek, C. Plett, P. Pracht, F. Pultar,
   J. Seibert, P. Shushkov, S. Spicher, M. Stahn, M. Steiner, T. Strunk,
   J. Stückrath, T. Rose, and J. Unsleber
   
 * started run on 2025/12/01 at 14:17:49.606     
   ID    Z sym.   atoms
    1    8 O      1, 3
    2    6 C      2, 4-7
    3    1 H      8-15

           -------------------------------------------------
          |                Calculation Setup                |
           -------------------------------------------------

          program call               : xtb pipeline_data/3_conformer_xyz/acrylates/rdkit/JIGUQPWFLRLWPJ-UHFFFAOYSA-N_conf118.xyz --opt --gfn 2-xTB --iterations 250
          coordinate file            : pipeline_data/3_conformer_xyz/acrylates/rdkit/JIGUQPWFLRLWPJ-UHFFFAOYSA-N_conf118.xyz
          omp threads                :                    24

########################################################################
[WARNING] Please study the warnings concerning your input carefully
-1- readin_getIntValue: could not parse '2-xTB'
########################################################################

           -------------------------------------------------
          |                 G F N 2 - x T B                 |
           -------------------------------------------------

        Reference                      10.1021/acs.jctc.8b01176
      * Hamiltonian:
        H0-scaling (s, p, d)           1.850000    2.230000    2.230000
        zeta-weighting                 0.500000
      * Dispersion:
        s8                             2.700000
        a1                             0.520000
        a2                             5.000000
        s9                             5.000000
      * Repulsion:
        kExp                           1.500000    1.000000
        rExp                           1.000000
      * Coulomb:
        alpha                          2.000000
        third order                    shell-resolved
        anisotropic                    true
        a3                             3.000000
        a5                             4.000000
        cn-shift                       1.200000
        cn-exp                         4.000000
        max-rad                        5.000000

q/qsh data taken from xtbrestart
CAMM data taken from xtbrestart

          ...................................................
          :                      SETUP                      :
          :.................................................:
          :  # basis functions                  36          :
          :  # atomic orbitals                  36          :
          :  # shells                           22          :
          :  # electrons                        40          :
          :  max. iterations                   250          :
          :  Hamiltonian                  GFN2-xTB          :
          :  restarted?                       true          :
          :  GBSA solvation                  false          :
          :  PC potential                    false          :
          :  electronic temp.          300.0000000     K    :
          :  accuracy                    1.0000000          :
          :  -> integral cutoff          0.2500000E+02      :
          :  -> integral neglect         0.1000000E-07      :
          :  -> SCF convergence          0.1000000E-05 Eh   :
          :  -> wf. convergence          0.1000000E-03 e    :
          :  Broyden damping             0.4000000          :
          :  net charge                          0          :
          :  unpaired electrons                  0          :
          ...................................................

 iter      E             dE          RMSdq      gap      omega  full diag
   1    -23.1246012 -0.231246E+02  0.340E+00    3.37       0.0  T
   2    -23.1265987 -0.199758E-02  0.202E+00    3.39       1.0  T
   3    -23.1249482  0.165053E-02  0.471E-01    3.25       1.0  T
   4    -23.1272609 -0.231265E-02  0.159E-01    3.38       1.0  T
   5    -23.1273708 -0.109939E-03  0.767E-02    3.38       1.0  T
   6    -23.1273814 -0.105736E-04  0.318E-02    3.37       1.0  T
   7    -23.1273873 -0.595065E-05  0.934E-03    3.38       2.8  T
   8    -23.1273875 -0.189550E-06  0.376E-03    3.38       6.9  T
   9    -23.1273875 -0.254402E-07  0.132E-03    3.38      19.6  T
  10    -23.1273875 -0.212497E-08  0.432E-04    3.38      59.8  T
  11    -23.1273875 -0.373632E-09  0.156E-04    3.38     165.1  T

   *** convergence criteria satisfied after 11 iterations ***

         #    Occupation            Energy/Eh            Energy/eV
      -------------------------------------------------------------
         1        2.0000           -0.7276843             -19.8013
       ...           ...                  ...                  ...
        14        2.0000           -0.4787999             -13.0288
        15        2.0000           -0.4730834             -12.8733
        16        2.0000           -0.4664094             -12.6916
        17        2.0000           -0.4616216             -12.5614
        18        2.0000           -0.4437494             -12.0750
        19        2.0000           -0.4347890             -11.8312
        20        2.0000           -0.4145268             -11.2798 (HOMO)
        21                         -0.2904799              -7.9044 (LUMO)
        22                         -0.1769180              -4.8142
        23                         -0.0292866              -0.7969
        24                          0.0788316               2.1451
        25                          0.1095821               2.9819
       ...                                ...                  ...
        36                          0.6091117              16.5748
      -------------------------------------------------------------
                  HL-Gap            0.1240469 Eh            3.3755 eV
             Fermi-level           -0.3525034 Eh           -9.5921 eV

 SCC (total)                   0 d,  0 h,  0 min,  0.011 sec
 SCC setup                      ...        0 min,  0.000 sec (  1.960%)
 Dispersion                     ...        0 min,  0.001 sec (  4.533%)
 classical contributions        ...        0 min,  0.000 sec (  0.400%)
 integral evaluation            ...        0 min,  0.000 sec (  4.292%)
 iterations                     ...        0 min,  0.009 sec ( 78.080%)
 molecular gradient             ...        0 min,  0.001 sec (  9.560%)
 printout                       ...        0 min,  0.000 sec (  0.949%)

         :::::::::::::::::::::::::::::::::::::::::::::::::::::
         ::                     SUMMARY                     ::
         :::::::::::::::::::::::::::::::::::::::::::::::::::::
         :: total energy             -22.877566481846 Eh    ::
         :: gradient norm              0.117545736044 Eh/a0 ::
         :: HOMO-LUMO gap              3.375487117579 eV    ::
         ::.................................................::
         :: SCC energy               -23.127372804299 Eh    ::
         :: -> isotropic ES            0.048206153813 Eh    ::
         :: -> anisotropic ES          0.000798683460 Eh    ::
         :: -> anisotropic XC          0.008339553585 Eh    ::
         :: -> dispersion             -0.008113488272 Eh    ::
         :: repulsion energy           0.249806322453 Eh    ::
         :: add. restraining           0.000000000000 Eh    ::
         :: total charge               0.000000000000 e     ::
         :::::::::::::::::::::::::::::::::::::::::::::::::::::

      ----------------------------------------------------------- 
     |                   =====================                   |
     |                        A N C O P T                        |
     |                   =====================                   |
     |               Approximate Normal Coordinate               |
     |                Rational Function Optimizer                |
      ----------------------------------------------------------- 
      ----------------------------------------------------------- 
     |                   =====================                   |
     |                        A N C O P T                        |
     |                   =====================                   |
     |               Approximate Normal Coordinate               |
     |                Rational Function Optimizer                |
      ----------------------------------------------------------- 

          ...................................................
          :                      SETUP                      :
          :.................................................:
          :   optimization level            normal          :
          :   max. optcycles                   200          :
          :   ANC micro-cycles                  20          :
          :   degrees of freedom                39          :
          :.................................................:
          :   RF solver                   davidson          :
          :   write xtbopt.log                true          :
          :   linear?                        false          :
          :   energy convergence         0.5000000E-05 Eh   :
          :   grad. convergence          0.1000000E-02 Eh/α :
          :   maxmium RF displ.          1.0000000          :
          :   Hlow (freq-cutoff)         0.1000000E-01      :
          :   Hmax (freq-cutoff)         5.0000000          :
          :   S6 in model hess.         20.0000000          :
          ...................................................

generating ANC from exact Hessian ...
Using Lindh-Hessian (1995)
 Shifting diagonal of input Hessian by   7.961486281004838E-003
 Lowest  eigenvalues of input Hessian
    0.000000    0.000000    0.000000    0.000000    0.000000    0.000000
    0.010000    0.011475    0.012087    0.016612    0.025376    0.025828
    0.026415    0.036302    0.045676    0.053171    0.055802    0.069161
 Highest eigenvalues
    1.205761    1.237374    1.427547    1.744871    1.859804    2.137311
 

........................................................................
.............................. CYCLE    1 ..............................
........................................................................

 iter      E             dE          RMSdq      gap      omega  full diag
   1    -23.1273875 -0.231274E+02  0.349E-05    3.38       0.0  T
   2    -23.1273875 -0.124700E-11  0.222E-05    3.38    1160.5  T
   3    -23.1273875  0.795808E-12  0.132E-05    3.38    1961.0  T
     SCC iter.                  ...        0 min,  0.002 sec
     gradient                   ...        0 min,  0.001 sec
 * total energy  :   -22.8775665 Eh     change       -0.3617018E-10 Eh
   gradient norm :     0.1175462 Eh/α   predicted     0.0000000E+00 (-100.00%)
   displ. norm   :     0.2860390 α      lambda       -0.1511005E-01
   maximum displ.:     0.1634661 α      in ANC's #8, #12, #6, ...

........................................................................
.............................. CYCLE    2 ..............................
........................................................................

 iter      E             dE          RMSdq      gap      omega  full diag
   1    -23.1580651 -0.231581E+02  0.338E-01    3.53       0.0  T
   2    -23.1582880 -0.222962E-03  0.211E-01    3.57       1.0  T
   3    -23.1582499  0.381749E-04  0.104E-01    3.58       1.0  T
   4    -23.1583075 -0.576421E-04  0.426E-02    3.59       1.0  T
   5    -23.1583256 -0.180955E-04  0.933E-03    3.58       2.8  T
   6    -23.1583262 -0.564248E-06  0.424E-03    3.58       6.1  T
   7    -23.1583262 -0.477934E-07  0.108E-03    3.58      24.0  T
   8    -23.1583262 -0.873275E-09  0.434E-04    3.58      59.4  T
   9    -23.1583262 -0.197097E-09  0.910E-05    3.58     283.7  T
     SCC iter.                  ...        0 min,  0.005 sec
     gradient                   ...        0 min,  0.001 sec
 * total energy  :   -22.8879579 Eh     change       -0.1039140E-01 Eh
   gradient norm :     0.0456650 Eh/α   predicted    -0.8173171E-02 ( -21.35%)
   displ. norm   :     0.2159547 α      lambda       -0.3991311E-02
   maximum displ.:     0.1350152 α      in ANC's #8, #14, #12, ...

........................................................................
.............................. CYCLE    3 ..............................
........................................................................

 iter      E             dE          RMSdq      gap      omega  full diag
   1    -23.1719164 -0.231719E+02  0.234E-01    3.68       0.0  T
   2    -23.1720009 -0.845667E-04  0.145E-01    3.70       1.0  T
   3    -23.1719901  0.108256E-04  0.564E-02    3.71       1.0  T
   4    -23.1720057 -0.156103E-04  0.225E-02    3.71       1.1  T
   5    -23.1720102 -0.452480E-05  0.776E-03    3.71       3.3  T
   6    -23.1720108 -0.565586E-06  0.233E-03    3.71      11.1  T
   7    -23.1720108 -0.131218E-07  0.522E-04    3.71      49.5  T
   8    -23.1720108 -0.252115E-09  0.227E-04    3.71     113.5  T
     SCC iter.                  ...        0 min,  0.005 sec
     gradient                   ...        0 min,  0.002 sec
 * total energy  :   -22.8900699 Eh     change       -0.2111985E-02 Eh
   gradient norm :     0.0152735 Eh/α   predicted    -0.2088723E-02 (  -1.10%)
   displ. norm   :     0.0584843 α      lambda       -0.2408045E-03
   maximum displ.:     0.0363046 α      in ANC's #3, #6, #7, ...

........................................................................
.............................. CYCLE    4 ..............................
........................................................................

 iter      E             dE          RMSdq      gap      omega  full diag
   1    -23.1708007 -0.231708E+02  0.518E-02    3.71       0.0  T
   2    -23.1708089 -0.822167E-05  0.312E-02    3.70       1.0  T
   3    -23.1708087  0.198584E-06  0.150E-02    3.71       1.7  T
   4    -23.1708083  0.380064E-06  0.875E-03    3.71       3.0  T
   5    -23.1708092 -0.882242E-06  0.836E-04    3.71      30.9  T
   6    -23.1708092 -0.190060E-08  0.383E-04    3.71      67.4  T
     SCC iter.                  ...        0 min,  0.004 sec
     gradient                   ...        0 min,  0.001 sec
 * total energy  :   -22.8902217 Eh     change       -0.1517940E-03 Eh
   gradient norm :     0.0063051 Eh/α   predicted    -0.1208157E-03 ( -20.41%)
   displ. norm   :     0.0659961 α      lambda       -0.9644384E-04
   maximum displ.:     0.0532649 α      in ANC's #3, #7, #4, ...

........................................................................
.............................. CYCLE    5 ..............................
........................................................................

 iter      E             dE          RMSdq      gap      omega  full diag
   1    -23.1700358 -0.231700E+02  0.411E-02    3.71       0.0  T
   2    -23.1700400 -0.420418E-05  0.231E-02    3.71       1.1  T
   3    -23.1700400 -0.439810E-07  0.984E-03    3.71       2.6  T
   4    -23.1700400 -0.146185E-07  0.187E-03    3.71      13.8  T
   5    -23.1700401 -0.298702E-07  0.697E-04    3.71      37.0  T
   6    -23.1700401 -0.376458E-08  0.309E-04    3.71      83.6  T
     SCC iter.                  ...        0 min,  0.004 sec
     gradient                   ...        0 min,  0.001 sec
 * total energy  :   -22.8902708 Eh     change       -0.4914152E-04 Eh
   gradient norm :     0.0027810 Eh/α   predicted    -0.4843077E-04 (  -1.45%)
   displ. norm   :     0.0499640 α      lambda       -0.3640735E-04
   maximum displ.:     0.0409174 α      in ANC's #3, #4, #2, ...

........................................................................
.............................. CYCLE    6 ..............................
........................................................................

 iter      E             dE          RMSdq      gap      omega  full diag
   1    -23.1700810 -0.231701E+02  0.215E-02    3.71       0.0  T
   2    -23.1700812 -0.281440E-06  0.124E-02    3.71       2.1  T
   3    -23.1700811  0.169788E-06  0.530E-03    3.71       4.9  T
   4    -23.1700813 -0.185587E-06  0.188E-03    3.71      13.8  T
   5    -23.1700813 -0.386747E-07  0.390E-04    3.71      66.1  T
   6    -23.1700813 -0.589679E-09  0.204E-04    3.71     126.6  T
     SCC iter.                  ...        0 min,  0.004 sec
     gradient                   ...        0 min,  0.001 sec
 * total energy  :   -22.8902917 Eh     change       -0.2091791E-04 Eh
   gradient norm :     0.0023064 Eh/α   predicted    -0.1824685E-04 ( -12.77%)
   displ. norm   :     0.0315294 α      lambda       -0.1286068E-04
   maximum displ.:     0.0232947 α      in ANC's #3, #4, #2, ...

........................................................................
.............................. CYCLE    7 ..............................
........................................................................

 iter      E             dE          RMSdq      gap      omega  full diag
   1    -23.1702729 -0.231703E+02  0.102E-02    3.71       0.0  T
   2    -23.1702729 -0.392673E-07  0.619E-03    3.71       4.2  T
   3    -23.1702729  0.702031E-07  0.265E-03    3.71       9.7  T
   4    -23.1702730 -0.780643E-07  0.558E-04    3.71      46.3  T
   5    -23.1702730 -0.304537E-08  0.158E-04    3.71     163.5  T
     SCC iter.                  ...        0 min,  0.003 sec
     gradient                   ...        0 min,  0.001 sec
 * total energy  :   -22.8903014 Eh     change       -0.9700354E-05 Eh
   gradient norm :     0.0014332 Eh/α   predicted    -0.6434923E-05 ( -33.66%)
   displ. norm   :     0.0678596 α      lambda       -0.1123889E-04
   maximum displ.:     0.0438943 α      in ANC's #3, #4, #2, ...

........................................................................
.............................. CYCLE    8 ..............................
........................................................................

 iter      E             dE          RMSdq      gap      omega  full diag
   1    -23.1705419 -0.231705E+02  0.213E-02    3.71       0.0  T
   2    -23.1705421 -0.110020E-06  0.128E-02    3.71       2.0  T
   3    -23.1705420  0.170685E-07  0.161E-03    3.71      16.0  T
   4    -23.1705421 -0.134159E-07  0.105E-03    3.71      24.7  T
   5    -23.1705421 -0.122435E-07  0.227E-04    3.71     113.5  T
   6    -23.1705421 -0.675158E-10  0.108E-04    3.71     240.1  T
     SCC iter.                  ...        0 min,  0.004 sec
     gradient                   ...        0 min,  0.001 sec
 * total energy  :   -22.8903096 Eh     change       -0.8160914E-05 Eh
   gradient norm :     0.0013487 Eh/α   predicted    -0.5629820E-05 ( -31.01%)
   displ. norm   :     0.0303725 α      lambda       -0.4073342E-05
   maximum displ.:     0.0175309 α      in ANC's #4, #2, #3, ...

........................................................................
.............................. CYCLE    9 ..............................
........................................................................

 iter      E             dE          RMSdq      gap      omega  full diag
   1    -23.1705193 -0.231705E+02  0.148E-02    3.71       0.0  T
   2    -23.1705194 -0.170050E-07  0.898E-03    3.71       2.9  T
   3    -23.1705193  0.469940E-07  0.206E-03    3.71      12.5  T
   4    -23.1705194 -0.536010E-07  0.367E-04    3.71      70.4  T
   5    -23.1705194 -0.863668E-09  0.163E-04    3.71     158.6  T
     SCC iter.                  ...        0 min,  0.003 sec
     gradient                   ...        0 min,  0.001 sec
 * total energy  :   -22.8903120 Eh     change       -0.2391028E-05 Eh
   gradient norm :     0.0007761 Eh/α   predicted    -0.2036791E-05 ( -14.82%)
   displ. norm   :     0.0186011 α      lambda       -0.3116067E-05
   maximum displ.:     0.0132651 α      in ANC's #2, #4, #7, ...

   *** GEOMETRY OPTIMIZATION CONVERGED AFTER 9 ITERATIONS ***

------------------------------------------------------------------------
 total energy gain   :        -0.0127455 Eh       -7.9979 kcal/mol
 total RMSD          :         0.1594965 a0        0.0844 Å
 total power (kW/mol):        -3.7181431 (step) -562.4647 (real)
------------------------------------------------------------------------

 ANCopt (total)                0 d,  0 h,  0 min,  0.060 sec
 optimizer setup                ...        0 min,  0.000 sec (  0.175%)
 model hessian                  ...        0 min,  0.002 sec (  3.000%)
 ANC generation                 ...        0 min,  0.000 sec (  0.534%)
 coordinate transformation      ...        0 min,  0.000 sec (  0.105%)
 single point calculation       ...        0 min,  0.054 sec ( 90.241%)
 optimization log               ...        0 min,  0.001 sec (  1.355%)
 hessian update                 ...        0 min,  0.001 sec (  1.382%)
 rational function              ...        0 min,  0.001 sec (  2.510%)

================
 final structure:
================
15
 xtb: 6.7.1 (edcfbbe)
O            0.32123575734537       -2.01428439058267       -1.07080664619634
C            0.73298657858597       -0.97356010179633       -0.61732847525454
O           -0.06543848482936       -0.02197181141859       -0.12090296839924
C           -1.46633605091921       -0.29588795171163       -0.15764500556202
C           -2.20334285639108        0.89592562692613        0.42303489719993
C            2.16803689563271       -0.61869217873531       -0.55416863620307
C            2.62810563016923        0.52380700095884       -0.06657808837637
H           -1.66362618787509       -1.20745795182513        0.41816344802584
H           -1.76191832751605       -0.48257925635504       -1.19629600487013
H           -1.97927218324090        1.79088042329502       -0.15109712185421
H           -3.27352946200126        0.71299718810438        0.39266493917270
H           -1.89929968078722        1.05861297577020        1.45374578522119
H            2.82059070051384       -1.38422639735927       -0.94819938419573
H            3.68203827073045        0.74443716892913       -0.03741688693655
H            1.95976840058260        1.27199765580024        0.32470014822855
 
 Bond Distances (Angstroems)
 ---------------------------
O1-C2=1.2076         C2-O1=1.2076         C2-O3=1.3377         C2-C6=1.4796         O3-C2=1.3377         O3-C4=1.4279         
C4-O3=1.4279         C4-C5=1.5168         C4-H8=1.0961         C4-H9=1.0959         C5-C4=1.5168         C5-H10=1.0866        
C5-H11=1.0861        C5-H12=1.0869        C6-C2=1.4796         C6-C7=1.3247         C6-H13=1.0803        C7-C6=1.3247         
C7-H14=1.0772        C7-H15=1.0768        H8-C4=1.0961         H9-C4=1.0959         H10-C5=1.0866        H11-C5=1.0861        
H12-C5=1.0869        H13-C6=1.0803        H14-C7=1.0772        H15-C7=1.0768        
 C  H  Rav=1.0857 sigma=0.0070  Rmin=1.0768  Rmax=1.0961     8
 C  C  Rav=1.4404 sigma=0.0832  Rmin=1.3247  Rmax=1.5168     3
 O  C  Rav=1.3244 sigma=0.0904  Rmin=1.2076  Rmax=1.4279     3
 
 selected bond angles (degree)
 --------------------
O3-C2-O1=123.29                C6-C2-O1=123.60                C6-C2-O3=113.11                C4-O3-C2=116.08                
C5-C4-O3=108.43                H8-C4-O3=108.82                H8-C4-C5=111.40                H9-C4-O3=108.76                
H9-C4-C5=111.45                H9-C4-H8=107.92                H10-C5-C4=110.16               H11-C5-C4=109.62               
H11-C5-H10=109.09              H12-C5-C4=110.17               H12-C5-H10=108.67              H12-C5-H11=109.11              
C7-C6-C2=124.02                H13-C6-C2=113.60               H13-C6-C7=122.39               H14-C7-C6=121.77               
H15-C7-C6=121.16               H15-C7-H14=117.07              
 
 selected dihedral angles (degree)
 ---------------------------------
C4-O3-C2-O1=359.70            C4-O3-C2-C6=179.65            C5-C4-O3-C2=180.86            H8-C4-O3-C2= 59.54            
H9-C4-O3-C2=302.21            H10-C5-C4-O3= 59.23           H10-C5-C4-H8=178.95           H10-C5-C4-H9=299.55           
H11-C5-C4-O3=179.28           H11-C5-C4-H8=299.00           H11-C5-C4-H9= 59.60           H12-C5-C4-O3=299.35           
H12-C5-C4-H8= 59.08           H12-C5-C4-H9=179.67           C7-C6-C2-O1=179.54            C7-C6-C2-O3=359.59            
H13-C6-C2-O1=359.63           H13-C6-C2-O3=179.68           H14-C7-C6-C2=179.95           H14-C7-C6-H13=359.85          
H15-C7-C6-C2=  0.32           H15-C7-C6-H13=180.23          
           -------------------------------------------------
          |                Final Singlepoint                |
           -------------------------------------------------

          ...................................................
          :                      SETUP                      :
          :.................................................:
          :  # basis functions                  36          :
          :  # atomic orbitals                  36          :
          :  # shells                           22          :
          :  # electrons                        40          :
          :  max. iterations                   250          :
          :  Hamiltonian                  GFN2-xTB          :
          :  restarted?                      false          :
          :  GBSA solvation                  false          :
          :  PC potential                    false          :
          :  electronic temp.          300.0000000     K    :
          :  accuracy                    1.0000000          :
          :  -> integral cutoff          0.2500000E+02      :
          :  -> integral neglect         0.1000000E-07      :
          :  -> SCF convergence          0.1000000E-05 Eh   :
          :  -> wf. convergence          0.1000000E-03 e    :
          :  Broyden damping             0.4000000          :
          :  net charge                          0          :
          :  unpaired electrons                  0          :
          ...................................................

 iter      E             dE          RMSdq      gap      omega  full diag
   1    -23.1705194 -0.231705E+02  0.492E-05    3.71       0.0  T
   2    -23.1705194 -0.105516E-10  0.239E-05    3.71    1079.2  T
   3    -23.1705194 -0.201084E-11  0.152E-05    3.71    1696.1  T

   *** convergence criteria satisfied after 3 iterations ***

         #    Occupation            Energy/Eh            Energy/eV
      -------------------------------------------------------------
         1        2.0000           -0.7405178             -20.1505
       ...           ...                  ...                  ...
        14        2.0000           -0.4850040             -13.1976
        15        2.0000           -0.4761481             -12.9566
        16        2.0000           -0.4685630             -12.7502
        17        2.0000           -0.4632038             -12.6044
        18        2.0000           -0.4419602             -12.0263
        19        2.0000           -0.4364288             -11.8758
        20        2.0000           -0.4133094             -11.2467 (HOMO)
        21                         -0.2770095              -7.5378 (LUMO)
        22                         -0.1650189              -4.4904
        23                          0.0069170               0.1882
        24                          0.1015944               2.7645
        25                          0.1203086               3.2738
       ...                                ...                  ...
        36                          0.6997331              19.0407
      -------------------------------------------------------------
                  HL-Gap            0.1362999 Eh            3.7089 eV
             Fermi-level           -0.3451594 Eh           -9.3923 eV

 SCC (total)                   0 d,  0 h,  0 min,  0.005 sec
 SCC setup                      ...        0 min,  0.001 sec ( 19.547%)
 Dispersion                     ...        0 min,  0.000 sec (  1.617%)
 classical contributions        ...        0 min,  0.000 sec (  3.476%)
 integral evaluation            ...        0 min,  0.000 sec (  6.607%)
 iterations                     ...        0 min,  0.002 sec ( 43.193%)
 molecular gradient             ...        0 min,  0.001 sec ( 23.239%)
 printout                       ...        0 min,  0.000 sec (  1.771%)

         :::::::::::::::::::::::::::::::::::::::::::::::::::::
         ::                     SUMMARY                     ::
         :::::::::::::::::::::::::::::::::::::::::::::::::::::
         :: total energy             -22.890311974985 Eh    ::
         :: gradient norm              0.000776545975 Eh/a0 ::
         :: HOMO-LUMO gap              3.708909588418 eV    ::
         ::.................................................::
         :: SCC energy               -23.170504938455 Eh    ::
         :: -> isotropic ES            0.045856498357 Eh    ::
         :: -> anisotropic ES          0.000819890156 Eh    ::
         :: -> anisotropic XC          0.007090512560 Eh    ::
         :: -> dispersion             -0.008207003169 Eh    ::
         :: repulsion energy           0.280192963469 Eh    ::
         :: add. restraining           0.000000000000 Eh    ::
         :: total charge               0.000000000000 e     ::
         :::::::::::::::::::::::::::::::::::::::::::::::::::::

           -------------------------------------------------
          |                Property Printout                |
           -------------------------------------------------

    * Orbital Energies and Occupations

         #    Occupation            Energy/Eh            Energy/eV
      -------------------------------------------------------------
         1        2.0000           -0.7405178             -20.1505
       ...           ...                  ...                  ...
         8        2.0000           -0.5851123             -15.9217
         9        2.0000           -0.5551215             -15.1056
        10        2.0000           -0.5451439             -14.8341
        11        2.0000           -0.5242280             -14.2650
        12        2.0000           -0.5137875             -13.9809
        13        2.0000           -0.4944297             -13.4541
        14        2.0000           -0.4850040             -13.1976
        15        2.0000           -0.4761481             -12.9566
        16        2.0000           -0.4685630             -12.7502
        17        2.0000           -0.4632038             -12.6044
        18        2.0000           -0.4419602             -12.0263
        19        2.0000           -0.4364288             -11.8758
        20        2.0000           -0.4133094             -11.2467 (HOMO)
        21                         -0.2770095              -7.5378 (LUMO)
        22                         -0.1650189              -4.4904
        23                          0.0069170               0.1882
        24                          0.1015944               2.7645
        25                          0.1203086               3.2738
        26                          0.1307065               3.5567
        27                          0.1424822               3.8771
        28                          0.1443495               3.9280
        29                          0.1690158               4.5992
        30                          0.1912780               5.2049
        31                          0.2402127               6.5365
       ...                                ...                  ...
        36                          0.6997331              19.0407
      -------------------------------------------------------------
                  HL-Gap            0.1362999 Eh            3.7089 eV
             Fermi-level           -0.3451594 Eh           -9.3923 eV

     #   Z          covCN         q      C6AA      α(0)
     1   8 O        0.857    -0.415    21.988     6.287
     2   6 C        2.725     0.355    20.982     7.499
     3   8 O        1.704    -0.265    18.387     5.789
     4   6 C        3.704     0.085    19.309     6.282
     5   6 C        3.751    -0.116    22.776     6.806
     6   6 C        2.887    -0.057    29.424     8.893
     7   6 C        2.838    -0.063    29.553     8.909
     8   1 H        0.924     0.051     2.303     2.373
     9   1 H        0.924     0.052     2.300     2.371
    10   1 H        0.925     0.058     2.223     2.331
    11   1 H        0.925     0.053     2.284     2.363
    12   1 H        0.925     0.058     2.226     2.333
    13   1 H        0.926     0.071     2.077     2.254
    14   1 H        0.926     0.062     2.176     2.307
    15   1 H        0.926     0.072     2.066     2.248

 Mol. C6AA /au·bohr⁶  :       2055.373671
 Mol. C8AA /au·bohr⁸  :      45536.297574
 Mol. α(0) /au        :         69.046390


Wiberg/Mayer (AO) data.
largest (>0.10) Wiberg bond orders for each atom

 ---------------------------------------------------------------------------
     #   Z sym  total        # sym  WBO       # sym  WBO       # sym  WBO
 ---------------------------------------------------------------------------
     1   8 O    2.028 --     2 C    1.723     3 O    0.173
     2   6 C    3.921 --     1 O    1.723     3 O    1.127     6 C    1.012
     3   8 O    2.305 --     2 C    1.127     4 C    0.939     1 O    0.173
     4   6 C    3.929 --     5 C    1.020     9 H    0.968     8 H    0.968
                             3 O    0.939
     5   6 C    3.991 --     4 C    1.020    12 H    0.985    10 H    0.985
                            11 H    0.984
     6   6 C    3.988 --     7 C    1.935     2 C    1.012    13 H    0.963
     7   6 C    3.984 --     6 C    1.935    14 H    0.975    15 H    0.971
     8   1 H    0.997 --     4 C    0.968
     9   1 H    0.997 --     4 C    0.968
    10   1 H    0.997 --     5 C    0.985
    11   1 H    0.996 --     5 C    0.984
    12   1 H    0.997 --     5 C    0.985
    13   1 H    0.995 --     6 C    0.963
    14   1 H    0.996 --     7 C    0.975
    15   1 H    0.995 --     7 C    0.971
 ---------------------------------------------------------------------------

Topologies differ in total number of bonds
Writing topology from bond orders to xtbtopo.mol

molecular dipole:
                 x           y           z       tot (Debye)
 q only:       -0.040       0.994       0.455
   full:       -0.004       1.021       0.467       2.854
molecular quadrupole (traceless):
                xx          xy          yy          xz          yz          zz
 q only:        8.953       0.243      -6.425      -0.543      -2.828      -2.529
  q+dip:        9.017       0.738      -6.938      -0.300      -3.458      -2.079
   full:        8.854       0.444      -7.552      -0.334      -4.243      -1.302

           -------------------------------------------------
          |                Geometry Summary                 |
           -------------------------------------------------

      molecular mass/u    :      100.1160153
   center of mass at/Å    :        0.2426577      -0.3563891      -0.3045568
  moments of inertia/u·Å² :        0.1062616E+03   0.2904558E+03   0.3904021E+03
rotational constants/cm⁻¹ :        0.1586428E+00   0.5803854E-01   0.4318018E-01

 * 13 selected distances

     #   Z          #   Z                                           value/Å
     1   8 O        2   6 C                                       1.2075962
     2   6 C        3   8 O                                       1.3377001
     3   8 O        4   6 C                                       1.4278986
     4   6 C        5   6 C                                       1.5168349 (max)
     6   6 C        7   6 C                                       1.3246556
     4   6 C        8   1 H                                       1.0961017
     4   6 C        9   1 H                                       1.0959100
     5   6 C       10   1 H                                       1.0866368
     5   6 C       11   1 H                                       1.0861329
     5   6 C       12   1 H                                       1.0868646
     6   6 C       13   1 H                                       1.0803377
     7   6 C       14   1 H                                       1.0771733
     7   6 C       15   1 H                                       1.0768300 (min)

 * 3 distinct bonds (by element types)

   Z      Z             #   av. dist./Å        max./Å        min./Å
   1 H    6 C           8     1.0857484     1.0961017     1.0768300
   6 C    6 C           2     1.4207453     1.5168349     1.3246556
   6 C    8 O           3     1.3243983     1.4278986     1.2075962


optimized geometry written to: xtbopt.xyz


           -------------------------------------------------
          | TOTAL ENERGY              -22.890311974985 Eh   |
          | GRADIENT NORM               0.000776545975 Eh/α |
          | HOMO-LUMO GAP               3.708909588418 eV   |
           -------------------------------------------------

------------------------------------------------------------------------
 * finished run on 2025/12/01 at 14:17:49.693     
------------------------------------------------------------------------
 total:
 * wall-time:     0 d,  0 h,  0 min,  0.087 sec
 *  cpu-time:     0 d,  0 h,  0 min,  1.903 sec
 * ratio c/w:    21.804 speedup
 SCF:
 * wall-time:     0 d,  0 h,  0 min,  0.011 sec
 *  cpu-time:     0 d,  0 h,  0 min,  0.256 sec
 * ratio c/w:    22.425 speedup
 ANC optimizer:
 * wall-time:     0 d,  0 h,  0 min,  0.065 sec
 *  cpu-time:     0 d,  0 h,  0 min,  1.473 sec
 * ratio c/w:    22.669 speedup

normal termination of xtb
