      -----------------------------------------------------------      
     |                   =====================                   |     
     |                           x T B                           |     
     |                   =====================                   |     
     |                         S. Grimme                         |     
     |          Mulliken Center for Theoretical Chemistry        |     
     |                    University of Bonn                     |     
      -----------------------------------------------------------      

   * xtb version 6.7.1 (edcfbbe) compiled by 'albert@albert-system' on 2024-07-22

   xtb is free software: you can redistribute it and/or modify it under
   the terms of the GNU Lesser General Public License as published by
   the Free Software Foundation, either version 3 of the License, or
   (at your option) any later version.
   
   xtb is distributed in the hope that it will be useful,
   but WITHOUT ANY WARRANTY; without even the implied warranty of
   MERCHANTABILITY or FITNESS FOR A PARTICULAR PURPOSE.  See the
   GNU Lesser General Public License for more details.
   
   Cite this work as:
   * C. Bannwarth, E. Caldeweyher, S. Ehlert, A. Hansen, P. Pracht,
     J. Seibert, S. Spicher, S. Grimme, WIREs Comput. Mol. Sci., 2020, 11,
     e01493. DOI: 10.1002/wcms.1493
   
   for GFN2-xTB:
   * C. Bannwarth, S. Ehlert and S. Grimme., J. Chem. Theory Comput., 2019,
     15, 1652-1671. DOI: 10.1021/acs.jctc.8b01176
   for GFN1-xTB:
   * S. Grimme, C. Bannwarth, P. Shushkov, J. Chem. Theory Comput., 2017,
     13, 1989-2009. DOI: 10.1021/acs.jctc.7b00118
   for GFN0-xTB:
   * P. Pracht, E. Caldeweyher, S. Ehlert, S. Grimme, ChemRxiv, 2019, preprint.
     DOI: 10.26434/chemrxiv.8326202.v1
   for GFN-FF:
   * S. Spicher and S. Grimme, Angew. Chem. Int. Ed., 2020, 59, 15665-15673.
     DOI: 10.1002/anie.202004239
   
   for ALPB and GBSA implicit solvation:
   * S. Ehlert, M. Stahn, S. Spicher, S. Grimme, J. Chem. Theory Comput.,
     2021, 17, 4250-4261. DOI: 10.1021/acs.jctc.1c00471
   
   for ddCOSMO and CPCM-X implicit solvation:
   * M. Stahn, S. Ehlert, S. Grimme, J. Phys. Chem. A,
     2023, XX, XXXX-XXXX. DOI: 10.1021/acs.jpca.3c04382
   
   for DFT-D4:
   * E. Caldeweyher, C. Bannwarth and S. Grimme, J. Chem. Phys., 2017,
     147, 034112. DOI: 10.1063/1.4993215
   * E. Caldeweyher, S. Ehlert, A. Hansen, H. Neugebauer, S. Spicher,
     C. Bannwarth and S. Grimme, J. Chem. Phys., 2019, 150, 154122.
     DOI: 10.1063/1.5090222
   * E. Caldeweyher, J.-M. Mewes, S. Ehlert and S. Grimme, Phys. Chem. Chem. Phys.
     2020, 22, 8499-8512. DOI: 10.1039/D0CP00502A
   
   for sTDA-xTB:
   * S. Grimme and C. Bannwarth, J. Chem. Phys., 2016, 145, 054103.
     DOI: 10.1063/1.4959605
   
   in the mass-spec context:
   * V. Asgeirsson, C. Bauer and S. Grimme, Chem. Sci., 2017, 8, 4879.
     DOI: 10.1039/c7sc00601b
   * J. Koopman and S. Grimme, ACS Omega 2019, 4, 12, 15120-15133.
     DOI: 10.1021/acsomega.9b02011
   
   for metadynamics refer to:
   * S. Grimme, J. Chem. Theory Comput., 2019, 155, 2847-2862
     DOI: 10.1021/acs.jctc.9b00143
   
   for SPH calculations refer to:
   * S. Spicher and S. Grimme, J. Chem. Theory Comput., 2021, 17, 1701-1714
     DOI: 10.1021/acs.jctc.0c01306
   
   for ONIOM refer to:
   * C. Plett, A. Katbashev, S. Ehlert, S. Grimme, M. Bursch,
     Phys. Chem. Chem. Phys., 2023, 25, 17860-17868. DOI: 10.1039/D3CP02178E
   
   for DIPRO refer to:
   * J. Kohn, N. Gildemeister, S. Grimme, D. Fazzi, A. Hansen,
     J. Chem. Phys., 2023, just accepted.
   
   for PTB refer to:
   * S. Grimme, M. Mueller, A. Hansen, J. Chem. Phys., 2023, 158, 124111.
     DOI: 10.1063/5.0137838
   
   with help from (in alphabetical order)
   P. Atkinson, C. Bannwarth, F. Bohle, G. Brandenburg, E. Caldeweyher
   M. Checinski, S. Dohm, S. Ehlert, S. Ehrlich, I. Gerasimov, C. Hölzer
   A. Katbashev, J. Kohn, J. Koopman, C. Lavigne, S. Lehtola, F. März, M. Müller,
   F. Musil, H. Neugebauer, J. Pisarek, C. Plett, P. Pracht, F. Pultar,
   J. Seibert, P. Shushkov, S. Spicher, M. Stahn, M. Steiner, T. Strunk,
   J. Stückrath, T. Rose, and J. Unsleber
   
 * started run on 2025/12/01 at 14:17:49.493     
   ID    Z sym.   atoms
    1    8 O      1, 3
    2    6 C      2, 4-7
    3    1 H      8-15

           -------------------------------------------------
          |                Calculation Setup                |
           -------------------------------------------------

          program call               : xtb pipeline_data/3_conformer_xyz/acrylates/rdkit/JIGUQPWFLRLWPJ-UHFFFAOYSA-N_conf72.xyz --opt --gfn 2-xTB --iterations 250
          coordinate file            : pipeline_data/3_conformer_xyz/acrylates/rdkit/JIGUQPWFLRLWPJ-UHFFFAOYSA-N_conf72.xyz
          omp threads                :                    24

########################################################################
[WARNING] Please study the warnings concerning your input carefully
-1- readin_getIntValue: could not parse '2-xTB'
########################################################################

           -------------------------------------------------
          |                 G F N 2 - x T B                 |
           -------------------------------------------------

        Reference                      10.1021/acs.jctc.8b01176
      * Hamiltonian:
        H0-scaling (s, p, d)           1.850000    2.230000    2.230000
        zeta-weighting                 0.500000
      * Dispersion:
        s8                             2.700000
        a1                             0.520000
        a2                             5.000000
        s9                             5.000000
      * Repulsion:
        kExp                           1.500000    1.000000
        rExp                           1.000000
      * Coulomb:
        alpha                          2.000000
        third order                    shell-resolved
        anisotropic                    true
        a3                             3.000000
        a5                             4.000000
        cn-shift                       1.200000
        cn-exp                         4.000000
        max-rad                        5.000000

q/qsh data taken from xtbrestart
CAMM data taken from xtbrestart

          ...................................................
          :                      SETUP                      :
          :.................................................:
          :  # basis functions                  36          :
          :  # atomic orbitals                  36          :
          :  # shells                           22          :
          :  # electrons                        40          :
          :  max. iterations                   250          :
          :  Hamiltonian                  GFN2-xTB          :
          :  restarted?                       true          :
          :  GBSA solvation                  false          :
          :  PC potential                    false          :
          :  electronic temp.          300.0000000     K    :
          :  accuracy                    1.0000000          :
          :  -> integral cutoff          0.2500000E+02      :
          :  -> integral neglect         0.1000000E-07      :
          :  -> SCF convergence          0.1000000E-05 Eh   :
          :  -> wf. convergence          0.1000000E-03 e    :
          :  Broyden damping             0.4000000          :
          :  net charge                          0          :
          :  unpaired electrons                  0          :
          ...................................................

 iter      E             dE          RMSdq      gap      omega  full diag
   1    -23.1265326 -0.231265E+02  0.510E+00    3.52       0.0  T
   2    -23.1306257 -0.409317E-02  0.307E+00    3.26       1.0  T
   3    -23.1304522  0.173570E-03  0.461E-01    3.53       1.0  T
   4    -23.1317761 -0.132398E-02  0.203E-01    3.38       1.0  T
   5    -23.1319410 -0.164896E-03  0.116E-01    3.40       1.0  T
   6    -23.1319735 -0.324306E-04  0.418E-02    3.40       1.0  T
   7    -23.1319874 -0.139395E-04  0.118E-02    3.39       2.2  T
   8    -23.1319876 -0.180453E-06  0.507E-03    3.40       5.1  T
   9    -23.1319876 -0.378898E-07  0.118E-03    3.40      22.0  T
  10    -23.1319876 -0.132311E-08  0.336E-04    3.40      76.9  T
  11    -23.1319876 -0.251713E-09  0.117E-04    3.40     220.7  T

   *** convergence criteria satisfied after 11 iterations ***

         #    Occupation            Energy/Eh            Energy/eV
      -------------------------------------------------------------
         1        2.0000           -0.7296370             -19.8544
       ...           ...                  ...                  ...
        14        2.0000           -0.4797585             -13.0549
        15        2.0000           -0.4712584             -12.8236
        16        2.0000           -0.4638998             -12.6234
        17        2.0000           -0.4547564             -12.3746
        18        2.0000           -0.4413775             -12.0105
        19        2.0000           -0.4327123             -11.7747
        20        2.0000           -0.4134723             -11.2512 (HOMO)
        21                         -0.2886795              -7.8554 (LUMO)
        22                         -0.1712009              -4.6586
        23                         -0.0148602              -0.4044
        24                          0.0791730               2.1544
        25                          0.0990389               2.6950
       ...                                ...                  ...
        36                          0.6230257              16.9534
      -------------------------------------------------------------
                  HL-Gap            0.1247928 Eh            3.3958 eV
             Fermi-level           -0.3510759 Eh           -9.5533 eV

 SCC (total)                   0 d,  0 h,  0 min,  0.018 sec
 SCC setup                      ...        0 min,  0.000 sec (  1.692%)
 Dispersion                     ...        0 min,  0.000 sec (  1.363%)
 classical contributions        ...        0 min,  0.000 sec (  0.380%)
 integral evaluation            ...        0 min,  0.001 sec (  3.473%)
 iterations                     ...        0 min,  0.015 sec ( 82.945%)
 molecular gradient             ...        0 min,  0.002 sec (  9.254%)
 printout                       ...        0 min,  0.000 sec (  0.709%)

         :::::::::::::::::::::::::::::::::::::::::::::::::::::
         ::                     SUMMARY                     ::
         :::::::::::::::::::::::::::::::::::::::::::::::::::::
         :: total energy             -22.875852100690 Eh    ::
         :: gradient norm              0.117424130879 Eh/a0 ::
         :: HOMO-LUMO gap              3.395785092466 eV    ::
         ::.................................................::
         :: SCC energy               -23.132005161872 Eh    ::
         :: -> isotropic ES            0.048238502844 Eh    ::
         :: -> anisotropic ES          0.000841347104 Eh    ::
         :: -> anisotropic XC          0.008031195219 Eh    ::
         :: -> dispersion             -0.007943822218 Eh    ::
         :: repulsion energy           0.256153061182 Eh    ::
         :: add. restraining           0.000000000000 Eh    ::
         :: total charge              -0.000000000000 e     ::
         :::::::::::::::::::::::::::::::::::::::::::::::::::::

      ----------------------------------------------------------- 
     |                   =====================                   |
     |                        A N C O P T                        |
     |                   =====================                   |
     |               Approximate Normal Coordinate               |
     |                Rational Function Optimizer                |
      ----------------------------------------------------------- 
      ----------------------------------------------------------- 
     |                   =====================                   |
     |                        A N C O P T                        |
     |                   =====================                   |
     |               Approximate Normal Coordinate               |
     |                Rational Function Optimizer                |
      ----------------------------------------------------------- 

          ...................................................
          :                      SETUP                      :
          :.................................................:
          :   optimization level            normal          :
          :   max. optcycles                   200          :
          :   ANC micro-cycles                  20          :
          :   degrees of freedom                39          :
          :.................................................:
          :   RF solver                   davidson          :
          :   write xtbopt.log                true          :
          :   linear?                        false          :
          :   energy convergence         0.5000000E-05 Eh   :
          :   grad. convergence          0.1000000E-02 Eh/α :
          :   maxmium RF displ.          1.0000000          :
          :   Hlow (freq-cutoff)         0.1000000E-01      :
          :   Hmax (freq-cutoff)         5.0000000          :
          :   S6 in model hess.         20.0000000          :
          ...................................................

generating ANC from exact Hessian ...
Using Lindh-Hessian (1995)
 Shifting diagonal of input Hessian by   7.660547019351124E-003
 Lowest  eigenvalues of input Hessian
    0.000000    0.000000    0.000000    0.000000    0.000000    0.000000
    0.010000    0.010586    0.012848    0.017223    0.021520    0.025639
    0.030759    0.041075    0.046601    0.054595    0.057667    0.060101
 Highest eigenvalues
    1.170443    1.252938    1.447477    1.735150    2.035125    2.140481
 

........................................................................
.............................. CYCLE    1 ..............................
........................................................................

 iter      E             dE          RMSdq      gap      omega  full diag
   1    -23.1319876 -0.231320E+02  0.431E-05    3.40       0.0  T
   2    -23.1319876 -0.148503E-11  0.263E-05    3.40     980.4  T
   3    -23.1319876 -0.746070E-13  0.107E-05    3.40    2408.6  T
     SCC iter.                  ...        0 min,  0.002 sec
     gradient                   ...        0 min,  0.001 sec
 * total energy  :   -22.8758521 Eh     change       -0.1703526E-10 Eh
   gradient norm :     0.1174237 Eh/α   predicted     0.0000000E+00 (-100.00%)
   displ. norm   :     0.3445714 α      lambda       -0.1759715E-01
   maximum displ.:     0.2296825 α      in ANC's #8, #12, #10, ...

........................................................................
.............................. CYCLE    2 ..............................
........................................................................

 iter      E             dE          RMSdq      gap      omega  full diag
   1    -23.1581532 -0.231582E+02  0.380E-01    3.55       0.0  T
   2    -23.1583298 -0.176579E-03  0.230E-01    3.62       1.0  T
   3    -23.1582119  0.117861E-03  0.141E-01    3.61       1.0  T
   4    -23.1583717 -0.159729E-03  0.347E-02    3.63       1.0  T
   5    -23.1583826 -0.109089E-04  0.709E-03    3.62       3.6  T
   6    -23.1583828 -0.248316E-06  0.385E-03    3.62       6.7  T
   7    -23.1583828 -0.271298E-07  0.916E-04    3.62      28.2  T
   8    -23.1583828 -0.924459E-09  0.334E-04    3.62      77.3  T
     SCC iter.                  ...        0 min,  0.005 sec
     gradient                   ...        0 min,  0.001 sec
 * total energy  :   -22.8876229 Eh     change       -0.1177076E-01 Eh
   gradient norm :     0.0489298 Eh/α   predicted    -0.9843229E-02 ( -16.38%)
   displ. norm   :     0.2781202 α      lambda       -0.5336273E-02
   maximum displ.:     0.2418405 α      in ANC's #8, #20, #12, ...

........................................................................
.............................. CYCLE    3 ..............................
........................................................................

 iter      E             dE          RMSdq      gap      omega  full diag
   1    -23.1718106 -0.231718E+02  0.186E-01    3.72       0.0  T
   2    -23.1719010 -0.904061E-04  0.118E-01    3.77       1.0  T
   3    -23.1718961  0.496719E-05  0.774E-02    3.77       1.0  T
   4    -23.1719260 -0.299483E-04  0.253E-02    3.78       1.0  T
   5    -23.1719302 -0.421667E-05  0.535E-03    3.78       4.8  T
   6    -23.1719304 -0.129398E-06  0.246E-03    3.78      10.5  T
   7    -23.1719304 -0.144133E-07  0.601E-04    3.78      43.0  T
   8    -23.1719304 -0.322373E-09  0.274E-04    3.78      94.3  T
     SCC iter.                  ...        0 min,  0.005 sec
     gradient                   ...        0 min,  0.001 sec
 * total energy  :   -22.8906891 Eh     change       -0.3066256E-02 Eh
   gradient norm :     0.0172527 Eh/α   predicted    -0.2874526E-02 (  -6.25%)
   displ. norm   :     0.1311475 α      lambda       -0.7301481E-03
   maximum displ.:     0.1013559 α      in ANC's #8, #4, #2, ...

........................................................................
.............................. CYCLE    4 ..............................
........................................................................

 iter      E             dE          RMSdq      gap      omega  full diag
   1    -23.1714807 -0.231715E+02  0.748E-02    3.79       0.0  T
   2    -23.1714883 -0.758323E-05  0.465E-02    3.79       1.0  T
   3    -23.1714849  0.337648E-05  0.259E-02    3.79       1.0  T
   4    -23.1714888 -0.394883E-05  0.928E-03    3.79       2.8  T
   5    -23.1714897 -0.833291E-06  0.129E-03    3.79      20.1  T
   6    -23.1714897 -0.157436E-08  0.482E-04    3.79      53.6  T
   7    -23.1714897 -0.190216E-09  0.163E-04    3.79     158.9  T
     SCC iter.                  ...        0 min,  0.004 sec
     gradient                   ...        0 min,  0.001 sec
 * total energy  :   -22.8911441 Eh     change       -0.4549561E-03 Eh
   gradient norm :     0.0078219 Eh/α   predicted    -0.3713535E-03 ( -18.38%)
   displ. norm   :     0.0943076 α      lambda       -0.2256174E-03
   maximum displ.:     0.0519228 α      in ANC's #4, #2, #8, ...

........................................................................
.............................. CYCLE    5 ..............................
........................................................................

 iter      E             dE          RMSdq      gap      omega  full diag
   1    -23.1711643 -0.231712E+02  0.580E-02    3.79       0.0  T
   2    -23.1711661 -0.181344E-05  0.344E-02    3.78       1.0  T
   3    -23.1711654  0.671593E-06  0.968E-03    3.78       2.7  T
   4    -23.1711659 -0.531288E-06  0.527E-03    3.78       4.9  T
   5    -23.1711662 -0.295942E-06  0.763E-04    3.78      33.9  T
   6    -23.1711662 -0.633474E-09  0.282E-04    3.78      91.4  T
     SCC iter.                  ...        0 min,  0.004 sec
     gradient                   ...        0 min,  0.001 sec
 * total energy  :   -22.8912735 Eh     change       -0.1294374E-03 Eh
   gradient norm :     0.0033151 Eh/α   predicted    -0.1138118E-03 ( -12.07%)
   displ. norm   :     0.0786852 α      lambda       -0.9677083E-04
   maximum displ.:     0.0486090 α      in ANC's #4, #2, #3, ...

........................................................................
.............................. CYCLE    6 ..............................
........................................................................

 iter      E             dE          RMSdq      gap      omega  full diag
   1    -23.1712409 -0.231712E+02  0.507E-02    3.78       0.0  T
   2    -23.1712411 -0.270741E-06  0.300E-02    3.78       1.0  T
   3    -23.1712411 -0.119971E-07  0.254E-03    3.78      10.1  T
   4    -23.1712412 -0.211399E-07  0.117E-03    3.78      22.1  T
   5    -23.1712412 -0.100817E-07  0.691E-04    3.78      37.4  T
   6    -23.1712412 -0.177436E-08  0.180E-04    3.78     143.1  T
     SCC iter.                  ...        0 min,  0.004 sec
     gradient                   ...        0 min,  0.001 sec
 * total energy  :   -22.8913248 Eh     change       -0.5129989E-04 Eh
   gradient norm :     0.0033666 Eh/α   predicted    -0.4868544E-04 (  -5.10%)
   displ. norm   :     0.0600952 α      lambda       -0.4378302E-04
   maximum displ.:     0.0416665 α      in ANC's #4, #2, #3, ...

........................................................................
.............................. CYCLE    7 ..............................
........................................................................

 iter      E             dE          RMSdq      gap      omega  full diag
   1    -23.1714983 -0.231715E+02  0.264E-02    3.77       0.0  T
   2    -23.1714985 -0.177012E-06  0.159E-02    3.77       1.6  T
   3    -23.1714984  0.156032E-06  0.405E-03    3.77       6.4  T
   4    -23.1714985 -0.157982E-06  0.148E-03    3.77      17.5  T
   5    -23.1714985 -0.247367E-07  0.322E-04    3.77      80.3  T
   6    -23.1714985 -0.168871E-09  0.157E-04    3.77     164.7  T
     SCC iter.                  ...        0 min,  0.004 sec
     gradient                   ...        0 min,  0.001 sec
 * total energy  :   -22.8913575 Eh     change       -0.3264238E-04 Eh
   gradient norm :     0.0027485 Eh/α   predicted    -0.2196952E-04 ( -32.70%)
   displ. norm   :     0.1023991 α      lambda       -0.5064529E-04
   maximum displ.:     0.0693158 α      in ANC's #4, #2, #3, ...

........................................................................
.............................. CYCLE    8 ..............................
........................................................................

 iter      E             dE          RMSdq      gap      omega  full diag
   1    -23.1716899 -0.231717E+02  0.344E-02    3.77       0.0  T
   2    -23.1716904 -0.517034E-06  0.204E-02    3.77       1.3  T
   3    -23.1716903  0.720941E-07  0.424E-03    3.77       6.1  T
   4    -23.1716904 -0.711074E-07  0.176E-03    3.77      14.7  T
   5    -23.1716905 -0.357461E-07  0.476E-04    3.77      54.2  T
   6    -23.1716905 -0.118240E-08  0.229E-04    3.77     112.8  T
     SCC iter.                  ...        0 min,  0.004 sec
     gradient                   ...        0 min,  0.001 sec
 * total energy  :   -22.8913927 Eh     change       -0.3525360E-04 Eh
   gradient norm :     0.0019746 Eh/α   predicted    -0.2558972E-04 ( -27.41%)
   displ. norm   :     0.1431438 α      lambda       -0.3195517E-04
   maximum displ.:     0.1020507 α      in ANC's #4, #2, #3, ...

........................................................................
.............................. CYCLE    9 ..............................
........................................................................

 iter      E             dE          RMSdq      gap      omega  full diag
   1    -23.1715811 -0.231716E+02  0.496E-02    3.77       0.0  T
   2    -23.1715815 -0.405100E-06  0.293E-02    3.78       1.0  T
   3    -23.1715814  0.125454E-06  0.489E-03    3.77       5.3  T
   4    -23.1715815 -0.141981E-06  0.194E-03    3.78      13.3  T
   5    -23.1715815 -0.391282E-07  0.588E-04    3.78      43.9  T
   6    -23.1715815 -0.105252E-08  0.275E-04    3.78      94.0  T
     SCC iter.                  ...        0 min,  0.004 sec
     gradient                   ...        0 min,  0.001 sec
 * total energy  :   -22.8914182 Eh     change       -0.2548887E-04 Eh
   gradient norm :     0.0019990 Eh/α   predicted    -0.1612224E-04 ( -36.75%)
   displ. norm   :     0.0296536 α      lambda       -0.1321897E-04
   maximum displ.:     0.0198918 α      in ANC's #2, #4, #3, ...

........................................................................
.............................. CYCLE   10 ..............................
........................................................................

 iter      E             dE          RMSdq      gap      omega  full diag
   1    -23.1722549 -0.231723E+02  0.213E-02    3.78       0.0  T
   2    -23.1722551 -0.222098E-06  0.126E-02    3.78       2.1  T
   3    -23.1722550  0.133927E-06  0.420E-03    3.78       6.1  T
   4    -23.1722551 -0.141643E-06  0.157E-03    3.78      16.5  T
   5    -23.1722551 -0.254120E-07  0.376E-04    3.78      68.6  T
   6    -23.1722551 -0.213632E-09  0.187E-04    3.78     137.8  T
     SCC iter.                  ...        0 min,  0.004 sec
     gradient                   ...        0 min,  0.001 sec
 * total energy  :   -22.8914268 Eh     change       -0.8587343E-05 Eh
   gradient norm :     0.0013613 Eh/α   predicted    -0.6611552E-05 ( -23.01%)
   displ. norm   :     0.0492670 α      lambda       -0.6880916E-05
   maximum displ.:     0.0338965 α      in ANC's #2, #4, #3, ...

........................................................................
.............................. CYCLE   11 ..............................
........................................................................

 iter      E             dE          RMSdq      gap      omega  full diag
   1    -23.1718268 -0.231718E+02  0.208E-02    3.78       0.0  T
   2    -23.1718270 -0.192915E-06  0.123E-02    3.78       2.1  T
   3    -23.1718270  0.217190E-07  0.249E-03    3.78      10.4  T
   4    -23.1718270 -0.211212E-07  0.111E-03    3.78      23.4  T
   5    -23.1718271 -0.136060E-07  0.277E-04    3.78      93.0  T
   6    -23.1718271 -0.197112E-09  0.154E-04    3.78     167.9  T
     SCC iter.                  ...        0 min,  0.004 sec
     gradient                   ...        0 min,  0.001 sec
 * total energy  :   -22.8914319 Eh     change       -0.5084132E-05 Eh
   gradient norm :     0.0009753 Eh/α   predicted    -0.3444478E-05 ( -32.25%)
   displ. norm   :     0.0188286 α      lambda       -0.3110845E-05
   maximum displ.:     0.0161470 α      in ANC's #3, #2, #11, ...

........................................................................
.............................. CYCLE   12 ..............................
........................................................................

 iter      E             dE          RMSdq      gap      omega  full diag
   1    -23.1719339 -0.231719E+02  0.963E-03    3.78       0.0  T
   2    -23.1719339 -0.248163E-07  0.571E-03    3.77       4.5  T
   3    -23.1719339  0.397134E-07  0.217E-03    3.78      11.9  T
   4    -23.1719339 -0.443655E-07  0.558E-04    3.78      46.3  T
   5    -23.1719339 -0.294936E-08  0.146E-04    3.78     177.1  T
     SCC iter.                  ...        0 min,  0.003 sec
     gradient                   ...        0 min,  0.001 sec
 * total energy  :   -22.8914345 Eh     change       -0.2606739E-05 Eh
   gradient norm :     0.0005353 Eh/α   predicted    -0.1555224E-05 ( -40.34%)
   displ. norm   :     0.0206043 α      lambda       -0.1642349E-05
   maximum displ.:     0.0137014 α      in ANC's #2, #3, #4, ...

   *** GEOMETRY OPTIMIZATION CONVERGED AFTER 12 ITERATIONS ***

------------------------------------------------------------------------
 total energy gain   :        -0.0155824 Eh       -9.7781 kcal/mol
 total RMSD          :         0.2484769 a0        0.1315 Å
 total power (kW/mol):        -3.4092930 (step) -548.5153 (real)
------------------------------------------------------------------------

 ANCopt (total)                0 d,  0 h,  0 min,  0.075 sec
 optimizer setup                ...        0 min,  0.000 sec (  0.158%)
 model hessian                  ...        0 min,  0.001 sec (  1.574%)
 ANC generation                 ...        0 min,  0.000 sec (  0.434%)
 coordinate transformation      ...        0 min,  0.000 sec (  0.121%)
 single point calculation       ...        0 min,  0.068 sec ( 91.429%)
 optimization log               ...        0 min,  0.001 sec (  1.208%)
 hessian update                 ...        0 min,  0.002 sec (  2.611%)
 rational function              ...        0 min,  0.001 sec (  1.747%)

================
 final structure:
================
15
 xtb: 6.7.1 (edcfbbe)
O            1.07095556428026       -1.47554146982643        0.42535641118709
C            0.89071234116731       -0.30222009406340        0.20981227609244
O           -0.32197393358212        0.25652215767465        0.11354072991832
C           -1.43905903408871       -0.61589318750883        0.28049206265604
C           -2.71033473271636        0.18812474741809        0.08459779090090
C            1.95136063502154        0.71122080837145        0.01944382970739
C            3.23343347181632        0.38379959807712        0.08000246298623
H           -1.36329873434476       -1.43028545669429       -0.44919245796131
H           -1.39553628758426       -1.05644953792051        1.28349056245013
H           -2.73232759053006        0.61614253496263       -0.91405857813165
H           -3.57431676887044       -0.45709156616461        0.21458753908489
H           -2.75674937524335        0.99664973144471        0.80944177493983
H            1.60535163027735        1.71627188779205       -0.16740443685593
H            3.52159600164440       -0.63720627185279        0.27198905447624
H            4.02018881275291        1.10595511829009       -0.05448202145064
 
 Bond Distances (Angstroems)
 ---------------------------
O1-C2=1.2065         C2-O1=1.2065         C2-O3=1.3387         C2-C6=1.4793         O3-C2=1.3387         O3-C4=1.4272         
C4-O3=1.4272         C4-C5=1.5169         C4-H8=1.0961         C4-H9=1.0964         C5-C4=1.5169         C5-H10=1.0867        
C5-H11=1.0861        C5-H12=1.0869        C6-C2=1.4793         C6-C7=1.3246         C6-H13=1.0792        C7-C6=1.3246         
C7-H14=1.0781        C7-H15=1.0764        H8-C4=1.0961         H9-C4=1.0964         H10-C5=1.0867        H11-C5=1.0861        
H12-C5=1.0869        H13-C6=1.0792        H14-C7=1.0781        H15-C7=1.0764        
 C  H  Rav=1.0857 sigma=0.0072  Rmin=1.0764  Rmax=1.0964     8
 C  C  Rav=1.4403 sigma=0.0832  Rmin=1.3246  Rmax=1.5169     3
 O  C  Rav=1.3241 sigma=0.0907  Rmin=1.2065  Rmax=1.4272     3
 
 selected bond angles (degree)
 --------------------
O3-C2-O1=123.65                C6-C2-O1=125.60                C6-C2-O3=110.75                C4-O3-C2=116.46                
C5-C4-O3=108.47                H8-C4-O3=108.80                H8-C4-C5=111.46                H9-C4-O3=108.76                
H9-C4-C5=111.37                H9-C4-H8=107.92                H10-C5-C4=110.14               H11-C5-C4=109.65               
H11-C5-H10=109.14              H12-C5-C4=110.12               H12-C5-H10=108.60              H12-C5-H11=109.16              
C7-C6-C2=121.25                H13-C6-C2=115.49               H13-C6-C7=123.26               H14-C7-C6=120.06               
H15-C7-C6=122.41               H15-C7-H14=117.53              
 
 selected dihedral angles (degree)
 ---------------------------------
C4-O3-C2-O1=  0.00            C4-O3-C2-C6=180.09            C5-C4-O3-C2=182.14            H8-C4-O3-C2=303.55            
H9-C4-O3-C2= 60.86            H10-C5-C4-O3= 60.27           H10-C5-C4-H8=300.52           H10-C5-C4-H9=179.93           
H11-C5-C4-O3=180.39           H11-C5-C4-H8= 60.64           H11-C5-C4-H9=300.05           H12-C5-C4-O3=300.52           
H12-C5-C4-H8=180.77           H12-C5-C4-H9= 60.18           C7-C6-C2-O1=359.77            C7-C6-C2-O3=179.66            
H13-C6-C2-O1=179.83           H13-C6-C2-O3=359.72           H14-C7-C6-C2=359.94           H14-C7-C6-H13=179.87          
H15-C7-C6-C2=180.07           H15-C7-C6-H13=  0.00          
           -------------------------------------------------
          |                Final Singlepoint                |
           -------------------------------------------------

          ...................................................
          :                      SETUP                      :
          :.................................................:
          :  # basis functions                  36          :
          :  # atomic orbitals                  36          :
          :  # shells                           22          :
          :  # electrons                        40          :
          :  max. iterations                   250          :
          :  Hamiltonian                  GFN2-xTB          :
          :  restarted?                      false          :
          :  GBSA solvation                  false          :
          :  PC potential                    false          :
          :  electronic temp.          300.0000000     K    :
          :  accuracy                    1.0000000          :
          :  -> integral cutoff          0.2500000E+02      :
          :  -> integral neglect         0.1000000E-07      :
          :  -> SCF convergence          0.1000000E-05 Eh   :
          :  -> wf. convergence          0.1000000E-03 e    :
          :  Broyden damping             0.4000000          :
          :  net charge                          0          :
          :  unpaired electrons                  0          :
          ...................................................

 iter      E             dE          RMSdq      gap      omega  full diag
   1    -23.1719339 -0.231719E+02  0.706E-05    3.78       0.0  T
   2    -23.1719339 -0.948930E-11  0.409E-05    3.78     631.2  T
   3    -23.1719339 -0.230926E-12  0.266E-05    3.78     969.9  T

   *** convergence criteria satisfied after 3 iterations ***

         #    Occupation            Energy/Eh            Energy/eV
      -------------------------------------------------------------
         1        2.0000           -0.7403484             -20.1459
       ...           ...                  ...                  ...
        14        2.0000           -0.4829798             -13.1425
        15        2.0000           -0.4753921             -12.9361
        16        2.0000           -0.4692037             -12.7677
        17        2.0000           -0.4607475             -12.5376
        18        2.0000           -0.4401766             -11.9778
        19        2.0000           -0.4362614             -11.8713
        20        2.0000           -0.4136819             -11.2569 (HOMO)
        21                         -0.2749482              -7.4817 (LUMO)
        22                         -0.1647681              -4.4836
        23                          0.0095247               0.2592
        24                          0.1031913               2.8080
        25                          0.1283209               3.4918
       ...                                ...                  ...
        36                          0.7070868              19.2408
      -------------------------------------------------------------
                  HL-Gap            0.1387337 Eh            3.7751 eV
             Fermi-level           -0.3443151 Eh           -9.3693 eV

 SCC (total)                   0 d,  0 h,  0 min,  0.004 sec
 SCC setup                      ...        0 min,  0.001 sec ( 13.635%)
 Dispersion                     ...        0 min,  0.000 sec (  1.714%)
 classical contributions        ...        0 min,  0.000 sec (  3.604%)
 integral evaluation            ...        0 min,  0.000 sec (  6.752%)
 iterations                     ...        0 min,  0.002 sec ( 45.960%)
 molecular gradient             ...        0 min,  0.001 sec ( 22.426%)
 printout                       ...        0 min,  0.000 sec (  5.412%)

         :::::::::::::::::::::::::::::::::::::::::::::::::::::
         ::                     SUMMARY                     ::
         :::::::::::::::::::::::::::::::::::::::::::::::::::::
         :: total energy             -22.891434474225 Eh    ::
         :: gradient norm              0.000534825933 Eh/a0 ::
         :: HOMO-LUMO gap              3.775135243484 eV    ::
         ::.................................................::
         :: SCC energy               -23.171950646627 Eh    ::
         :: -> isotropic ES            0.045714874188 Eh    ::
         :: -> anisotropic ES          0.000664813961 Eh    ::
         :: -> anisotropic XC          0.007188996707 Eh    ::
         :: -> dispersion             -0.008054268172 Eh    ::
         :: repulsion energy           0.280516172401 Eh    ::
         :: add. restraining           0.000000000000 Eh    ::
         :: total charge               0.000000000000 e     ::
         :::::::::::::::::::::::::::::::::::::::::::::::::::::

           -------------------------------------------------
          |                Property Printout                |
           -------------------------------------------------

    * Orbital Energies and Occupations

         #    Occupation            Energy/Eh            Energy/eV
      -------------------------------------------------------------
         1        2.0000           -0.7403484             -20.1459
       ...           ...                  ...                  ...
         8        2.0000           -0.5819896             -15.8367
         9        2.0000           -0.5610864             -15.2679
        10        2.0000           -0.5442871             -14.8108
        11        2.0000           -0.5236407             -14.2490
        12        2.0000           -0.5109128             -13.9026
        13        2.0000           -0.4935341             -13.4297
        14        2.0000           -0.4829798             -13.1425
        15        2.0000           -0.4753921             -12.9361
        16        2.0000           -0.4692037             -12.7677
        17        2.0000           -0.4607475             -12.5376
        18        2.0000           -0.4401766             -11.9778
        19        2.0000           -0.4362614             -11.8713
        20        2.0000           -0.4136819             -11.2569 (HOMO)
        21                         -0.2749482              -7.4817 (LUMO)
        22                         -0.1647681              -4.4836
        23                          0.0095247               0.2592
        24                          0.1031913               2.8080
        25                          0.1283209               3.4918
        26                          0.1362185               3.7067
        27                          0.1431465               3.8952
        28                          0.1519573               4.1350
        29                          0.1713500               4.6627
        30                          0.1813366               4.9344
        31                          0.2330266               6.3410
       ...                                ...                  ...
        36                          0.7070868              19.2408
      -------------------------------------------------------------
                  HL-Gap            0.1387337 Eh            3.7751 eV
             Fermi-level           -0.3443151 Eh           -9.3693 eV

     #   Z          covCN         q      C6AA      α(0)
     1   8 O        0.856    -0.415    21.981     6.286
     2   6 C        2.727     0.355    20.978     7.498
     3   8 O        1.705    -0.267    18.427     5.796
     4   6 C        3.702     0.085    19.310     6.283
     5   6 C        3.751    -0.116    22.774     6.806
     6   6 C        2.887    -0.059    29.455     8.898
     7   6 C        2.841    -0.060    29.474     8.897
     8   1 H        0.924     0.051     2.305     2.374
     9   1 H        0.924     0.050     2.320     2.382
    10   1 H        0.925     0.058     2.222     2.331
    11   1 H        0.925     0.052     2.290     2.367
    12   1 H        0.925     0.058     2.219     2.329
    13   1 H        0.926     0.064     2.149     2.292
    14   1 H        0.926     0.079     1.993     2.208
    15   1 H        0.926     0.063     2.166     2.302

 Mol. C6AA /au·bohr⁶  :       2055.517423
 Mol. C8AA /au·bohr⁸  :      45536.492660
 Mol. α(0) /au        :         69.048949


Wiberg/Mayer (AO) data.
largest (>0.10) Wiberg bond orders for each atom

 ---------------------------------------------------------------------------
     #   Z sym  total        # sym  WBO       # sym  WBO       # sym  WBO
 ---------------------------------------------------------------------------
     1   8 O    2.031 --     2 C    1.725     3 O    0.174
     2   6 C    3.920 --     1 O    1.725     3 O    1.124     6 C    1.010
     3   8 O    2.306 --     2 C    1.124     4 C    0.940     1 O    0.174
     4   6 C    3.929 --     5 C    1.020     8 H    0.968     9 H    0.968
                             3 O    0.940
     5   6 C    3.991 --     4 C    1.020    10 H    0.985    12 H    0.985
                            11 H    0.984
     6   6 C    3.988 --     7 C    1.932     2 C    1.010    13 H    0.965
     7   6 C    3.982 --     6 C    1.932    15 H    0.975    14 H    0.970
     8   1 H    0.997 --     4 C    0.968
     9   1 H    0.997 --     4 C    0.968
    10   1 H    0.997 --     5 C    0.985
    11   1 H    0.997 --     5 C    0.984
    12   1 H    0.997 --     5 C    0.985
    13   1 H    0.996 --     6 C    0.965
    14   1 H    0.994 --     7 C    0.970
    15   1 H    0.995 --     7 C    0.975
 ---------------------------------------------------------------------------

Topologies differ in total number of bonds
Writing topology from bond orders to xtbtopo.mol

molecular dipole:
                 x           y           z       tot (Debye)
 q only:       -0.327       0.701      -0.133
   full:       -0.335       0.763      -0.142       2.148
molecular quadrupole (traceless):
                xx          xy          yy          xz          yz          zz
 q only:        8.075       4.514      -5.326      -0.953       0.800      -2.749
  q+dip:        7.066       5.272      -5.087      -1.129       0.946      -1.979
   full:        6.824       5.466      -5.922      -1.148       1.301      -0.902

           -------------------------------------------------
          |                Geometry Summary                 |
           -------------------------------------------------

      molecular mass/u    :      100.1160153
   center of mass at/Å    :        0.3238339      -0.1424199       0.1770319
  moments of inertia/u·Å² :        0.6139855E+02   0.3708026E+03   0.4258602E+03
rotational constants/cm⁻¹ :        0.2745608E+00   0.4546255E-01   0.3958490E-01

 * 13 selected distances

     #   Z          #   Z                                           value/Å
     1   8 O        2   6 C                                       1.2064950
     2   6 C        3   8 O                                       1.3386820
     3   8 O        4   6 C                                       1.4271863
     4   6 C        5   6 C                                       1.5168921 (max)
     6   6 C        7   6 C                                       1.3246068
     4   6 C        8   1 H                                       1.0960904
     4   6 C        9   1 H                                       1.0963532
     5   6 C       10   1 H                                       1.0867372
     5   6 C       11   1 H                                       1.0861246
     5   6 C       12   1 H                                       1.0868606
     6   6 C       13   1 H                                       1.0792416
     7   6 C       14   1 H                                       1.0781232
     7   6 C       15   1 H                                       1.0763730 (min)

 * 3 distinct bonds (by element types)

   Z      Z             #   av. dist./Å        max./Å        min./Å
   1 H    6 C           8     1.0857380     1.0963532     1.0763730
   6 C    6 C           2     1.4207494     1.5168921     1.3246068
   6 C    8 O           3     1.3241211     1.4271863     1.2064950


optimized geometry written to: xtbopt.xyz


           -------------------------------------------------
          | TOTAL ENERGY              -22.891434474225 Eh   |
          | GRADIENT NORM               0.000534825933 Eh/α |
          | HOMO-LUMO GAP               3.775135243484 eV   |
           -------------------------------------------------

------------------------------------------------------------------------
 * finished run on 2025/12/01 at 14:17:49.599     
------------------------------------------------------------------------
 total:
 * wall-time:     0 d,  0 h,  0 min,  0.105 sec
 *  cpu-time:     0 d,  0 h,  0 min,  2.330 sec
 * ratio c/w:    22.092 speedup
 SCF:
 * wall-time:     0 d,  0 h,  0 min,  0.018 sec
 *  cpu-time:     0 d,  0 h,  0 min,  0.395 sec
 * ratio c/w:    22.255 speedup
 ANC optimizer:
 * wall-time:     0 d,  0 h,  0 min,  0.080 sec
 *  cpu-time:     0 d,  0 h,  0 min,  1.807 sec
 * ratio c/w:    22.664 speedup

normal termination of xtb
