      -----------------------------------------------------------      
     |                   =====================                   |     
     |                           x T B                           |     
     |                   =====================                   |     
     |                         S. Grimme                         |     
     |          Mulliken Center for Theoretical Chemistry        |     
     |                    University of Bonn                     |     
      -----------------------------------------------------------      

   * xtb version 6.7.1 (edcfbbe) compiled by 'albert@albert-system' on 2024-07-22

   xtb is free software: you can redistribute it and/or modify it under
   the terms of the GNU Lesser General Public License as published by
   the Free Software Foundation, either version 3 of the License, or
   (at your option) any later version.
   
   xtb is distributed in the hope that it will be useful,
   but WITHOUT ANY WARRANTY; without even the implied warranty of
   MERCHANTABILITY or FITNESS FOR A PARTICULAR PURPOSE.  See the
   GNU Lesser General Public License for more details.
   
   Cite this work as:
   * C. Bannwarth, E. Caldeweyher, S. Ehlert, A. Hansen, P. Pracht,
     J. Seibert, S. Spicher, S. Grimme, WIREs Comput. Mol. Sci., 2020, 11,
     e01493. DOI: 10.1002/wcms.1493
   
   for GFN2-xTB:
   * C. Bannwarth, S. Ehlert and S. Grimme., J. Chem. Theory Comput., 2019,
     15, 1652-1671. DOI: 10.1021/acs.jctc.8b01176
   for GFN1-xTB:
   * S. Grimme, C. Bannwarth, P. Shushkov, J. Chem. Theory Comput., 2017,
     13, 1989-2009. DOI: 10.1021/acs.jctc.7b00118
   for GFN0-xTB:
   * P. Pracht, E. Caldeweyher, S. Ehlert, S. Grimme, ChemRxiv, 2019, preprint.
     DOI: 10.26434/chemrxiv.8326202.v1
   for GFN-FF:
   * S. Spicher and S. Grimme, Angew. Chem. Int. Ed., 2020, 59, 15665-15673.
     DOI: 10.1002/anie.202004239
   
   for ALPB and GBSA implicit solvation:
   * S. Ehlert, M. Stahn, S. Spicher, S. Grimme, J. Chem. Theory Comput.,
     2021, 17, 4250-4261. DOI: 10.1021/acs.jctc.1c00471
   
   for ddCOSMO and CPCM-X implicit solvation:
   * M. Stahn, S. Ehlert, S. Grimme, J. Phys. Chem. A,
     2023, XX, XXXX-XXXX. DOI: 10.1021/acs.jpca.3c04382
   
   for DFT-D4:
   * E. Caldeweyher, C. Bannwarth and S. Grimme, J. Chem. Phys., 2017,
     147, 034112. DOI: 10.1063/1.4993215
   * E. Caldeweyher, S. Ehlert, A. Hansen, H. Neugebauer, S. Spicher,
     C. Bannwarth and S. Grimme, J. Chem. Phys., 2019, 150, 154122.
     DOI: 10.1063/1.5090222
   * E. Caldeweyher, J.-M. Mewes, S. Ehlert and S. Grimme, Phys. Chem. Chem. Phys.
     2020, 22, 8499-8512. DOI: 10.1039/D0CP00502A
   
   for sTDA-xTB:
   * S. Grimme and C. Bannwarth, J. Chem. Phys., 2016, 145, 054103.
     DOI: 10.1063/1.4959605
   
   in the mass-spec context:
   * V. Asgeirsson, C. Bauer and S. Grimme, Chem. Sci., 2017, 8, 4879.
     DOI: 10.1039/c7sc00601b
   * J. Koopman and S. Grimme, ACS Omega 2019, 4, 12, 15120-15133.
     DOI: 10.1021/acsomega.9b02011
   
   for metadynamics refer to:
   * S. Grimme, J. Chem. Theory Comput., 2019, 155, 2847-2862
     DOI: 10.1021/acs.jctc.9b00143
   
   for SPH calculations refer to:
   * S. Spicher and S. Grimme, J. Chem. Theory Comput., 2021, 17, 1701-1714
     DOI: 10.1021/acs.jctc.0c01306
   
   for ONIOM refer to:
   * C. Plett, A. Katbashev, S. Ehlert, S. Grimme, M. Bursch,
     Phys. Chem. Chem. Phys., 2023, 25, 17860-17868. DOI: 10.1039/D3CP02178E
   
   for DIPRO refer to:
   * J. Kohn, N. Gildemeister, S. Grimme, D. Fazzi, A. Hansen,
     J. Chem. Phys., 2023, just accepted.
   
   for PTB refer to:
   * S. Grimme, M. Mueller, A. Hansen, J. Chem. Phys., 2023, 158, 124111.
     DOI: 10.1063/5.0137838
   
   with help from (in alphabetical order)
   P. Atkinson, C. Bannwarth, F. Bohle, G. Brandenburg, E. Caldeweyher
   M. Checinski, S. Dohm, S. Ehlert, S. Ehrlich, I. Gerasimov, C. Hölzer
   A. Katbashev, J. Kohn, J. Koopman, C. Lavigne, S. Lehtola, F. März, M. Müller,
   F. Musil, H. Neugebauer, J. Pisarek, C. Plett, P. Pracht, F. Pultar,
   J. Seibert, P. Shushkov, S. Spicher, M. Stahn, M. Steiner, T. Strunk,
   J. Stückrath, T. Rose, and J. Unsleber
   
 * started run on 2025/12/01 at 14:17:49.069     
   ID    Z sym.   atoms
    1    8 O      1, 3
    2    6 C      2, 4-7
    3    1 H      8-15

           -------------------------------------------------
          |                Calculation Setup                |
           -------------------------------------------------

          program call               : xtb pipeline_data/3_conformer_xyz/acrylates/rdkit/JIGUQPWFLRLWPJ-UHFFFAOYSA-N_conf168.xyz --opt --gfn 2-xTB --iterations 250
          coordinate file            : pipeline_data/3_conformer_xyz/acrylates/rdkit/JIGUQPWFLRLWPJ-UHFFFAOYSA-N_conf168.xyz
          omp threads                :                    24

########################################################################
[WARNING] Please study the warnings concerning your input carefully
-1- readin_getIntValue: could not parse '2-xTB'
########################################################################

           -------------------------------------------------
          |                 G F N 2 - x T B                 |
           -------------------------------------------------

        Reference                      10.1021/acs.jctc.8b01176
      * Hamiltonian:
        H0-scaling (s, p, d)           1.850000    2.230000    2.230000
        zeta-weighting                 0.500000
      * Dispersion:
        s8                             2.700000
        a1                             0.520000
        a2                             5.000000
        s9                             5.000000
      * Repulsion:
        kExp                           1.500000    1.000000
        rExp                           1.000000
      * Coulomb:
        alpha                          2.000000
        third order                    shell-resolved
        anisotropic                    true
        a3                             3.000000
        a5                             4.000000
        cn-shift                       1.200000
        cn-exp                         4.000000
        max-rad                        5.000000


          ...................................................
          :                      SETUP                      :
          :.................................................:
          :  # basis functions                  36          :
          :  # atomic orbitals                  36          :
          :  # shells                           22          :
          :  # electrons                        40          :
          :  max. iterations                   250          :
          :  Hamiltonian                  GFN2-xTB          :
          :  restarted?                      false          :
          :  GBSA solvation                  false          :
          :  PC potential                    false          :
          :  electronic temp.          300.0000000     K    :
          :  accuracy                    1.0000000          :
          :  -> integral cutoff          0.2500000E+02      :
          :  -> integral neglect         0.1000000E-07      :
          :  -> SCF convergence          0.1000000E-05 Eh   :
          :  -> wf. convergence          0.1000000E-03 e    :
          :  Broyden damping             0.4000000          :
          :  net charge                          0          :
          :  unpaired electrons                  0          :
          ...................................................

 iter      E             dE          RMSdq      gap      omega  full diag
   1    -23.0560466 -0.230560E+02  0.499E+00    4.22       0.0  T
   2    -23.1146479 -0.586013E-01  0.256E+00    2.95       1.0  T
   3    -23.1157527 -0.110479E-02  0.162E+00    3.60       1.0  T
   4    -23.1221473 -0.639465E-02  0.424E-01    3.27       1.0  T
   5    -23.1237344 -0.158704E-02  0.189E-01    3.35       1.0  T
   6    -23.1241026 -0.368254E-03  0.621E-02    3.35       1.0  T
   7    -23.1241069 -0.431545E-05  0.189E-02    3.34       1.4  T
   8    -23.1241075 -0.561592E-06  0.625E-03    3.34       4.1  T
   9    -23.1241076 -0.794534E-07  0.196E-03    3.34      13.2  T
  10    -23.1241076 -0.561824E-08  0.954E-04    3.34      27.1  T
  11    -23.1241076 -0.165064E-08  0.169E-04    3.34     152.4  T

   *** convergence criteria satisfied after 11 iterations ***

         #    Occupation            Energy/Eh            Energy/eV
      -------------------------------------------------------------
         1        2.0000           -0.7279114             -19.8075
       ...           ...                  ...                  ...
        14        2.0000           -0.4806888             -13.0802
        15        2.0000           -0.4715490             -12.8315
        16        2.0000           -0.4679923             -12.7347
        17        2.0000           -0.4586907             -12.4816
        18        2.0000           -0.4449284             -12.1071
        19        2.0000           -0.4317539             -11.7486
        20        2.0000           -0.4145834             -11.2814 (HOMO)
        21                         -0.2918111              -7.9406 (LUMO)
        22                         -0.1758624              -4.7855
        23                         -0.0252253              -0.6864
        24                          0.0881272               2.3981
        25                          0.0999592               2.7200
       ...                                ...                  ...
        36                          0.6073341              16.5264
      -------------------------------------------------------------
                  HL-Gap            0.1227723 Eh            3.3408 eV
             Fermi-level           -0.3531972 Eh           -9.6110 eV

 SCC (total)                   0 d,  0 h,  0 min,  0.017 sec
 SCC setup                      ...        0 min,  0.000 sec (  1.812%)
 Dispersion                     ...        0 min,  0.000 sec (  1.999%)
 classical contributions        ...        0 min,  0.000 sec (  0.914%)
 integral evaluation            ...        0 min,  0.001 sec (  5.829%)
 iterations                     ...        0 min,  0.013 sec ( 79.170%)
 molecular gradient             ...        0 min,  0.002 sec (  9.410%)
 printout                       ...        0 min,  0.000 sec (  0.709%)

         :::::::::::::::::::::::::::::::::::::::::::::::::::::
         ::                     SUMMARY                     ::
         :::::::::::::::::::::::::::::::::::::::::::::::::::::
         :: total energy             -22.875993310693 Eh    ::
         :: gradient norm              0.123158071538 Eh/a0 ::
         :: HOMO-LUMO gap              3.340804483924 eV    ::
         ::.................................................::
         :: SCC energy               -23.124094282041 Eh    ::
         :: -> isotropic ES            0.048487811261 Eh    ::
         :: -> anisotropic ES          0.000078128964 Eh    ::
         :: -> anisotropic XC          0.008287543317 Eh    ::
         :: -> dispersion             -0.008090061320 Eh    ::
         :: repulsion energy           0.248100971348 Eh    ::
         :: add. restraining           0.000000000000 Eh    ::
         :: total charge              -0.000000000000 e     ::
         :::::::::::::::::::::::::::::::::::::::::::::::::::::

      ----------------------------------------------------------- 
     |                   =====================                   |
     |                        A N C O P T                        |
     |                   =====================                   |
     |               Approximate Normal Coordinate               |
     |                Rational Function Optimizer                |
      ----------------------------------------------------------- 
      ----------------------------------------------------------- 
     |                   =====================                   |
     |                        A N C O P T                        |
     |                   =====================                   |
     |               Approximate Normal Coordinate               |
     |                Rational Function Optimizer                |
      ----------------------------------------------------------- 

          ...................................................
          :                      SETUP                      :
          :.................................................:
          :   optimization level            normal          :
          :   max. optcycles                   200          :
          :   ANC micro-cycles                  20          :
          :   degrees of freedom                39          :
          :.................................................:
          :   RF solver                   davidson          :
          :   write xtbopt.log                true          :
          :   linear?                        false          :
          :   energy convergence         0.5000000E-05 Eh   :
          :   grad. convergence          0.1000000E-02 Eh/α :
          :   maxmium RF displ.          1.0000000          :
          :   Hlow (freq-cutoff)         0.1000000E-01      :
          :   Hmax (freq-cutoff)         5.0000000          :
          :   S6 in model hess.         20.0000000          :
          ...................................................

generating ANC from exact Hessian ...
Using Lindh-Hessian (1995)
 Shifting diagonal of input Hessian by   7.934870390243570E-003
 Lowest  eigenvalues of input Hessian
    0.000000    0.000000    0.000000    0.000000    0.000000    0.000000
    0.010000    0.011393    0.012163    0.016557    0.024590    0.026342
    0.026758    0.037086    0.045540    0.052914    0.055199    0.068416
 Highest eigenvalues
    1.208783    1.241554    1.451163    1.754475    1.857950    2.146132
 

........................................................................
.............................. CYCLE    1 ..............................
........................................................................

 iter      E             dE          RMSdq      gap      omega  full diag
   1    -23.1241076 -0.231241E+02  0.761E-05    3.34       0.0  T
   2    -23.1241076 -0.597211E-11  0.461E-05    3.34     560.5  T
   3    -23.1241076  0.671463E-12  0.213E-05    3.34    1214.3  T
     SCC iter.                  ...        0 min,  0.002 sec
     gradient                   ...        0 min,  0.001 sec
 * total energy  :   -22.8759933 Eh     change       -0.5161382E-10 Eh
   gradient norm :     0.1231575 Eh/α   predicted     0.0000000E+00 (-100.00%)
   displ. norm   :     0.3100871 α      lambda       -0.1712557E-01
   maximum displ.:     0.1758064 α      in ANC's #12, #8, #6, ...

........................................................................
.............................. CYCLE    2 ..............................
........................................................................

 iter      E             dE          RMSdq      gap      omega  full diag
   1    -23.1569957 -0.231570E+02  0.395E-01    3.50       0.0  T
   2    -23.1572247 -0.229007E-03  0.244E-01    3.55       1.0  T
   3    -23.1571255  0.992160E-04  0.129E-01    3.55       1.0  T
   4    -23.1572505 -0.125022E-03  0.447E-02    3.57       1.0  T
   5    -23.1572714 -0.208459E-04  0.945E-03    3.56       2.7  T
   6    -23.1572718 -0.450262E-06  0.463E-03    3.56       5.6  T
   7    -23.1572719 -0.464629E-07  0.124E-03    3.56      20.8  T
   8    -23.1572719 -0.167078E-08  0.478E-04    3.56      54.0  T
   9    -23.1572719 -0.333117E-09  0.103E-04    3.56     251.8  T
     SCC iter.                  ...        0 min,  0.014 sec
     gradient                   ...        0 min,  0.001 sec
 * total energy  :   -22.8875561 Eh     change       -0.1156281E-01 Eh
   gradient norm :     0.0506774 Eh/α   predicted    -0.9386128E-02 ( -18.82%)
   displ. norm   :     0.2251035 α      lambda       -0.4476567E-02
   maximum displ.:     0.1289284 α      in ANC's #8, #6, #7, ...

........................................................................
.............................. CYCLE    3 ..............................
........................................................................

 iter      E             dE          RMSdq      gap      omega  full diag
   1    -23.1724463 -0.231724E+02  0.225E-01    3.66       0.0  T
   2    -23.1725451 -0.987943E-04  0.141E-01    3.69       1.0  T
   3    -23.1725263  0.187705E-04  0.705E-02    3.70       1.0  T
   4    -23.1725512 -0.249195E-04  0.293E-02    3.71       1.0  T
   5    -23.1725600 -0.879571E-05  0.711E-03    3.70       3.6  T
   6    -23.1725603 -0.321179E-06  0.266E-03    3.70       9.7  T
   7    -23.1725603 -0.126405E-07  0.676E-04    3.70      38.2  T
   8    -23.1725603 -0.571433E-09  0.282E-04    3.70      91.4  T
     SCC iter.                  ...        0 min,  0.012 sec
     gradient                   ...        0 min,  0.001 sec
 * total energy  :   -22.8899765 Eh     change       -0.2420342E-02 Eh
   gradient norm :     0.0189548 Eh/α   predicted    -0.2351702E-02 (  -2.84%)
   displ. norm   :     0.0715514 α      lambda       -0.3533105E-03
   maximum displ.:     0.0443109 α      in ANC's #6, #7, #4, ...

........................................................................
.............................. CYCLE    4 ..............................
........................................................................

 iter      E             dE          RMSdq      gap      omega  full diag
   1    -23.1710960 -0.231711E+02  0.533E-02    3.71       0.0  T
   2    -23.1711079 -0.118965E-04  0.324E-02    3.70       1.0  T
   3    -23.1711081 -0.144407E-06  0.167E-02    3.71       1.5  T
   4    -23.1711077  0.379098E-06  0.733E-03    3.70       3.5  T
   5    -23.1711083 -0.574288E-06  0.137E-03    3.71      18.8  T
   6    -23.1711083 -0.164220E-07  0.511E-04    3.71      50.5  T
   7    -23.1711083 -0.465562E-09  0.211E-04    3.71     122.5  T
     SCC iter.                  ...        0 min,  0.011 sec
     gradient                   ...        0 min,  0.001 sec
 * total energy  :   -22.8902035 Eh     change       -0.2270051E-03 Eh
   gradient norm :     0.0080666 Eh/α   predicted    -0.1775613E-03 ( -21.78%)
   displ. norm   :     0.0572915 α      lambda       -0.1206005E-03
   maximum displ.:     0.0383458 α      in ANC's #7, #4, #6, ...

........................................................................
.............................. CYCLE    5 ..............................
........................................................................

 iter      E             dE          RMSdq      gap      omega  full diag
   1    -23.1701691 -0.231702E+02  0.405E-02    3.72       0.0  T
   2    -23.1701749 -0.579215E-05  0.222E-02    3.71       1.2  T
   3    -23.1701751 -0.143166E-06  0.113E-02    3.71       2.3  T
   4    -23.1701751 -0.489952E-07  0.205E-03    3.71      12.6  T
   5    -23.1701752 -0.379402E-07  0.512E-04    3.71      50.5  T
   6    -23.1701752 -0.224745E-09  0.303E-04    3.71      85.1  T
     SCC iter.                  ...        0 min,  0.008 sec
     gradient                   ...        0 min,  0.004 sec
 * total energy  :   -22.8902658 Eh     change       -0.6233577E-04 Eh
   gradient norm :     0.0026201 Eh/α   predicted    -0.6049855E-04 (  -2.95%)
   displ. norm   :     0.0367763 α      lambda       -0.3677221E-04
   maximum displ.:     0.0252085 α      in ANC's #4, #7, #2, ...

........................................................................
.............................. CYCLE    6 ..............................
........................................................................

 iter      E             dE          RMSdq      gap      omega  full diag
   1    -23.1701092 -0.231701E+02  0.262E-02    3.71       0.0  T
   2    -23.1701096 -0.393263E-06  0.152E-02    3.71       1.7  T
   3    -23.1701095  0.128318E-06  0.529E-03    3.71       4.9  T
   4    -23.1701096 -0.145762E-06  0.189E-03    3.71      13.7  T
   5    -23.1701097 -0.414582E-07  0.527E-04    3.71      49.0  T
   6    -23.1701097 -0.128066E-08  0.245E-04    3.71     105.6  T
     SCC iter.                  ...        0 min,  0.008 sec
     gradient                   ...        0 min,  0.002 sec
 * total energy  :   -22.8902831 Eh     change       -0.1730046E-04 Eh
   gradient norm :     0.0024018 Eh/α   predicted    -0.1841210E-04 (   6.43%)
   displ. norm   :     0.0236182 α      lambda       -0.1325201E-04
   maximum displ.:     0.0164044 α      in ANC's #4, #2, #7, ...

........................................................................
.............................. CYCLE    7 ..............................
........................................................................

 iter      E             dE          RMSdq      gap      omega  full diag
   1    -23.1702476 -0.231702E+02  0.113E-02    3.71       0.0  T
   2    -23.1702477 -0.508523E-07  0.685E-03    3.71       3.8  T
   3    -23.1702477  0.142164E-07  0.155E-03    3.71      16.6  T
   4    -23.1702477 -0.135570E-07  0.710E-04    3.71      36.4  T
   5    -23.1702477 -0.602165E-08  0.209E-04    3.71     123.3  T
     SCC iter.                  ...        0 min,  0.003 sec
     gradient                   ...        0 min,  0.001 sec
 * total energy  :   -22.8902929 Eh     change       -0.9837615E-05 Eh
   gradient norm :     0.0015023 Eh/α   predicted    -0.6628397E-05 ( -32.62%)
   displ. norm   :     0.0824678 α      lambda       -0.1751275E-04
   maximum displ.:     0.0559563 α      in ANC's #4, #2, #7, ...

........................................................................
.............................. CYCLE    8 ..............................
........................................................................

 iter      E             dE          RMSdq      gap      omega  full diag
   1    -23.1704670 -0.231705E+02  0.296E-02    3.71       0.0  T
   2    -23.1704674 -0.361232E-06  0.178E-02    3.71       1.4  T
   3    -23.1704674  0.270973E-07  0.308E-03    3.71       8.4  T
   4    -23.1704674 -0.493818E-07  0.738E-04    3.71      35.0  T
   5    -23.1704674 -0.366705E-08  0.386E-04    3.71      66.8  T
     SCC iter.                  ...        0 min,  0.004 sec
     gradient                   ...        0 min,  0.001 sec
 * total energy  :   -22.8903027 Eh     change       -0.9783868E-05 Eh
   gradient norm :     0.0021460 Eh/α   predicted    -0.8781783E-05 ( -10.24%)
   displ. norm   :     0.0277334 α      lambda       -0.9371266E-05
   maximum displ.:     0.0182515 α      in ANC's #4, #2, #1, ...

........................................................................
.............................. CYCLE    9 ..............................
........................................................................

 iter      E             dE          RMSdq      gap      omega  full diag
   1    -23.1704938 -0.231705E+02  0.134E-02    3.71       0.0  T
   2    -23.1704938 -0.747623E-08  0.807E-03    3.71       3.2  T
   3    -23.1704938  0.306414E-07  0.167E-03    3.71      15.4  T
   4    -23.1704938 -0.354584E-07  0.252E-04    3.71     102.3  T
   5    -23.1704938 -0.101032E-09  0.100E-04    3.71     257.6  T
     SCC iter.                  ...        0 min,  0.003 sec
     gradient                   ...        0 min,  0.001 sec
 * total energy  :   -22.8903091 Eh     change       -0.6407841E-05 Eh
   gradient norm :     0.0015076 Eh/α   predicted    -0.4688179E-05 ( -26.84%)
   displ. norm   :     0.0396943 α      lambda       -0.7018232E-05
   maximum displ.:     0.0266078 α      in ANC's #2, #4, #1, ...

........................................................................
.............................. CYCLE   10 ..............................
........................................................................

 iter      E             dE          RMSdq      gap      omega  full diag
   1    -23.1705121 -0.231705E+02  0.183E-02    3.71       0.0  T
   2    -23.1705122 -0.524377E-07  0.110E-02    3.71       2.3  T
   3    -23.1705121  0.642413E-07  0.257E-03    3.71      10.0  T
   4    -23.1705122 -0.714314E-07  0.708E-04    3.71      36.5  T
   5    -23.1705122 -0.497107E-08  0.245E-04    3.71     105.4  T
     SCC iter.                  ...        0 min,  0.003 sec
     gradient                   ...        0 min,  0.001 sec
 * total energy  :   -22.8903141 Eh     change       -0.4924745E-05 Eh
   gradient norm :     0.0006911 Eh/α   predicted    -0.3512355E-05 ( -28.68%)
   displ. norm   :     0.0165429 α      lambda       -0.1294174E-05
   maximum displ.:     0.0107055 α      in ANC's #2, #4, #1, ...

   *** GEOMETRY OPTIMIZATION CONVERGED AFTER 10 ITERATIONS ***

------------------------------------------------------------------------
 total energy gain   :        -0.0143207 Eh       -8.9864 kcal/mol
 total RMSD          :         0.1694476 a0        0.0897 Å
 total power (kW/mol):        -3.7599109 (step) -275.4612 (real)
------------------------------------------------------------------------

 ANCopt (total)                0 d,  0 h,  0 min,  0.137 sec
 optimizer setup                ...        0 min,  0.000 sec (  0.078%)
 model hessian                  ...        0 min,  0.002 sec (  1.250%)
 ANC generation                 ...        0 min,  0.000 sec (  0.229%)
 coordinate transformation      ...        0 min,  0.000 sec (  0.056%)
 single point calculation       ...        0 min,  0.092 sec ( 67.488%)
 optimization log               ...        0 min,  0.001 sec (  0.766%)
 hessian update                 ...        0 min,  0.001 sec (  0.610%)
 rational function              ...        0 min,  0.040 sec ( 29.176%)

================
 final structure:
================
15
 xtb: 6.7.1 (edcfbbe)
O            0.65091152349265       -1.85170908320701        1.19217304413367
C            0.88462658149190       -0.79942299716153        0.64754629767423
O           -0.06059022098705       -0.03406216097822        0.09059789676158
C           -1.39813349213158       -0.52489225189662        0.17584562470974
C           -2.31969635093600        0.47798667004800       -0.49209344966482
C            2.24158326967501       -0.22229393969963        0.52401994003481
C            2.50350718994362        0.93481035789994       -0.06472452910509
H           -1.65640365565024       -0.66381411089412        1.23188456053231
H           -1.44784304583896       -1.50332302102216       -0.31547985304372
H           -3.34584309685835        0.12771177408403       -0.43201104856286
H           -2.24364103818771        1.44275713733371        0.00262490795143
H           -2.04616679888788        0.60030376365345       -1.53671319824153
H            3.01432292925681       -0.83553066162506        0.96525501153207
H            3.50618419549058        1.32228531172296       -0.13278546223521
H            1.71718301012718        1.52919421174228       -0.49877974247662
 
 Bond Distances (Angstroems)
 ---------------------------
O1-C2=1.2077         C2-O1=1.2077         C2-O3=1.3377         C2-C6=1.4798         O3-C2=1.3377         O3-C4=1.4273         
C4-O3=1.4273         C4-C5=1.5170         C4-H8=1.0960         C4-H9=1.0960         C5-C4=1.5170         C5-H10=1.0859        
C5-H11=1.0869        C5-H12=1.0867        C6-C2=1.4798         C6-C7=1.3244         C6-H13=1.0807        C7-C6=1.3244         
C7-H14=1.0771        C7-H15=1.0770        H8-C4=1.0960         H9-C4=1.0960         H10-C5=1.0859        H11-C5=1.0869        
H12-C5=1.0867        H13-C6=1.0807        H14-C7=1.0771        H15-C7=1.0770        
 C  H  Rav=1.0858 sigma=0.0070  Rmin=1.0770  Rmax=1.0960     8
 C  C  Rav=1.4404 sigma=0.0834  Rmin=1.3244  Rmax=1.5170     3
 O  C  Rav=1.3242 sigma=0.0902  Rmin=1.2077  Rmax=1.4273     3
 
 selected bond angles (degree)
 --------------------
O3-C2-O1=123.34                C6-C2-O1=123.71                C6-C2-O3=112.96                C4-O3-C2=116.14                
C5-C4-O3=108.40                H8-C4-O3=108.78                H8-C4-C5=111.40                H9-C4-O3=108.83                
H9-C4-C5=111.42                H9-C4-H8=107.94                H10-C5-C4=109.66               H11-C5-C4=110.11               
H11-C5-H10=109.10              H12-C5-C4=110.17               H12-C5-H10=109.11              H12-C5-H11=108.66              
C7-C6-C2=124.00                H13-C6-C2=113.60               H13-C6-C7=122.40               H14-C7-C6=121.77               
H15-C7-C6=121.13               H15-C7-H14=117.11              
 
 selected dihedral angles (degree)
 ---------------------------------
C4-O3-C2-O1=  0.33            C4-O3-C2-C6=180.25            C5-C4-O3-C2=179.40            H8-C4-O3-C2= 58.11            
H9-C4-O3-C2=300.74            H10-C5-C4-O3=180.44           H10-C5-C4-H8=300.09           H10-C5-C4-H9= 60.71           
H11-C5-C4-O3=300.50           H11-C5-C4-H8= 60.16           H11-C5-C4-H9=180.77           H12-C5-C4-O3= 60.34           
H12-C5-C4-H8=179.99           H12-C5-C4-H9=300.61           C7-C6-C2-O1=180.43            C7-C6-C2-O3=  0.50            
H13-C6-C2-O1=  0.29           H13-C6-C2-O3=180.36           H14-C7-C6-C2=179.88           H14-C7-C6-H13=  0.03          
H15-C7-C6-C2=359.79           H15-C7-C6-H13=179.94          
           -------------------------------------------------
          |                Final Singlepoint                |
           -------------------------------------------------

          ...................................................
          :                      SETUP                      :
          :.................................................:
          :  # basis functions                  36          :
          :  # atomic orbitals                  36          :
          :  # shells                           22          :
          :  # electrons                        40          :
          :  max. iterations                   250          :
          :  Hamiltonian                  GFN2-xTB          :
          :  restarted?                      false          :
          :  GBSA solvation                  false          :
          :  PC potential                    false          :
          :  electronic temp.          300.0000000     K    :
          :  accuracy                    1.0000000          :
          :  -> integral cutoff          0.2500000E+02      :
          :  -> integral neglect         0.1000000E-07      :
          :  -> SCF convergence          0.1000000E-05 Eh   :
          :  -> wf. convergence          0.1000000E-03 e    :
          :  Broyden damping             0.4000000          :
          :  net charge                          0          :
          :  unpaired electrons                  0          :
          ...................................................

 iter      E             dE          RMSdq      gap      omega  full diag
   1    -23.1705122 -0.231705E+02  0.768E-05    3.71       0.0  T
   2    -23.1705122 -0.675726E-11  0.506E-05    3.71     509.8  T
   3    -23.1705122  0.607514E-12  0.234E-05    3.71    1105.5  T

   *** convergence criteria satisfied after 3 iterations ***

         #    Occupation            Energy/Eh            Energy/eV
      -------------------------------------------------------------
         1        2.0000           -0.7405865             -20.1524
       ...           ...                  ...                  ...
        14        2.0000           -0.4850186             -13.1980
        15        2.0000           -0.4761706             -12.9573
        16        2.0000           -0.4685640             -12.7503
        17        2.0000           -0.4632052             -12.6045
        18        2.0000           -0.4419965             -12.0273
        19        2.0000           -0.4364148             -11.8755
        20        2.0000           -0.4133248             -11.2471 (HOMO)
        21                         -0.2769949              -7.5374 (LUMO)
        22                         -0.1650384              -4.4909
        23                          0.0074574               0.2029
        24                          0.1015285               2.7627
        25                          0.1202132               3.2712
       ...                                ...                  ...
        36                          0.6998887              19.0449
      -------------------------------------------------------------
                  HL-Gap            0.1363300 Eh            3.7097 eV
             Fermi-level           -0.3451599 Eh           -9.3923 eV

 SCC (total)                   0 d,  0 h,  0 min,  0.005 sec
 SCC setup                      ...        0 min,  0.000 sec (  9.262%)
 Dispersion                     ...        0 min,  0.000 sec (  3.978%)
 classical contributions        ...        0 min,  0.000 sec (  0.812%)
 integral evaluation            ...        0 min,  0.000 sec (  6.158%)
 iterations                     ...        0 min,  0.002 sec ( 46.709%)
 molecular gradient             ...        0 min,  0.001 sec ( 21.771%)
 printout                       ...        0 min,  0.001 sec ( 10.848%)

         :::::::::::::::::::::::::::::::::::::::::::::::::::::
         ::                     SUMMARY                     ::
         :::::::::::::::::::::::::::::::::::::::::::::::::::::
         :: total energy             -22.890314054996 Eh    ::
         :: gradient norm              0.000690747315 Eh/a0 ::
         :: HOMO-LUMO gap              3.709726881553 eV    ::
         ::.................................................::
         :: SCC energy               -23.170497624600 Eh    ::
         :: -> isotropic ES            0.045831393613 Eh    ::
         :: -> anisotropic ES          0.000825914946 Eh    ::
         :: -> anisotropic XC          0.007098551590 Eh    ::
         :: -> dispersion             -0.008210311255 Eh    ::
         :: repulsion energy           0.280183569604 Eh    ::
         :: add. restraining           0.000000000000 Eh    ::
         :: total charge              -0.000000000000 e     ::
         :::::::::::::::::::::::::::::::::::::::::::::::::::::

           -------------------------------------------------
          |                Property Printout                |
           -------------------------------------------------

    * Orbital Energies and Occupations

         #    Occupation            Energy/Eh            Energy/eV
      -------------------------------------------------------------
         1        2.0000           -0.7405865             -20.1524
       ...           ...                  ...                  ...
         8        2.0000           -0.5851799             -15.9236
         9        2.0000           -0.5551465             -15.1063
        10        2.0000           -0.5451569             -14.8345
        11        2.0000           -0.5242696             -14.2661
        12        2.0000           -0.5137135             -13.9789
        13        2.0000           -0.4944814             -13.4555
        14        2.0000           -0.4850186             -13.1980
        15        2.0000           -0.4761706             -12.9573
        16        2.0000           -0.4685640             -12.7503
        17        2.0000           -0.4632052             -12.6045
        18        2.0000           -0.4419965             -12.0273
        19        2.0000           -0.4364148             -11.8755
        20        2.0000           -0.4133248             -11.2471 (HOMO)
        21                         -0.2769949              -7.5374 (LUMO)
        22                         -0.1650384              -4.4909
        23                          0.0074574               0.2029
        24                          0.1015285               2.7627
        25                          0.1202132               3.2712
        26                          0.1303849               3.5480
        27                          0.1425340               3.8785
        28                          0.1442877               3.9263
        29                          0.1689953               4.5986
        30                          0.1912949               5.2054
        31                          0.2403769               6.5410
       ...                                ...                  ...
        36                          0.6998887              19.0449
      -------------------------------------------------------------
                  HL-Gap            0.1363300 Eh            3.7097 eV
             Fermi-level           -0.3451599 Eh           -9.3923 eV

     #   Z          covCN         q      C6AA      α(0)
     1   8 O        0.857    -0.415    21.985     6.286
     2   6 C        2.725     0.354    20.982     7.499
     3   8 O        1.704    -0.265    18.385     5.789
     4   6 C        3.704     0.085    19.308     6.282
     5   6 C        3.751    -0.116    22.776     6.806
     6   6 C        2.887    -0.057    29.424     8.893
     7   6 C        2.838    -0.063    29.553     8.909
     8   1 H        0.924     0.051     2.302     2.373
     9   1 H        0.924     0.051     2.303     2.373
    10   1 H        0.925     0.053     2.284     2.363
    11   1 H        0.925     0.058     2.224     2.332
    12   1 H        0.925     0.058     2.225     2.333
    13   1 H        0.926     0.071     2.078     2.254
    14   1 H        0.926     0.062     2.176     2.307
    15   1 H        0.926     0.072     2.066     2.248

 Mol. C6AA /au·bohr⁶  :       2055.426221
 Mol. C8AA /au·bohr⁸  :      45536.889997
 Mol. α(0) /au        :         69.047439


Wiberg/Mayer (AO) data.
largest (>0.10) Wiberg bond orders for each atom

 ---------------------------------------------------------------------------
     #   Z sym  total        # sym  WBO       # sym  WBO       # sym  WBO
 ---------------------------------------------------------------------------
     1   8 O    2.029 --     2 C    1.723     3 O    0.173
     2   6 C    3.921 --     1 O    1.723     3 O    1.127     6 C    1.012
     3   8 O    2.305 --     2 C    1.127     4 C    0.939     1 O    0.173
     4   6 C    3.929 --     5 C    1.020     8 H    0.968     9 H    0.968
                             3 O    0.939
     5   6 C    3.991 --     4 C    1.020    12 H    0.985    11 H    0.985
                            10 H    0.984
     6   6 C    3.988 --     7 C    1.935     2 C    1.012    13 H    0.963
     7   6 C    3.984 --     6 C    1.935    14 H    0.975    15 H    0.971
     8   1 H    0.997 --     4 C    0.968
     9   1 H    0.997 --     4 C    0.968
    10   1 H    0.996 --     5 C    0.984
    11   1 H    0.997 --     5 C    0.985
    12   1 H    0.997 --     5 C    0.985
    13   1 H    0.995 --     6 C    0.963
    14   1 H    0.996 --     7 C    0.975
    15   1 H    0.995 --     7 C    0.971
 ---------------------------------------------------------------------------

Topologies differ in total number of bonds
Writing topology from bond orders to xtbtopo.mol

molecular dipole:
                 x           y           z       tot (Debye)
 q only:       -0.205       0.935      -0.536
   full:       -0.174       0.967      -0.549       2.860
molecular quadrupole (traceless):
                xx          xy          yy          xz          yz          zz
 q only:        8.441       2.716      -5.508      -0.195       3.038      -2.933
  q+dip:        8.327       3.247      -5.743      -0.587       3.677      -2.585
   full:        8.246       3.041      -6.301      -0.654       4.570      -1.944

           -------------------------------------------------
          |                Geometry Summary                 |
           -------------------------------------------------

      molecular mass/u    :      100.1160153
   center of mass at/Å    :        0.2985126      -0.2970832       0.2926355
  moments of inertia/u·Å² :        0.1065004E+03   0.2899359E+03   0.3901226E+03
rotational constants/cm⁻¹ :        0.1582871E+00   0.5814261E-01   0.4321111E-01

 * 13 selected distances

     #   Z          #   Z                                           value/Å
     1   8 O        2   6 C                                       1.2077033
     2   6 C        3   8 O                                       1.3376860
     3   8 O        4   6 C                                       1.4273065
     4   6 C        5   6 C                                       1.5169665 (max)
     6   6 C        7   6 C                                       1.3244300
     4   6 C        8   1 H                                       1.0960024
     4   6 C        9   1 H                                       1.0959921
     5   6 C       10   1 H                                       1.0859465
     5   6 C       11   1 H                                       1.0868822
     5   6 C       12   1 H                                       1.0867431
     6   6 C       13   1 H                                       1.0806824
     7   6 C       14   1 H                                       1.0770936
     7   6 C       15   1 H                                       1.0770339 (min)

 * 3 distinct bonds (by element types)

   Z      Z             #   av. dist./Å        max./Å        min./Å
   1 H    6 C           8     1.0857970     1.0960024     1.0770339
   6 C    6 C           2     1.4206982     1.5169665     1.3244300
   6 C    8 O           3     1.3242319     1.4273065     1.2077033


optimized geometry written to: xtbopt.xyz


           -------------------------------------------------
          | TOTAL ENERGY              -22.890314054996 Eh   |
          | GRADIENT NORM               0.000690747315 Eh/α |
          | HOMO-LUMO GAP               3.709726881553 eV   |
           -------------------------------------------------
########################################################################
[WARNING] Runtime exception occurred
-2- restart_readRestart: Dimension missmatch in restart file.
-1- restart_readRestart: Number of electron missmatch in restart file.
########################################################################

------------------------------------------------------------------------
 * finished run on 2025/12/01 at 14:17:49.262     
------------------------------------------------------------------------
 total:
 * wall-time:     0 d,  0 h,  0 min,  0.192 sec
 *  cpu-time:     0 d,  0 h,  0 min,  3.699 sec
 * ratio c/w:    19.242 speedup
 SCF:
 * wall-time:     0 d,  0 h,  0 min,  0.017 sec
 *  cpu-time:     0 d,  0 h,  0 min,  0.387 sec
 * ratio c/w:    22.632 speedup
 ANC optimizer:
 * wall-time:     0 d,  0 h,  0 min,  0.142 sec
 *  cpu-time:     0 d,  0 h,  0 min,  3.179 sec
 * ratio c/w:    22.324 speedup

normal termination of xtb
