      -----------------------------------------------------------      
     |                   =====================                   |     
     |                           x T B                           |     
     |                   =====================                   |     
     |                         S. Grimme                         |     
     |          Mulliken Center for Theoretical Chemistry        |     
     |                    University of Bonn                     |     
      -----------------------------------------------------------      

   * xtb version 6.7.1 (edcfbbe) compiled by 'albert@albert-system' on 2024-07-22

   xtb is free software: you can redistribute it and/or modify it under
   the terms of the GNU Lesser General Public License as published by
   the Free Software Foundation, either version 3 of the License, or
   (at your option) any later version.
   
   xtb is distributed in the hope that it will be useful,
   but WITHOUT ANY WARRANTY; without even the implied warranty of
   MERCHANTABILITY or FITNESS FOR A PARTICULAR PURPOSE.  See the
   GNU Lesser General Public License for more details.
   
   Cite this work as:
   * C. Bannwarth, E. Caldeweyher, S. Ehlert, A. Hansen, P. Pracht,
     J. Seibert, S. Spicher, S. Grimme, WIREs Comput. Mol. Sci., 2020, 11,
     e01493. DOI: 10.1002/wcms.1493
   
   for GFN2-xTB:
   * C. Bannwarth, S. Ehlert and S. Grimme., J. Chem. Theory Comput., 2019,
     15, 1652-1671. DOI: 10.1021/acs.jctc.8b01176
   for GFN1-xTB:
   * S. Grimme, C. Bannwarth, P. Shushkov, J. Chem. Theory Comput., 2017,
     13, 1989-2009. DOI: 10.1021/acs.jctc.7b00118
   for GFN0-xTB:
   * P. Pracht, E. Caldeweyher, S. Ehlert, S. Grimme, ChemRxiv, 2019, preprint.
     DOI: 10.26434/chemrxiv.8326202.v1
   for GFN-FF:
   * S. Spicher and S. Grimme, Angew. Chem. Int. Ed., 2020, 59, 15665-15673.
     DOI: 10.1002/anie.202004239
   
   for ALPB and GBSA implicit solvation:
   * S. Ehlert, M. Stahn, S. Spicher, S. Grimme, J. Chem. Theory Comput.,
     2021, 17, 4250-4261. DOI: 10.1021/acs.jctc.1c00471
   
   for ddCOSMO and CPCM-X implicit solvation:
   * M. Stahn, S. Ehlert, S. Grimme, J. Phys. Chem. A,
     2023, XX, XXXX-XXXX. DOI: 10.1021/acs.jpca.3c04382
   
   for DFT-D4:
   * E. Caldeweyher, C. Bannwarth and S. Grimme, J. Chem. Phys., 2017,
     147, 034112. DOI: 10.1063/1.4993215
   * E. Caldeweyher, S. Ehlert, A. Hansen, H. Neugebauer, S. Spicher,
     C. Bannwarth and S. Grimme, J. Chem. Phys., 2019, 150, 154122.
     DOI: 10.1063/1.5090222
   * E. Caldeweyher, J.-M. Mewes, S. Ehlert and S. Grimme, Phys. Chem. Chem. Phys.
     2020, 22, 8499-8512. DOI: 10.1039/D0CP00502A
   
   for sTDA-xTB:
   * S. Grimme and C. Bannwarth, J. Chem. Phys., 2016, 145, 054103.
     DOI: 10.1063/1.4959605
   
   in the mass-spec context:
   * V. Asgeirsson, C. Bauer and S. Grimme, Chem. Sci., 2017, 8, 4879.
     DOI: 10.1039/c7sc00601b
   * J. Koopman and S. Grimme, ACS Omega 2019, 4, 12, 15120-15133.
     DOI: 10.1021/acsomega.9b02011
   
   for metadynamics refer to:
   * S. Grimme, J. Chem. Theory Comput., 2019, 155, 2847-2862
     DOI: 10.1021/acs.jctc.9b00143
   
   for SPH calculations refer to:
   * S. Spicher and S. Grimme, J. Chem. Theory Comput., 2021, 17, 1701-1714
     DOI: 10.1021/acs.jctc.0c01306
   
   for ONIOM refer to:
   * C. Plett, A. Katbashev, S. Ehlert, S. Grimme, M. Bursch,
     Phys. Chem. Chem. Phys., 2023, 25, 17860-17868. DOI: 10.1039/D3CP02178E
   
   for DIPRO refer to:
   * J. Kohn, N. Gildemeister, S. Grimme, D. Fazzi, A. Hansen,
     J. Chem. Phys., 2023, just accepted.
   
   for PTB refer to:
   * S. Grimme, M. Mueller, A. Hansen, J. Chem. Phys., 2023, 158, 124111.
     DOI: 10.1063/5.0137838
   
   with help from (in alphabetical order)
   P. Atkinson, C. Bannwarth, F. Bohle, G. Brandenburg, E. Caldeweyher
   M. Checinski, S. Dohm, S. Ehlert, S. Ehrlich, I. Gerasimov, C. Hölzer
   A. Katbashev, J. Kohn, J. Koopman, C. Lavigne, S. Lehtola, F. März, M. Müller,
   F. Musil, H. Neugebauer, J. Pisarek, C. Plett, P. Pracht, F. Pultar,
   J. Seibert, P. Shushkov, S. Spicher, M. Stahn, M. Steiner, T. Strunk,
   J. Stückrath, T. Rose, and J. Unsleber
   
 * started run on 2025/12/01 at 14:17:50.218     
   ID    Z sym.   atoms
    1    6 C      1, 2, 4, 6-13
    2    8 O      3, 5
    3    1 H      14-25

           -------------------------------------------------
          |                Calculation Setup                |
           -------------------------------------------------

          program call               : xtb pipeline_data/3_conformer_xyz/acrylates/rdkit/KBEBGUQPQBELIU-CMDGGOBGSA-N_conf235.xyz --opt --gfn 2-xTB --iterations 250
          coordinate file            : pipeline_data/3_conformer_xyz/acrylates/rdkit/KBEBGUQPQBELIU-CMDGGOBGSA-N_conf235.xyz
          omp threads                :                    24

########################################################################
[WARNING] Please study the warnings concerning your input carefully
-1- readin_getIntValue: could not parse '2-xTB'
########################################################################

           -------------------------------------------------
          |                 G F N 2 - x T B                 |
           -------------------------------------------------

        Reference                      10.1021/acs.jctc.8b01176
      * Hamiltonian:
        H0-scaling (s, p, d)           1.850000    2.230000    2.230000
        zeta-weighting                 0.500000
      * Dispersion:
        s8                             2.700000
        a1                             0.520000
        a2                             5.000000
        s9                             5.000000
      * Repulsion:
        kExp                           1.500000    1.000000
        rExp                           1.000000
      * Coulomb:
        alpha                          2.000000
        third order                    shell-resolved
        anisotropic                    true
        a3                             3.000000
        a5                             4.000000
        cn-shift                       1.200000
        cn-exp                         4.000000
        max-rad                        5.000000

q/qsh data taken from xtbrestart
CAMM data taken from xtbrestart

          ...................................................
          :                      SETUP                      :
          :.................................................:
          :  # basis functions                  64          :
          :  # atomic orbitals                  64          :
          :  # shells                           38          :
          :  # electrons                        68          :
          :  max. iterations                   250          :
          :  Hamiltonian                  GFN2-xTB          :
          :  restarted?                       true          :
          :  GBSA solvation                  false          :
          :  PC potential                    false          :
          :  electronic temp.          300.0000000     K    :
          :  accuracy                    1.0000000          :
          :  -> integral cutoff          0.2500000E+02      :
          :  -> integral neglect         0.1000000E-07      :
          :  -> SCF convergence          0.1000000E-05 Eh   :
          :  -> wf. convergence          0.1000000E-03 e    :
          :  Broyden damping             0.4000000          :
          :  net charge                          0          :
          :  unpaired electrons                  0          :
          ...................................................

 iter      E             dE          RMSdq      gap      omega  full diag
   1    -38.3146948 -0.383147E+02  0.519E+00    3.07       0.0  T
   2    -38.3195412 -0.484642E-02  0.310E+00    3.06       1.0  T
   3    -38.3196517 -0.110516E-03  0.275E-01    3.06       1.0  T
   4    -38.3206197 -0.967924E-03  0.123E-01    3.02       1.0  T
   5    -38.3206849 -0.652469E-04  0.665E-02    3.02       1.0  T
   6    -38.3207015 -0.165823E-04  0.228E-02    3.02       1.0  T
   7    -38.3207074 -0.593486E-05  0.916E-03    3.02       2.2  T
   8    -38.3207086 -0.116995E-05  0.450E-03    3.02       4.4  T
   9    -38.3207087 -0.929569E-07  0.215E-03    3.02       9.3  T
  10    -38.3207087 -0.503523E-07  0.594E-04    3.02      33.7  T
  11    -38.3207087 -0.752941E-09  0.270E-04    3.02      73.9  T

   *** convergence criteria satisfied after 11 iterations ***

         #    Occupation            Energy/Eh            Energy/eV
      -------------------------------------------------------------
         1        2.0000           -0.7244711             -19.7139
       ...           ...                  ...                  ...
        28        2.0000           -0.4493020             -12.2261
        29        2.0000           -0.4388712             -11.9423
        30        2.0000           -0.4285745             -11.6621
        31        2.0000           -0.4264753             -11.6050
        32        2.0000           -0.4158959             -11.3171
        33        2.0000           -0.4076758             -11.0934
        34        2.0000           -0.4029386             -10.9645 (HOMO)
        35                         -0.2918767              -7.9424 (LUMO)
        36                         -0.2324888              -6.3263
        37                         -0.2212470              -6.0204
        38                         -0.1607068              -4.3731
        39                         -0.0832873              -2.2664
       ...                                ...                  ...
        64                          0.7012231              19.0813
      -------------------------------------------------------------
                  HL-Gap            0.1110618 Eh            3.0221 eV
             Fermi-level           -0.3474077 Eh           -9.4534 eV

 SCC (total)                   0 d,  0 h,  0 min,  0.041 sec
 SCC setup                      ...        0 min,  0.000 sec (  0.532%)
 Dispersion                     ...        0 min,  0.000 sec (  0.481%)
 classical contributions        ...        0 min,  0.000 sec (  0.134%)
 integral evaluation            ...        0 min,  0.001 sec (  1.867%)
 iterations                     ...        0 min,  0.034 sec ( 82.686%)
 molecular gradient             ...        0 min,  0.005 sec ( 13.401%)
 printout                       ...        0 min,  0.000 sec (  0.823%)

         :::::::::::::::::::::::::::::::::::::::::::::::::::::
         ::                     SUMMARY                     ::
         :::::::::::::::::::::::::::::::::::::::::::::::::::::
         :: total energy             -37.765936780845 Eh    ::
         :: gradient norm              0.126081501208 Eh/a0 ::
         :: HOMO-LUMO gap              3.022146162039 eV    ::
         ::.................................................::
         :: SCC energy               -38.320897008738 Eh    ::
         :: -> isotropic ES            0.049779740044 Eh    ::
         :: -> anisotropic ES          0.001219034274 Eh    ::
         :: -> anisotropic XC          0.016926119443 Eh    ::
         :: -> dispersion             -0.019440071216 Eh    ::
         :: repulsion energy           0.554960227893 Eh    ::
         :: add. restraining           0.000000000000 Eh    ::
         :: total charge              -0.000000000000 e     ::
         :::::::::::::::::::::::::::::::::::::::::::::::::::::

      ----------------------------------------------------------- 
     |                   =====================                   |
     |                        A N C O P T                        |
     |                   =====================                   |
     |               Approximate Normal Coordinate               |
     |                Rational Function Optimizer                |
      ----------------------------------------------------------- 
      ----------------------------------------------------------- 
     |                   =====================                   |
     |                        A N C O P T                        |
     |                   =====================                   |
     |               Approximate Normal Coordinate               |
     |                Rational Function Optimizer                |
      ----------------------------------------------------------- 

          ...................................................
          :                      SETUP                      :
          :.................................................:
          :   optimization level            normal          :
          :   max. optcycles                   200          :
          :   ANC micro-cycles                  20          :
          :   degrees of freedom                69          :
          :.................................................:
          :   RF solver                   davidson          :
          :   write xtbopt.log                true          :
          :   linear?                        false          :
          :   energy convergence         0.5000000E-05 Eh   :
          :   grad. convergence          0.1000000E-02 Eh/α :
          :   maxmium RF displ.          1.0000000          :
          :   Hlow (freq-cutoff)         0.1000000E-01      :
          :   Hmax (freq-cutoff)         5.0000000          :
          :   S6 in model hess.         20.0000000          :
          ...................................................

generating ANC from exact Hessian ...
Using Lindh-Hessian (1995)
 Shifting diagonal of input Hessian by   9.276996440849419E-003
 Lowest  eigenvalues of input Hessian
    0.000000    0.000000    0.000000    0.000000    0.000000    0.000000
    0.010000    0.010565    0.010584    0.013198    0.013828    0.016390
    0.018443    0.021305    0.021958    0.024928    0.029482    0.032049
 Highest eigenvalues
    1.712354    1.914583    1.974041    2.038425    2.096296    2.138619
 

........................................................................
.............................. CYCLE    1 ..............................
........................................................................

 iter      E             dE          RMSdq      gap      omega  full diag
   1    -38.3207087 -0.383207E+02  0.101E-04    3.02       0.0  T
   2    -38.3207087 -0.110958E-09  0.655E-05    3.02     305.6  T
   3    -38.3207087 -0.830269E-10  0.355E-05    3.02     563.3  T
     SCC iter.                  ...        0 min,  0.004 sec
     gradient                   ...        0 min,  0.003 sec
 * total energy  :   -37.7659368 Eh     change       -0.3386305E-09 Eh
   gradient norm :     0.1260823 Eh/α   predicted     0.0000000E+00 (-100.00%)
   displ. norm   :     0.2971012 α      lambda       -0.1786103E-01
   maximum displ.:     0.1449924 α      in ANC's #16, #14, #19, ...

........................................................................
.............................. CYCLE    2 ..............................
........................................................................

 iter      E             dE          RMSdq      gap      omega  full diag
   1    -38.3420387 -0.383420E+02  0.219E-01    3.04       0.0  T
   2    -38.3423055 -0.266860E-03  0.148E-01    3.01       1.0  T
   3    -38.3423147 -0.919470E-05  0.793E-02    3.01       1.0  T
   4    -38.3423533 -0.385921E-04  0.381E-02    3.01       1.0  T
   5    -38.3423793 -0.260172E-04  0.710E-03    3.01       2.8  T
   6    -38.3423799 -0.553535E-06  0.328E-03    3.01       6.1  T
   7    -38.3423799 -0.584886E-07  0.166E-03    3.01      12.1  T
   8    -38.3423800 -0.229328E-07  0.575E-04    3.01      34.8  T
   9    -38.3423800 -0.161653E-08  0.231E-04    3.01      86.5  T
     SCC iter.                  ...        0 min,  0.011 sec
     gradient                   ...        0 min,  0.003 sec
 * total energy  :   -37.7782936 Eh     change       -0.1235684E-01 Eh
   gradient norm :     0.0457990 Eh/α   predicted    -0.9723012E-02 ( -21.31%)
   displ. norm   :     0.2945108 α      lambda       -0.5426364E-02
   maximum displ.:     0.1703001 α      in ANC's #14, #9, #16, ...

........................................................................
.............................. CYCLE    3 ..............................
........................................................................

 iter      E             dE          RMSdq      gap      omega  full diag
   1    -38.3535186 -0.383535E+02  0.159E-01    3.03       0.0  T
   2    -38.3536062 -0.876350E-04  0.102E-01    3.02       1.0  T
   3    -38.3535802  0.260367E-04  0.588E-02    3.02       1.0  T
   4    -38.3536278 -0.475832E-04  0.221E-02    3.02       1.0  T
   5    -38.3536359 -0.814064E-05  0.465E-03    3.01       4.3  T
   6    -38.3536362 -0.236088E-06  0.206E-03    3.02       9.7  T
   7    -38.3536362 -0.434010E-07  0.950E-04    3.02      21.1  T
   8    -38.3536362 -0.699470E-08  0.347E-04    3.02      57.6  T
     SCC iter.                  ...        0 min,  0.010 sec
     gradient                   ...        0 min,  0.003 sec
 * total energy  :   -37.7814420 Eh     change       -0.3148344E-02 Eh
   gradient norm :     0.0144962 Eh/α   predicted    -0.2949302E-02 (  -6.32%)
   displ. norm   :     0.1514205 α      lambda       -0.7014673E-03
   maximum displ.:     0.0853134 α      in ANC's #14, #9, #7, ...

........................................................................
.............................. CYCLE    4 ..............................
........................................................................

 iter      E             dE          RMSdq      gap      omega  full diag
   1    -38.3546339 -0.383546E+02  0.604E-02    3.03       0.0  T
   2    -38.3546372 -0.324943E-05  0.359E-02    3.03       1.0  T
   3    -38.3546342  0.292528E-05  0.139E-02    3.02       1.4  T
   4    -38.3546372 -0.301594E-05  0.466E-03    3.03       4.3  T
   5    -38.3546377 -0.502523E-06  0.105E-03    3.03      19.1  T
   6    -38.3546378 -0.727452E-08  0.610E-04    3.03      32.8  T
   7    -38.3546378 -0.180200E-08  0.215E-04    3.03      92.9  T
     SCC iter.                  ...        0 min,  0.009 sec
     gradient                   ...        0 min,  0.002 sec
 * total energy  :   -37.7819150 Eh     change       -0.4730677E-03 Eh
   gradient norm :     0.0075449 Eh/α   predicted    -0.3587795E-03 ( -24.16%)
   displ. norm   :     0.1338200 α      lambda       -0.2830748E-03
   maximum displ.:     0.0770309 α      in ANC's #7, #6, #14, ...

........................................................................
.............................. CYCLE    5 ..............................
........................................................................

 iter      E             dE          RMSdq      gap      omega  full diag
   1    -38.3558861 -0.383559E+02  0.455E-02    3.04       0.0  T
   2    -38.3558870 -0.862127E-06  0.271E-02    3.04       1.0  T
   3    -38.3558868  0.187954E-06  0.408E-03    3.04       4.9  T
   4    -38.3558870 -0.235804E-06  0.173E-03    3.04      11.6  T
   5    -38.3558871 -0.525859E-07  0.606E-04    3.04      33.0  T
   6    -38.3558871 -0.734808E-09  0.366E-04    3.04      54.7  T
     SCC iter.                  ...        0 min,  0.008 sec
     gradient                   ...        0 min,  0.003 sec
 * total energy  :   -37.7821008 Eh     change       -0.1857700E-03 Eh
   gradient norm :     0.0032753 Eh/α   predicted    -0.1440740E-03 ( -22.44%)
   displ. norm   :     0.1098796 α      lambda       -0.1179546E-03
   maximum displ.:     0.0739608 α      in ANC's #7, #4, #6, ...

........................................................................
.............................. CYCLE    6 ..............................
........................................................................

 iter      E             dE          RMSdq      gap      omega  full diag
   1    -38.3565557 -0.383566E+02  0.337E-02    3.05       0.0  T
   2    -38.3565558 -0.191810E-06  0.201E-02    3.05       1.0  T
   3    -38.3565557  0.136038E-06  0.248E-03    3.05       8.1  T
   4    -38.3565559 -0.170624E-06  0.884E-04    3.05      22.6  T
   5    -38.3565559 -0.135798E-07  0.455E-04    3.05      43.9  T
     SCC iter.                  ...        0 min,  0.006 sec
     gradient                   ...        0 min,  0.002 sec
 * total energy  :   -37.7821876 Eh     change       -0.8681182E-04 Eh
   gradient norm :     0.0042178 Eh/α   predicted    -0.5972246E-04 ( -31.20%)
   displ. norm   :     0.1452026 α      lambda       -0.1199017E-03
   maximum displ.:     0.1003581 α      in ANC's #7, #4, #8, ...

........................................................................
.............................. CYCLE    7 ..............................
........................................................................

 iter      E             dE          RMSdq      gap      omega  full diag
   1    -38.3567409 -0.383567E+02  0.422E-02    3.05       0.0  T
   2    -38.3567411 -0.195607E-06  0.252E-02    3.05       1.0  T
   3    -38.3567410  0.955442E-07  0.239E-03    3.05       8.4  T
   4    -38.3567411 -0.133916E-06  0.997E-04    3.05      20.1  T
   5    -38.3567411 -0.162645E-07  0.505E-04    3.05      39.6  T
     SCC iter.                  ...        0 min,  0.006 sec
     gradient                   ...        0 min,  0.002 sec
 * total energy  :   -37.7822727 Eh     change       -0.8508225E-04 Eh
   gradient norm :     0.0052861 Eh/α   predicted    -0.6122067E-04 ( -28.05%)
   displ. norm   :     0.1320627 α      lambda       -0.9581717E-04
   maximum displ.:     0.0901814 α      in ANC's #7, #4, #8, ...

........................................................................
.............................. CYCLE    8 ..............................
........................................................................

 iter      E             dE          RMSdq      gap      omega  full diag
   1    -38.3566456 -0.383566E+02  0.407E-02    3.05       0.0  T
   2    -38.3566457 -0.157088E-06  0.242E-02    3.05       1.0  T
   3    -38.3566457 -0.171354E-07  0.128E-03    3.05      15.7  T
   4    -38.3566457 -0.163216E-07  0.629E-04    3.05      31.8  T
   5    -38.3566457 -0.205807E-08  0.353E-04    3.05      56.7  T
     SCC iter.                  ...        0 min,  0.006 sec
     gradient                   ...        0 min,  0.003 sec
 * total energy  :   -37.7823416 Eh     change       -0.6891178E-04 Eh
   gradient norm :     0.0041742 Eh/α   predicted    -0.4874476E-04 ( -29.26%)
   displ. norm   :     0.1161603 α      lambda       -0.7236526E-04
   maximum displ.:     0.0761641 α      in ANC's #7, #4, #8, ...

........................................................................
.............................. CYCLE    9 ..............................
........................................................................

 iter      E             dE          RMSdq      gap      omega  full diag
   1    -38.3565314 -0.383565E+02  0.383E-02    3.05       0.0  T
   2    -38.3565316 -0.193790E-06  0.228E-02    3.05       1.0  T
   3    -38.3565315  0.609517E-07  0.194E-03    3.05      10.3  T
   4    -38.3565316 -0.749997E-07  0.101E-03    3.05      19.8  T
   5    -38.3565316 -0.223521E-07  0.395E-04    3.05      50.7  T
   6    -38.3565316 -0.162487E-09  0.200E-04    3.05      99.9  T
     SCC iter.                  ...        0 min,  0.007 sec
     gradient                   ...        0 min,  0.003 sec
 * total energy  :   -37.7823910 Eh     change       -0.4935168E-04 Eh
   gradient norm :     0.0021792 Eh/α   predicted    -0.3667886E-04 ( -25.68%)
   displ. norm   :     0.0894184 α      lambda       -0.3811244E-04
   maximum displ.:     0.0536752 α      in ANC's #7, #4, #8, ...

........................................................................
.............................. CYCLE   10 ..............................
........................................................................

 iter      E             dE          RMSdq      gap      omega  full diag
   1    -38.3564621 -0.383565E+02  0.288E-02    3.04       0.0  T
   2    -38.3564621 -0.545760E-07  0.171E-02    3.04       1.2  T
   3    -38.3564621  0.200921E-07  0.127E-03    3.04      15.7  T
   4    -38.3564621 -0.352617E-07  0.555E-04    3.04      36.0  T
   5    -38.3564621 -0.381532E-08  0.287E-04    3.04      69.6  T
     SCC iter.                  ...        0 min,  0.009 sec
     gradient                   ...        0 min,  0.003 sec
 * total energy  :   -37.7824146 Eh     change       -0.2363323E-04 Eh
   gradient norm :     0.0015101 Eh/α   predicted    -0.1921145E-04 ( -18.71%)
   displ. norm   :     0.0865575 α      lambda       -0.1904645E-04
   maximum displ.:     0.0456779 α      in ANC's #4, #7, #6, ...

........................................................................
.............................. CYCLE   11 ..............................
........................................................................

 iter      E             dE          RMSdq      gap      omega  full diag
   1    -38.3569325 -0.383569E+02  0.281E-02    3.04       0.0  T
   2    -38.3569326 -0.771030E-07  0.167E-02    3.04       1.2  T
   3    -38.3569326  0.149507E-07  0.138E-03    3.04      14.5  T
   4    -38.3569326 -0.349578E-07  0.564E-04    3.04      35.4  T
   5    -38.3569326 -0.228373E-08  0.319E-04    3.04      62.8  T
     SCC iter.                  ...        0 min,  0.006 sec
     gradient                   ...        0 min,  0.003 sec
 * total energy  :   -37.7824257 Eh     change       -0.1114607E-04 Eh
   gradient norm :     0.0019789 Eh/α   predicted    -0.9557434E-05 ( -14.25%)
   displ. norm   :     0.0271009 α      lambda       -0.8417618E-05
   maximum displ.:     0.0150983 α      in ANC's #1, #3, #2, ...

........................................................................
.............................. CYCLE   12 ..............................
........................................................................

 iter      E             dE          RMSdq      gap      omega  full diag
   1    -38.3569983 -0.383570E+02  0.127E-02    3.04       0.0  T
   2    -38.3569984 -0.641038E-07  0.751E-03    3.04       2.7  T
   3    -38.3569983  0.376288E-07  0.146E-03    3.04      13.7  T
   4    -38.3569984 -0.395703E-07  0.624E-04    3.04      32.1  T
   5    -38.3569984 -0.839039E-08  0.202E-04    3.04      98.9  T
     SCC iter.                  ...        0 min,  0.006 sec
     gradient                   ...        0 min,  0.002 sec
 * total energy  :   -37.7824335 Eh     change       -0.7710490E-05 Eh
   gradient norm :     0.0008496 Eh/α   predicted    -0.4213726E-05 ( -45.35%)
   displ. norm   :     0.0403642 α      lambda       -0.5164057E-05
   maximum displ.:     0.0200211 α      in ANC's #1, #2, #7, ...

........................................................................
.............................. CYCLE   13 ..............................
........................................................................

 iter      E             dE          RMSdq      gap      omega  full diag
   1    -38.3573116 -0.383573E+02  0.224E-02    3.05       0.0  T
   2    -38.3573117 -0.463428E-07  0.132E-02    3.05       1.5  T
   3    -38.3573117 -0.507939E-08  0.853E-04    3.05      23.4  T
   4    -38.3573117 -0.974892E-08  0.467E-04    3.05      42.8  T
     SCC iter.                  ...        0 min,  0.005 sec
     gradient                   ...        0 min,  0.002 sec
 * total energy  :   -37.7824375 Eh     change       -0.4067032E-05 Eh
   gradient norm :     0.0008422 Eh/α   predicted    -0.2597947E-05 ( -36.12%)
   displ. norm   :     0.0771694 α      lambda       -0.8475019E-05
   maximum displ.:     0.0454742 α      in ANC's #1, #3, #2, ...

   *** GEOMETRY OPTIMIZATION CONVERGED AFTER 13 ITERATIONS ***

------------------------------------------------------------------------
 total energy gain   :        -0.0165007 Eh      -10.3544 kcal/mol
 total RMSD          :         0.2331229 a0        0.1234 Å
 total power (kW/mol):        -3.3325137 (step) -265.5373 (real)
------------------------------------------------------------------------

 ANCopt (total)                0 d,  0 h,  0 min,  0.163 sec
 optimizer setup                ...        0 min,  0.000 sec (  0.070%)
 model hessian                  ...        0 min,  0.006 sec (  3.470%)
 ANC generation                 ...        0 min,  0.002 sec (  1.149%)
 coordinate transformation      ...        0 min,  0.000 sec (  0.077%)
 single point calculation       ...        0 min,  0.145 sec ( 88.790%)
 optimization log               ...        0 min,  0.005 sec (  2.854%)
 hessian update                 ...        0 min,  0.003 sec (  2.107%)
 rational function              ...        0 min,  0.001 sec (  0.672%)

================
 final structure:
================
25
 xtb: 6.7.1 (edcfbbe)
C            5.02879826920428        0.75808622968007       -0.49910428384650
C            4.08433605981154       -0.23720360464259        0.14744318686635
O            2.74462857148060        0.20516444710209       -0.06312921557652
C            1.77761915633915       -0.56301494056570        0.46379103719809
O            2.00033451089913       -1.57047083595684        1.09388391983119
C            0.44845499490003       -0.01846113531165        0.16057606386094
C           -0.65569879766585       -0.65079794323400        0.57669498777891
C           -2.03296960124208       -0.26288701598498        0.34755144152131
C           -2.39072674025036        0.86166635680593       -0.40107774982583
C           -3.71934823081530        1.18048980028277       -0.60020316220529
C           -4.71899108153859        0.38786862953106       -0.05769580450487
C           -4.38068900655466       -0.72883765422896        0.68933293166752
C           -3.05264114884452       -1.05089894587647        0.88926723341302
H            4.91016636484886        1.73811841267657       -0.04570341267730
H            6.05406093752908        0.42671911868480       -0.36670097764481
H            4.81590920358938        0.83956022542840       -1.56125984883877
H            4.19750496128678       -1.23626625982324       -0.28928792503073
H            4.26485349837885       -0.31870565864614        1.22557639469374
H            0.44176575953816        0.89536065912444       -0.41144184549285
H           -0.50974732186760       -1.56053498591599        1.14789859029410
H           -1.62382116191968        1.48653820721177       -0.83133502271619
H           -3.98035581642999        2.05165082301090       -1.18322083837681
H           -5.75686307142327        0.63950924428729       -0.21763746717282
H           -5.15533878846676       -1.34969348921997        1.11482650720377
H           -2.79124052078724       -1.92295968441952        1.47131625958036
 
 Bond Distances (Angstroems)
 ---------------------------
C1-C2=1.5168         C1-H14=1.0863        C1-H15=1.0856        C1-H16=1.0863        C2-C1=1.5168         C2-O3=1.4265         
C2-H17=1.0962        C2-H18=1.0962        O3-C2=1.4265         O3-C4=1.3427         C4-O3=1.3427         C4-O5=1.2090         
C4-C6=1.4680         O5-C4=1.2090         C6-C4=1.4680         C6-C7=1.3387         C6-H19=1.0781        C7-C6=1.3387         
C7-C8=1.4491         C7-H20=1.0841        C8-C7=1.4491         C8-C9=1.3975         C8-C13=1.3979        C9-C8=1.3975         
C9-C10=1.3808        C9-H21=1.0788        C10-C9=1.3808        C10-C11=1.3863       C10-H22=1.0803       C11-C10=1.3863       
C11-C12=1.3855       C11-H23=1.0799       C12-C11=1.3855       C12-C13=1.3811       C12-H24=1.0801       C13-C8=1.3979        
C13-C12=1.3811       C13-H25=1.0806       H14-C1=1.0863        H15-C1=1.0856        H16-C1=1.0863        H17-C2=1.0962        
H18-C2=1.0962        H19-C6=1.0781        H20-C7=1.0841        H21-C9=1.0788        H22-C10=1.0803       H23-C11=1.0799       
H24-C12=1.0801       H25-C13=1.0806       
 C  H  Rav=1.0844 sigma=0.0060  Rmin=1.0781  Rmax=1.0962    12
 C  C  Rav=1.4102 sigma=0.0495  Rmin=1.3387  Rmax=1.5168    10
 O  C  Rav=1.3260 sigma=0.0896  Rmin=1.2090  Rmax=1.4265     3
 
 selected bond angles (degree)
 --------------------
H14-C1-C2=110.25               H15-C1-C2=109.62               H15-C1-H14=109.12              H16-C1-C2=110.12               
H16-C1-H14=108.60              H16-C1-H15=109.10              O3-C2-C1=108.57                H17-C2-C1=111.34               
H17-C2-O3=108.71               H18-C2-C1=111.44               H18-C2-O3=108.84               H18-C2-H17=107.88              
C4-O3-C2=116.17                O5-C4-O3=123.27                C6-C4-O3=111.03                C6-C4-O5=125.70                
C7-C6-C4=120.49                H19-C6-C4=115.44               H19-C6-C7=124.07               C8-C7-C6=127.47                
H20-C7-C6=116.69               H20-C7-C8=115.84               C9-C8-C7=122.92                C13-C8-C7=118.76               
C13-C8-C9=118.32               C10-C9-C8=120.62               H21-C9-C8=119.85               H21-C9-C10=119.52              
C11-C10-C9=120.36              H22-C10-C9=119.77              H22-C10-C11=119.87             
 
 selected dihedral angles (degree)
 ---------------------------------
O3-C2-C1-H14= 61.02           O3-C2-C1-H15=181.17           O3-C2-C1-H16=301.20           H17-C2-C1-H14=180.66          
H17-C2-C1-H15=300.81          H17-C2-C1-H16= 60.84          H18-C2-C1-H14=301.16          H18-C2-C1-H15= 61.31          
H18-C2-C1-H16=181.35          C4-O3-C2-C1=180.71            C4-O3-C2-H17= 59.44           C4-O3-C2-H18=302.18           
O5-C4-O3-C2=  0.58            C6-C4-O3-C2=181.00            C7-C6-C4-O3=178.81            C7-C6-C4-O5=359.25            
H19-C6-C4-O3=359.29           H19-C6-C4-O5=179.72           C8-C7-C6-C4=181.00            C8-C7-C6-H19=  0.49           
H20-C7-C6-C4=  0.73           H20-C7-C6-H19=180.22          C9-C8-C7-C6=  1.57            C9-C8-C7-H20=181.84           
C13-C8-C7-C6=181.09           C13-C8-C7-H20=  1.36          C10-C9-C8-C7=179.39           C10-C9-C8-C13=359.86          
H21-C9-C8-C7=359.59           H21-C9-C8-C13=180.06          C11-C10-C9-C8=  0.06          C11-C10-C9-H21=179.86         
H22-C10-C9-C8=180.15          H22-C10-C9-H21=359.95         
           -------------------------------------------------
          |                Final Singlepoint                |
           -------------------------------------------------

          ...................................................
          :                      SETUP                      :
          :.................................................:
          :  # basis functions                  64          :
          :  # atomic orbitals                  64          :
          :  # shells                           38          :
          :  # electrons                        68          :
          :  max. iterations                   250          :
          :  Hamiltonian                  GFN2-xTB          :
          :  restarted?                      false          :
          :  GBSA solvation                  false          :
          :  PC potential                    false          :
          :  electronic temp.          300.0000000     K    :
          :  accuracy                    1.0000000          :
          :  -> integral cutoff          0.2500000E+02      :
          :  -> integral neglect         0.1000000E-07      :
          :  -> SCF convergence          0.1000000E-05 Eh   :
          :  -> wf. convergence          0.1000000E-03 e    :
          :  Broyden damping             0.4000000          :
          :  net charge                          0          :
          :  unpaired electrons                  0          :
          ...................................................

 iter      E             dE          RMSdq      gap      omega  full diag
   1    -38.3573117 -0.383573E+02  0.238E-04    3.05       0.0  T
   2    -38.3573117 -0.129511E-09  0.153E-04    3.05     130.4  T
   3    -38.3573117 -0.103242E-10  0.995E-05    3.05     201.0  T

   *** convergence criteria satisfied after 3 iterations ***

         #    Occupation            Energy/Eh            Energy/eV
      -------------------------------------------------------------
         1        2.0000           -0.7334399             -19.9579
       ...           ...                  ...                  ...
        28        2.0000           -0.4474927             -12.1769
        29        2.0000           -0.4365748             -11.8798
        30        2.0000           -0.4328461             -11.7783
        31        2.0000           -0.4282411             -11.6530
        32        2.0000           -0.4149328             -11.2909
        33        2.0000           -0.4079462             -11.1008
        34        2.0000           -0.3982081             -10.8358 (HOMO)
        35                         -0.2862901              -7.7904 (LUMO)
        36                         -0.2319345              -6.3113
        37                         -0.2132897              -5.8039
        38                         -0.1534876              -4.1766
        39                         -0.0860973              -2.3428
       ...                                ...                  ...
        64                          0.7194163              19.5763
      -------------------------------------------------------------
                  HL-Gap            0.1119180 Eh            3.0454 eV
             Fermi-level           -0.3422491 Eh           -9.3131 eV

 SCC (total)                   0 d,  0 h,  0 min,  0.010 sec
 SCC setup                      ...        0 min,  0.001 sec ( 11.487%)
 Dispersion                     ...        0 min,  0.000 sec (  2.696%)
 classical contributions        ...        0 min,  0.000 sec (  0.675%)
 integral evaluation            ...        0 min,  0.001 sec (  6.562%)
 iterations                     ...        0 min,  0.005 sec ( 50.761%)
 molecular gradient             ...        0 min,  0.002 sec ( 24.351%)
 printout                       ...        0 min,  0.000 sec (  3.225%)

         :::::::::::::::::::::::::::::::::::::::::::::::::::::
         ::                     SUMMARY                     ::
         :::::::::::::::::::::::::::::::::::::::::::::::::::::
         :: total energy             -37.782437519528 Eh    ::
         :: gradient norm              0.000840892740 Eh/a0 ::
         :: HOMO-LUMO gap              3.045443290047 eV    ::
         ::.................................................::
         :: SCC energy               -38.357499015702 Eh    ::
         :: -> isotropic ES            0.047861724551 Eh    ::
         :: -> anisotropic ES          0.001180085401 Eh    ::
         :: -> anisotropic XC          0.016107827048 Eh    ::
         :: -> dispersion             -0.019510012219 Eh    ::
         :: repulsion energy           0.575061496174 Eh    ::
         :: add. restraining           0.000000000000 Eh    ::
         :: total charge              -0.000000000000 e     ::
         :::::::::::::::::::::::::::::::::::::::::::::::::::::

           -------------------------------------------------
          |                Property Printout                |
           -------------------------------------------------

    * Orbital Energies and Occupations

         #    Occupation            Energy/Eh            Energy/eV
      -------------------------------------------------------------
         1        2.0000           -0.7334399             -19.9579
       ...           ...                  ...                  ...
        22        2.0000           -0.4866332             -13.2420
        23        2.0000           -0.4842692             -13.1776
        24        2.0000           -0.4790802             -13.0364
        25        2.0000           -0.4709197             -12.8144
        26        2.0000           -0.4642142             -12.6319
        27        2.0000           -0.4560733             -12.4104
        28        2.0000           -0.4474927             -12.1769
        29        2.0000           -0.4365748             -11.8798
        30        2.0000           -0.4328461             -11.7783
        31        2.0000           -0.4282411             -11.6530
        32        2.0000           -0.4149328             -11.2909
        33        2.0000           -0.4079462             -11.1008
        34        2.0000           -0.3982081             -10.8358 (HOMO)
        35                         -0.2862901              -7.7904 (LUMO)
        36                         -0.2319345              -6.3113
        37                         -0.2132897              -5.8039
        38                         -0.1534876              -4.1766
        39                         -0.0860973              -2.3428
        40                          0.0147371               0.4010
        41                          0.1020163               2.7760
        42                          0.1091459               2.9700
        43                          0.1149680               3.1284
        44                          0.1213965               3.3034
        45                          0.1437159               3.9107
       ...                                ...                  ...
        64                          0.7194163              19.5763
      -------------------------------------------------------------
                  HL-Gap            0.1119180 Eh            3.0454 eV
             Fermi-level           -0.3422491 Eh           -9.3131 eV

     #   Z          covCN         q      C6AA      α(0)
     1   6 C        3.751    -0.115    22.764     6.804
     2   6 C        3.702     0.087    19.285     6.279
     3   8 O        1.705    -0.273    18.524     5.811
     4   6 C        2.729     0.351    21.032     7.508
     5   8 O        0.856    -0.427    22.233     6.322
     6   6 C        2.892    -0.072    29.800     8.950
     7   6 C        2.907    -0.012    28.319     8.726
     8   6 C        2.970     0.017    27.622     8.621
     9   6 C        2.923    -0.029    28.715     8.788
    10   6 C        2.917    -0.028    28.689     8.783
    11   6 C        2.920    -0.025    28.635     8.775
    12   6 C        2.917    -0.027    28.684     8.783
    13   6 C        2.928    -0.029    28.723     8.789
    14   1 H        0.925     0.057     2.235     2.338
    15   1 H        0.925     0.051     2.308     2.376
    16   1 H        0.925     0.057     2.230     2.335
    17   1 H        0.924     0.049     2.337     2.391
    18   1 H        0.924     0.050     2.326     2.385
    19   1 H        0.926     0.059     2.208     2.323
    20   1 H        0.925     0.069     2.096     2.264
    21   1 H        0.926     0.040     2.448     2.447
    22   1 H        0.926     0.036     2.502     2.474
    23   1 H        0.926     0.036     2.497     2.471
    24   1 H        0.926     0.037     2.494     2.470
    25   1 H        0.926     0.041     2.437     2.441

 Mol. C6AA /au·bohr⁶  :       7018.976947
 Mol. C8AA /au·bohr⁸  :     166298.670481
 Mol. α(0) /au        :        131.653654


Wiberg/Mayer (AO) data.
largest (>0.10) Wiberg bond orders for each atom

 ---------------------------------------------------------------------------
     #   Z sym  total        # sym  WBO       # sym  WBO       # sym  WBO
 ---------------------------------------------------------------------------
     1   6 C    3.992 --     2 C    1.020    14 H    0.986    16 H    0.985
                            15 H    0.984
     2   6 C    3.931 --     1 C    1.020    17 H    0.968    18 H    0.968
                             3 O    0.943
     3   8 O    2.291 --     4 C    1.112     2 C    0.943     5 O    0.168
     4   6 C    3.919 --     5 O    1.706     3 O    1.112     6 C    1.036
     5   8 O    2.015 --     4 C    1.706     3 O    0.168
     6   6 C    3.987 --     7 C    1.777     4 C    1.036    19 H    0.961
     7   6 C    3.982 --     6 C    1.777     8 C    1.116    20 H    0.957
     8   6 C    3.990 --    13 C    1.365     9 C    1.362     7 C    1.116
     9   6 C    3.992 --    10 C    1.466     8 C    1.362    21 H    0.966
                            12 C    0.105
    10   6 C    3.992 --     9 C    1.466    11 C    1.425    22 H    0.971
                            13 C    0.103
    11   6 C    3.983 --    12 C    1.431    10 C    1.425    23 H    0.971
    12   6 C    3.992 --    13 C    1.460    11 C    1.431    24 H    0.970
                             9 C    0.105
    13   6 C    3.989 --    12 C    1.460     8 C    1.365    25 H    0.968
                            10 C    0.103
    14   1 H    0.997 --     1 C    0.986
    15   1 H    0.997 --     1 C    0.984
    16   1 H    0.997 --     1 C    0.985
    17   1 H    0.997 --     2 C    0.968
    18   1 H    0.997 --     2 C    0.968
    19   1 H    0.996 --     6 C    0.961
    20   1 H    0.995 --     7 C    0.957
    21   1 H    0.998 --     9 C    0.966
    22   1 H    0.998 --    10 C    0.971
    23   1 H    0.998 --    11 C    0.971
    24   1 H    0.998 --    12 C    0.970
    25   1 H    0.998 --    13 C    0.968
 ---------------------------------------------------------------------------

Topologies differ in total number of bonds
Writing topology from bond orders to xtbtopo.mol

molecular dipole:
                 x           y           z       tot (Debye)
 q only:       -0.404       0.689      -0.448
   full:       -0.385       0.731      -0.478       2.426
molecular quadrupole (traceless):
                xx          xy          yy          xz          yz          zz
 q only:       12.945       4.938      -6.906      -3.866       1.137      -6.040
  q+dip:       13.794       4.718      -6.494      -3.675      -0.923      -7.301
   full:       12.448       4.735      -7.000      -3.637       1.826      -5.448

           -------------------------------------------------
          |                Geometry Summary                 |
           -------------------------------------------------

      molecular mass/u    :      176.2121937
   center of mass at/Å    :       -0.1964866      -0.1363852       0.2108949
  moments of inertia/u·Å² :        0.1776310E+03   0.1833418E+04   0.2004637E+04
rotational constants/cm⁻¹ :        0.9490255E-01   0.9194649E-02   0.8409317E-02

 * 23 selected distances

     #   Z          #   Z                                           value/Å
     1   6 C        2   6 C                                       1.5167844 (max)
     2   6 C        3   8 O                                       1.4264806
     3   8 O        4   6 C                                       1.3427033
     4   6 C        5   8 O                                       1.2089611
     6   6 C        7   6 C                                       1.3387161
     8   6 C        9   6 C                                       1.3975180
     9   6 C       10   6 C                                       1.3807732
    10   6 C       11   6 C                                       1.3863076
    11   6 C       12   6 C                                       1.3854723
     8   6 C       13   6 C                                       1.3979089
    12   6 C       13   6 C                                       1.3810897
     1   6 C       14   1 H                                       1.0863283
     1   6 C       15   1 H                                       1.0855867
     1   6 C       16   1 H                                       1.0863399
     2   6 C       17   1 H                                       1.0962060
     2   6 C       18   1 H                                       1.0961754
     6   6 C       19   1 H                                       1.0781093 (min)
     7   6 C       20   1 H                                       1.0840651
     9   6 C       21   1 H                                       1.0787634
    10   6 C       22   1 H                                       1.0802575
    11   6 C       23   1 H                                       1.0798531
    12   6 C       24   1 H                                       1.0800876
    13   6 C       25   1 H                                       1.0805561

 * 3 distinct bonds (by element types)

   Z      Z             #   av. dist./Å        max./Å        min./Å
   1 H    6 C          12     1.0843607     1.0962060     1.0781093
   6 C    6 C           8     1.3980713     1.5167844     1.3387161
   6 C    8 O           3     1.3260483     1.4264806     1.2089611


optimized geometry written to: xtbopt.xyz


           -------------------------------------------------
          | TOTAL ENERGY              -37.782437519528 Eh   |
          | GRADIENT NORM               0.000840892740 Eh/α |
          | HOMO-LUMO GAP               3.045443290047 eV   |
           -------------------------------------------------

------------------------------------------------------------------------
 * finished run on 2025/12/01 at 14:17:50.443     
------------------------------------------------------------------------
 total:
 * wall-time:     0 d,  0 h,  0 min,  0.225 sec
 *  cpu-time:     0 d,  0 h,  0 min,  4.999 sec
 * ratio c/w:    22.237 speedup
 SCF:
 * wall-time:     0 d,  0 h,  0 min,  0.041 sec
 *  cpu-time:     0 d,  0 h,  0 min,  0.906 sec
 * ratio c/w:    22.029 speedup
 ANC optimizer:
 * wall-time:     0 d,  0 h,  0 min,  0.174 sec
 *  cpu-time:     0 d,  0 h,  0 min,  3.908 sec
 * ratio c/w:    22.467 speedup

normal termination of xtb
