      -----------------------------------------------------------      
     |                   =====================                   |     
     |                           x T B                           |     
     |                   =====================                   |     
     |                         S. Grimme                         |     
     |          Mulliken Center for Theoretical Chemistry        |     
     |                    University of Bonn                     |     
      -----------------------------------------------------------      

   * xtb version 6.7.1 (edcfbbe) compiled by 'albert@albert-system' on 2024-07-22

   xtb is free software: you can redistribute it and/or modify it under
   the terms of the GNU Lesser General Public License as published by
   the Free Software Foundation, either version 3 of the License, or
   (at your option) any later version.
   
   xtb is distributed in the hope that it will be useful,
   but WITHOUT ANY WARRANTY; without even the implied warranty of
   MERCHANTABILITY or FITNESS FOR A PARTICULAR PURPOSE.  See the
   GNU Lesser General Public License for more details.
   
   Cite this work as:
   * C. Bannwarth, E. Caldeweyher, S. Ehlert, A. Hansen, P. Pracht,
     J. Seibert, S. Spicher, S. Grimme, WIREs Comput. Mol. Sci., 2020, 11,
     e01493. DOI: 10.1002/wcms.1493
   
   for GFN2-xTB:
   * C. Bannwarth, S. Ehlert and S. Grimme., J. Chem. Theory Comput., 2019,
     15, 1652-1671. DOI: 10.1021/acs.jctc.8b01176
   for GFN1-xTB:
   * S. Grimme, C. Bannwarth, P. Shushkov, J. Chem. Theory Comput., 2017,
     13, 1989-2009. DOI: 10.1021/acs.jctc.7b00118
   for GFN0-xTB:
   * P. Pracht, E. Caldeweyher, S. Ehlert, S. Grimme, ChemRxiv, 2019, preprint.
     DOI: 10.26434/chemrxiv.8326202.v1
   for GFN-FF:
   * S. Spicher and S. Grimme, Angew. Chem. Int. Ed., 2020, 59, 15665-15673.
     DOI: 10.1002/anie.202004239
   
   for ALPB and GBSA implicit solvation:
   * S. Ehlert, M. Stahn, S. Spicher, S. Grimme, J. Chem. Theory Comput.,
     2021, 17, 4250-4261. DOI: 10.1021/acs.jctc.1c00471
   
   for ddCOSMO and CPCM-X implicit solvation:
   * M. Stahn, S. Ehlert, S. Grimme, J. Phys. Chem. A,
     2023, XX, XXXX-XXXX. DOI: 10.1021/acs.jpca.3c04382
   
   for DFT-D4:
   * E. Caldeweyher, C. Bannwarth and S. Grimme, J. Chem. Phys., 2017,
     147, 034112. DOI: 10.1063/1.4993215
   * E. Caldeweyher, S. Ehlert, A. Hansen, H. Neugebauer, S. Spicher,
     C. Bannwarth and S. Grimme, J. Chem. Phys., 2019, 150, 154122.
     DOI: 10.1063/1.5090222
   * E. Caldeweyher, J.-M. Mewes, S. Ehlert and S. Grimme, Phys. Chem. Chem. Phys.
     2020, 22, 8499-8512. DOI: 10.1039/D0CP00502A
   
   for sTDA-xTB:
   * S. Grimme and C. Bannwarth, J. Chem. Phys., 2016, 145, 054103.
     DOI: 10.1063/1.4959605
   
   in the mass-spec context:
   * V. Asgeirsson, C. Bauer and S. Grimme, Chem. Sci., 2017, 8, 4879.
     DOI: 10.1039/c7sc00601b
   * J. Koopman and S. Grimme, ACS Omega 2019, 4, 12, 15120-15133.
     DOI: 10.1021/acsomega.9b02011
   
   for metadynamics refer to:
   * S. Grimme, J. Chem. Theory Comput., 2019, 155, 2847-2862
     DOI: 10.1021/acs.jctc.9b00143
   
   for SPH calculations refer to:
   * S. Spicher and S. Grimme, J. Chem. Theory Comput., 2021, 17, 1701-1714
     DOI: 10.1021/acs.jctc.0c01306
   
   for ONIOM refer to:
   * C. Plett, A. Katbashev, S. Ehlert, S. Grimme, M. Bursch,
     Phys. Chem. Chem. Phys., 2023, 25, 17860-17868. DOI: 10.1039/D3CP02178E
   
   for DIPRO refer to:
   * J. Kohn, N. Gildemeister, S. Grimme, D. Fazzi, A. Hansen,
     J. Chem. Phys., 2023, just accepted.
   
   for PTB refer to:
   * S. Grimme, M. Mueller, A. Hansen, J. Chem. Phys., 2023, 158, 124111.
     DOI: 10.1063/5.0137838
   
   with help from (in alphabetical order)
   P. Atkinson, C. Bannwarth, F. Bohle, G. Brandenburg, E. Caldeweyher
   M. Checinski, S. Dohm, S. Ehlert, S. Ehrlich, I. Gerasimov, C. Hölzer
   A. Katbashev, J. Kohn, J. Koopman, C. Lavigne, S. Lehtola, F. März, M. Müller,
   F. Musil, H. Neugebauer, J. Pisarek, C. Plett, P. Pracht, F. Pultar,
   J. Seibert, P. Shushkov, S. Spicher, M. Stahn, M. Steiner, T. Strunk,
   J. Stückrath, T. Rose, and J. Unsleber
   
 * started run on 2025/12/01 at 14:17:50.451     
   ID    Z sym.   atoms
    1    6 C      1, 2, 4, 6-13
    2    8 O      3, 5
    3    1 H      14-25

           -------------------------------------------------
          |                Calculation Setup                |
           -------------------------------------------------

          program call               : xtb pipeline_data/3_conformer_xyz/acrylates/rdkit/KBEBGUQPQBELIU-CMDGGOBGSA-N_conf239.xyz --opt --gfn 2-xTB --iterations 250
          coordinate file            : pipeline_data/3_conformer_xyz/acrylates/rdkit/KBEBGUQPQBELIU-CMDGGOBGSA-N_conf239.xyz
          omp threads                :                    24

########################################################################
[WARNING] Please study the warnings concerning your input carefully
-1- readin_getIntValue: could not parse '2-xTB'
########################################################################

           -------------------------------------------------
          |                 G F N 2 - x T B                 |
           -------------------------------------------------

        Reference                      10.1021/acs.jctc.8b01176
      * Hamiltonian:
        H0-scaling (s, p, d)           1.850000    2.230000    2.230000
        zeta-weighting                 0.500000
      * Dispersion:
        s8                             2.700000
        a1                             0.520000
        a2                             5.000000
        s9                             5.000000
      * Repulsion:
        kExp                           1.500000    1.000000
        rExp                           1.000000
      * Coulomb:
        alpha                          2.000000
        third order                    shell-resolved
        anisotropic                    true
        a3                             3.000000
        a5                             4.000000
        cn-shift                       1.200000
        cn-exp                         4.000000
        max-rad                        5.000000

q/qsh data taken from xtbrestart
CAMM data taken from xtbrestart

          ...................................................
          :                      SETUP                      :
          :.................................................:
          :  # basis functions                  64          :
          :  # atomic orbitals                  64          :
          :  # shells                           38          :
          :  # electrons                        68          :
          :  max. iterations                   250          :
          :  Hamiltonian                  GFN2-xTB          :
          :  restarted?                       true          :
          :  GBSA solvation                  false          :
          :  PC potential                    false          :
          :  electronic temp.          300.0000000     K    :
          :  accuracy                    1.0000000          :
          :  -> integral cutoff          0.2500000E+02      :
          :  -> integral neglect         0.1000000E-07      :
          :  -> SCF convergence          0.1000000E-05 Eh   :
          :  -> wf. convergence          0.1000000E-03 e    :
          :  Broyden damping             0.4000000          :
          :  net charge                          0          :
          :  unpaired electrons                  0          :
          ...................................................

 iter      E             dE          RMSdq      gap      omega  full diag
   1    -38.3126438 -0.383126E+02  0.319E+00    2.65       0.0  T
   2    -38.3216835 -0.903971E-02  0.191E+00    3.09       1.0  T
   3    -38.3089402  0.127432E-01  0.975E-01    3.03       1.0  T
   4    -38.3255366 -0.165963E-01  0.213E-01    3.04       1.0  T
   5    -38.3258388 -0.302275E-03  0.104E-01    3.04       1.0  T
   6    -38.3258563 -0.174613E-04  0.429E-02    3.04       1.0  T
   7    -38.3258721 -0.157869E-04  0.143E-02    3.04       1.4  T
   8    -38.3258739 -0.186356E-05  0.643E-03    3.04       3.1  T
   9    -38.3258741 -0.130043E-06  0.303E-03    3.04       6.6  T
  10    -38.3258741 -0.627444E-07  0.114E-03    3.04      17.6  T
  11    -38.3258741 -0.579769E-08  0.454E-04    3.04      44.0  T
  12    -38.3258741 -0.123587E-08  0.192E-04    3.04     104.2  T

   *** convergence criteria satisfied after 12 iterations ***

         #    Occupation            Energy/Eh            Energy/eV
      -------------------------------------------------------------
         1        2.0000           -0.7239003             -19.6983
       ...           ...                  ...                  ...
        28        2.0000           -0.4492350             -12.2243
        29        2.0000           -0.4388491             -11.9417
        30        2.0000           -0.4269907             -11.6190
        31        2.0000           -0.4257369             -11.5849
        32        2.0000           -0.4166476             -11.3376
        33        2.0000           -0.4070220             -11.0756
        34        2.0000           -0.4028141             -10.9611 (HOMO)
        35                         -0.2910970              -7.9212 (LUMO)
        36                         -0.2317469              -6.3062
        37                         -0.2203318              -5.9955
        38                         -0.1594303              -4.3383
        39                         -0.0828407              -2.2542
       ...                                ...                  ...
        64                          0.7070606              19.2401
      -------------------------------------------------------------
                  HL-Gap            0.1117170 Eh            3.0400 eV
             Fermi-level           -0.3469555 Eh           -9.4411 eV

 SCC (total)                   0 d,  0 h,  0 min,  0.022 sec
 SCC setup                      ...        0 min,  0.000 sec (  1.414%)
 Dispersion                     ...        0 min,  0.000 sec (  0.969%)
 classical contributions        ...        0 min,  0.000 sec (  1.011%)
 integral evaluation            ...        0 min,  0.001 sec (  3.469%)
 iterations                     ...        0 min,  0.018 sec ( 83.009%)
 molecular gradient             ...        0 min,  0.002 sec (  9.216%)
 printout                       ...        0 min,  0.000 sec (  0.785%)

         :::::::::::::::::::::::::::::::::::::::::::::::::::::
         ::                     SUMMARY                     ::
         :::::::::::::::::::::::::::::::::::::::::::::::::::::
         :: total energy             -37.764938604770 Eh    ::
         :: gradient norm              0.127089301260 Eh/a0 ::
         :: HOMO-LUMO gap              3.039975346976 eV    ::
         ::.................................................::
         :: SCC energy               -38.326066075333 Eh    ::
         :: -> isotropic ES            0.050693423031 Eh    ::
         :: -> anisotropic ES          0.000665729181 Eh    ::
         :: -> anisotropic XC          0.016359116802 Eh    ::
         :: -> dispersion             -0.019440269990 Eh    ::
         :: repulsion energy           0.561127470564 Eh    ::
         :: add. restraining           0.000000000000 Eh    ::
         :: total charge              -0.000000000000 e     ::
         :::::::::::::::::::::::::::::::::::::::::::::::::::::

      ----------------------------------------------------------- 
     |                   =====================                   |
     |                        A N C O P T                        |
     |                   =====================                   |
     |               Approximate Normal Coordinate               |
     |                Rational Function Optimizer                |
      ----------------------------------------------------------- 
      ----------------------------------------------------------- 
     |                   =====================                   |
     |                        A N C O P T                        |
     |                   =====================                   |
     |               Approximate Normal Coordinate               |
     |                Rational Function Optimizer                |
      ----------------------------------------------------------- 

          ...................................................
          :                      SETUP                      :
          :.................................................:
          :   optimization level            normal          :
          :   max. optcycles                   200          :
          :   ANC micro-cycles                  20          :
          :   degrees of freedom                69          :
          :.................................................:
          :   RF solver                   davidson          :
          :   write xtbopt.log                true          :
          :   linear?                        false          :
          :   energy convergence         0.5000000E-05 Eh   :
          :   grad. convergence          0.1000000E-02 Eh/α :
          :   maxmium RF displ.          1.0000000          :
          :   Hlow (freq-cutoff)         0.1000000E-01      :
          :   Hmax (freq-cutoff)         5.0000000          :
          :   S6 in model hess.         20.0000000          :
          ...................................................

generating ANC from exact Hessian ...
Using Lindh-Hessian (1995)
 Shifting diagonal of input Hessian by   9.277489514961589E-003
 Lowest  eigenvalues of input Hessian
    0.000000    0.000000    0.000000    0.000000    0.000000    0.000000
    0.010000    0.010597    0.010609    0.013287    0.013882    0.016599
    0.018783    0.021438    0.022318    0.025486    0.030015    0.032818
 Highest eigenvalues
    1.731348    1.926304    1.993435    2.042277    2.111578    2.152819
 

........................................................................
.............................. CYCLE    1 ..............................
........................................................................

 iter      E             dE          RMSdq      gap      omega  full diag
   1    -38.3258741 -0.383259E+02  0.920E-05    3.04       0.0  T
   2    -38.3258741 -0.218066E-10  0.575E-05    3.04     347.7  T
   3    -38.3258741 -0.208189E-11  0.388E-05    3.04     516.0  T
     SCC iter.                  ...        0 min,  0.003 sec
     gradient                   ...        0 min,  0.002 sec
 * total energy  :   -37.7649386 Eh     change       -0.4587051E-09 Eh
   gradient norm :     0.1270895 Eh/α   predicted     0.0000000E+00 (-100.00%)
   displ. norm   :     0.3096750 α      lambda       -0.1873470E-01
   maximum displ.:     0.1420042 α      in ANC's #19, #16, #14, ...

........................................................................
.............................. CYCLE    2 ..............................
........................................................................

 iter      E             dE          RMSdq      gap      omega  full diag
   1    -38.3424430 -0.383424E+02  0.237E-01    3.04       0.0  T
   2    -38.3426835 -0.240524E-03  0.156E-01    3.02       1.0  T
   3    -38.3426522  0.312737E-04  0.779E-02    3.01       1.0  T
   4    -38.3427095 -0.572151E-04  0.366E-02    3.01       1.0  T
   5    -38.3427329 -0.234408E-04  0.746E-03    3.01       2.7  T
   6    -38.3427335 -0.638039E-06  0.329E-03    3.01       6.1  T
   7    -38.3427336 -0.622066E-07  0.152E-03    3.01      13.2  T
   8    -38.3427336 -0.221135E-07  0.526E-04    3.01      38.0  T
   9    -38.3427336 -0.140783E-08  0.211E-04    3.01      94.7  T
     SCC iter.                  ...        0 min,  0.009 sec
     gradient                   ...        0 min,  0.002 sec
 * total energy  :   -37.7778583 Eh     change       -0.1291966E-01 Eh
   gradient norm :     0.0470702 Eh/α   predicted    -0.1027112E-01 ( -20.50%)
   displ. norm   :     0.2959039 α      lambda       -0.5766137E-02
   maximum displ.:     0.1355975 α      in ANC's #9, #14, #19, ...

........................................................................
.............................. CYCLE    3 ..............................
........................................................................

 iter      E             dE          RMSdq      gap      omega  full diag
   1    -38.3524791 -0.383525E+02  0.169E-01    3.03       0.0  T
   2    -38.3525767 -0.976156E-04  0.106E-01    3.02       1.0  T
   3    -38.3525462  0.304909E-04  0.586E-02    3.01       1.0  T
   4    -38.3525906 -0.443782E-04  0.240E-02    3.01       1.0  T
   5    -38.3525997 -0.912680E-05  0.505E-03    3.01       4.0  T
   6    -38.3526000 -0.270975E-06  0.222E-03    3.01       9.0  T
   7    -38.3526000 -0.498055E-07  0.961E-04    3.01      20.8  T
   8    -38.3526000 -0.813042E-08  0.369E-04    3.01      54.2  T
     SCC iter.                  ...        0 min,  0.007 sec
     gradient                   ...        0 min,  0.002 sec
 * total energy  :   -37.7811141 Eh     change       -0.3255865E-02 Eh
   gradient norm :     0.0137708 Eh/α   predicted    -0.3137147E-02 (  -3.65%)
   displ. norm   :     0.1525142 α      lambda       -0.6963639E-03
   maximum displ.:     0.0675743 α      in ANC's #9, #7, #14, ...

........................................................................
.............................. CYCLE    4 ..............................
........................................................................

 iter      E             dE          RMSdq      gap      omega  full diag
   1    -38.3537649 -0.383538E+02  0.638E-02    3.03       0.0  T
   2    -38.3537691 -0.414981E-05  0.383E-02    3.03       1.0  T
   3    -38.3537667  0.237306E-05  0.136E-02    3.02       1.5  T
   4    -38.3537689 -0.217167E-05  0.571E-03    3.03       3.5  T
   5    -38.3537696 -0.704409E-06  0.956E-04    3.03      20.9  T
   6    -38.3537696 -0.159281E-08  0.516E-04    3.03      38.7  T
     SCC iter.                  ...        0 min,  0.006 sec
     gradient                   ...        0 min,  0.002 sec
 * total energy  :   -37.7815668 Eh     change       -0.4527084E-03 Eh
   gradient norm :     0.0080619 Eh/α   predicted    -0.3562914E-03 ( -21.30%)
   displ. norm   :     0.1708474 α      lambda       -0.3930238E-03
   maximum displ.:     0.0903155 α      in ANC's #7, #4, #9, ...

........................................................................
.............................. CYCLE    5 ..............................
........................................................................

 iter      E             dE          RMSdq      gap      omega  full diag
   1    -38.3552219 -0.383552E+02  0.566E-02    3.04       0.0  T
   2    -38.3552243 -0.234811E-05  0.342E-02    3.05       1.0  T
   3    -38.3552236  0.686124E-06  0.748E-03    3.04       2.7  T
   4    -38.3552242 -0.596930E-06  0.377E-03    3.04       5.3  T
   5    -38.3552245 -0.280720E-06  0.744E-04    3.04      26.9  T
   6    -38.3552245 -0.671399E-09  0.444E-04    3.04      45.0  T
     SCC iter.                  ...        0 min,  0.005 sec
     gradient                   ...        0 min,  0.002 sec
 * total energy  :   -37.7817972 Eh     change       -0.2303235E-03 Eh
   gradient norm :     0.0049302 Eh/α   predicted    -0.2022510E-03 ( -12.19%)
   displ. norm   :     0.1266965 α      lambda       -0.1820347E-03
   maximum displ.:     0.0720526 α      in ANC's #7, #4, #8, ...

........................................................................
.............................. CYCLE    6 ..............................
........................................................................

 iter      E             dE          RMSdq      gap      omega  full diag
   1    -38.3563054 -0.383563E+02  0.398E-02    3.05       0.0  T
   2    -38.3563057 -0.350989E-06  0.238E-02    3.05       1.0  T
   3    -38.3563056  0.152710E-06  0.276E-03    3.05       7.3  T
   4    -38.3563058 -0.189709E-06  0.107E-03    3.05      18.7  T
   5    -38.3563058 -0.248316E-07  0.449E-04    3.05      44.6  T
   6    -38.3563058  0.239723E-09  0.254E-04    3.05      78.8  T
     SCC iter.                  ...        0 min,  0.006 sec
     gradient                   ...        0 min,  0.002 sec
 * total energy  :   -37.7819319 Eh     change       -0.1347248E-03 Eh
   gradient norm :     0.0058203 Eh/α   predicted    -0.9248056E-04 ( -31.36%)
   displ. norm   :     0.1879913 α      lambda       -0.2191248E-03
   maximum displ.:     0.1073354 α      in ANC's #7, #4, #8, ...

........................................................................
.............................. CYCLE    7 ..............................
........................................................................

 iter      E             dE          RMSdq      gap      omega  full diag
   1    -38.3566880 -0.383567E+02  0.536E-02    3.06       0.0  T
   2    -38.3566885 -0.498457E-06  0.320E-02    3.06       1.0  T
   3    -38.3566884  0.942561E-07  0.307E-03    3.06       6.5  T
   4    -38.3566886 -0.120400E-06  0.168E-03    3.06      11.9  T
   5    -38.3566886 -0.569351E-07  0.633E-04    3.06      31.6  T
   6    -38.3566886 -0.101584E-08  0.282E-04    3.06      71.0  T
     SCC iter.                  ...        0 min,  0.005 sec
     gradient                   ...        0 min,  0.002 sec
 * total energy  :   -37.7820879 Eh     change       -0.1559822E-03 Eh
   gradient norm :     0.0066331 Eh/α   predicted    -0.1134456E-03 ( -27.27%)
   displ. norm   :     0.1741465 α      lambda       -0.1637603E-03
   maximum displ.:     0.0994844 α      in ANC's #7, #4, #8, ...

........................................................................
.............................. CYCLE    8 ..............................
........................................................................

 iter      E             dE          RMSdq      gap      omega  full diag
   1    -38.3562974 -0.383563E+02  0.479E-02    3.05       0.0  T
   2    -38.3562981 -0.745141E-06  0.287E-02    3.05       1.0  T
   3    -38.3562981  0.683128E-07  0.305E-03    3.05       6.6  T
   4    -38.3562982 -0.114132E-06  0.125E-03    3.05      16.0  T
   5    -38.3562982 -0.267005E-07  0.554E-04    3.05      36.1  T
   6    -38.3562982 -0.663825E-09  0.291E-04    3.05      68.8  T
     SCC iter.                  ...        0 min,  0.005 sec
     gradient                   ...        0 min,  0.002 sec
 * total energy  :   -37.7822083 Eh     change       -0.1204412E-03 Eh
   gradient norm :     0.0052941 Eh/α   predicted    -0.8436718E-04 ( -29.95%)
   displ. norm   :     0.1749136 α      lambda       -0.1376639E-03
   maximum displ.:     0.0998379 α      in ANC's #7, #4, #8, ...

........................................................................
.............................. CYCLE    9 ..............................
........................................................................

 iter      E             dE          RMSdq      gap      omega  full diag
   1    -38.3558286 -0.383558E+02  0.479E-02    3.05       0.0  T
   2    -38.3558292 -0.619525E-06  0.286E-02    3.05       1.0  T
   3    -38.3558291  0.886975E-07  0.298E-03    3.05       6.7  T
   4    -38.3558292 -0.134970E-06  0.122E-03    3.05      16.4  T
   5    -38.3558293 -0.294031E-07  0.558E-04    3.05      35.8  T
   6    -38.3558293 -0.762874E-09  0.321E-04    3.05      62.3  T
     SCC iter.                  ...        0 min,  0.013 sec
     gradient                   ...        0 min,  0.002 sec
 * total energy  :   -37.7823065 Eh     change       -0.9822017E-04 Eh
   gradient norm :     0.0034645 Eh/α   predicted    -0.7093915E-04 ( -27.78%)
   displ. norm   :     0.1282641 α      lambda       -0.8323079E-04
   maximum displ.:     0.0688026 α      in ANC's #7, #4, #8, ...

........................................................................
.............................. CYCLE   10 ..............................
........................................................................

 iter      E             dE          RMSdq      gap      omega  full diag
   1    -38.3562621 -0.383563E+02  0.359E-02    3.04       0.0  T
   2    -38.3562624 -0.227608E-06  0.213E-02    3.04       1.0  T
   3    -38.3562623  0.341065E-07  0.215E-03    3.04       9.3  T
   4    -38.3562624 -0.552262E-07  0.112E-03    3.04      17.9  T
   5    -38.3562624 -0.210651E-07  0.445E-04    3.04      44.9  T
   6    -38.3562624 -0.375984E-09  0.201E-04    3.04      99.5  T
     SCC iter.                  ...        0 min,  0.010 sec
     gradient                   ...        0 min,  0.005 sec
 * total energy  :   -37.7823614 Eh     change       -0.5488001E-04 Eh
   gradient norm :     0.0021870 Eh/α   predicted    -0.4230768E-04 ( -22.91%)
   displ. norm   :     0.1484815 α      lambda       -0.4258718E-04
   maximum displ.:     0.0832447 α      in ANC's #7, #4, #3, ...

........................................................................
.............................. CYCLE   11 ..............................
........................................................................

 iter      E             dE          RMSdq      gap      omega  full diag
   1    -38.3552663 -0.383553E+02  0.374E-02    3.04       0.0  T
   2    -38.3552669 -0.603736E-06  0.221E-02    3.04       1.0  T
   3    -38.3552668  0.705784E-07  0.344E-03    3.04       5.8  T
   4    -38.3552669 -0.935601E-07  0.175E-03    3.04      11.4  T
   5    -38.3552670 -0.524633E-07  0.596E-04    3.04      33.5  T
   6    -38.3552670 -0.593630E-09  0.234E-04    3.04      85.6  T
     SCC iter.                  ...        0 min,  0.008 sec
     gradient                   ...        0 min,  0.002 sec
 * total energy  :   -37.7823600 Eh     change        0.1408914E-05 Eh
   gradient norm :     0.0046715 Eh/α   predicted    -0.2176471E-04 (*******%)
   displ. norm   :     0.0452287 α      lambda       -0.6730395E-04
   maximum displ.:     0.0227272 α      in ANC's #7, #6, #4, ...

........................................................................
.............................. CYCLE   12 ..............................
........................................................................

 iter      E             dE          RMSdq      gap      omega  full diag
   1    -38.3572984 -0.383573E+02  0.226E-02    3.04       0.0  T
   2    -38.3572993 -0.879614E-06  0.126E-02    3.04       1.6  T
   3    -38.3572993 -0.236351E-07  0.370E-03    3.04       5.4  T
   4    -38.3572993 -0.271368E-07  0.877E-04    3.04      22.8  T
   5    -38.3572993 -0.616949E-08  0.483E-04    3.04      41.4  T
     SCC iter.                  ...        0 min,  0.006 sec
     gradient                   ...        0 min,  0.002 sec
 * total energy  :   -37.7823895 Eh     change       -0.2952191E-04 Eh
   gradient norm :     0.0017376 Eh/α   predicted    -0.3372690E-04 (  14.24%)
   displ. norm   :     0.0280286 α      lambda       -0.8667434E-05
   maximum displ.:     0.0183995 α      in ANC's #1, #2, #3, ...

........................................................................
.............................. CYCLE   13 ..............................
........................................................................

 iter      E             dE          RMSdq      gap      omega  full diag
   1    -38.3569846 -0.383570E+02  0.141E-02    3.04       0.0  T
   2    -38.3569846 -0.548522E-07  0.831E-03    3.04       2.4  T
   3    -38.3569846  0.263991E-08  0.828E-04    3.04      24.2  T
   4    -38.3569846 -0.670749E-08  0.476E-04    3.04      42.0  T
     SCC iter.                  ...        0 min,  0.004 sec
     gradient                   ...        0 min,  0.002 sec
 * total energy  :   -37.7823996 Eh     change       -0.1007993E-04 Eh
   gradient norm :     0.0008112 Eh/α   predicted    -0.4342069E-05 ( -56.92%)
   displ. norm   :     0.0982655 α      lambda       -0.1541822E-04
   maximum displ.:     0.0642956 α      in ANC's #1, #3, #2, ...

........................................................................
.............................. CYCLE   14 ..............................
........................................................................

 iter      E             dE          RMSdq      gap      omega  full diag
   1    -38.3567635 -0.383568E+02  0.407E-02    3.05       0.0  T
   2    -38.3567636 -0.144844E-06  0.241E-02    3.05       1.0  T
   3    -38.3567636  0.293931E-07  0.216E-03    3.05       9.2  T
   4    -38.3567637 -0.776157E-07  0.113E-03    3.05      17.7  T
   5    -38.3567637 -0.144514E-07  0.526E-04    3.05      38.0  T
   6    -38.3567637 -0.184038E-09  0.175E-04    3.05     114.1  T
     SCC iter.                  ...        0 min,  0.006 sec
     gradient                   ...        0 min,  0.002 sec
 * total energy  :   -37.7824163 Eh     change       -0.1671792E-04 Eh
   gradient norm :     0.0015943 Eh/α   predicted    -0.7744850E-05 ( -53.67%)
   displ. norm   :     0.1086732 α      lambda       -0.1193075E-04
   maximum displ.:     0.0729064 α      in ANC's #1, #2, #3, ...

........................................................................
.............................. CYCLE   15 ..............................
........................................................................

 iter      E             dE          RMSdq      gap      omega  full diag
   1    -38.3565617 -0.383566E+02  0.493E-02    3.05       0.0  T
   2    -38.3565618 -0.120155E-06  0.292E-02    3.05       1.0  T
   3    -38.3565618 -0.316714E-07  0.175E-03    3.05      11.4  T
   4    -38.3565619 -0.389189E-07  0.102E-03    3.05      19.6  T
   5    -38.3565619 -0.533873E-08  0.330E-04    3.05      60.7  T
   6    -38.3565619 -0.861426E-09  0.107E-04    3.05     186.2  T
     SCC iter.                  ...        0 min,  0.006 sec
     gradient                   ...        0 min,  0.002 sec
 * total energy  :   -37.7824294 Eh     change       -0.1312669E-04 Eh
   gradient norm :     0.0019864 Eh/α   predicted    -0.5999419E-05 ( -54.30%)
   displ. norm   :     0.1349906 α      lambda       -0.1245309E-04
   maximum displ.:     0.0916438 α      in ANC's #1, #2, #3, ...

........................................................................
.............................. CYCLE   16 ..............................
........................................................................

 iter      E             dE          RMSdq      gap      omega  full diag
   1    -38.3563817 -0.383564E+02  0.607E-02    3.05       0.0  T
   2    -38.3563818 -0.163990E-06  0.359E-02    3.05       1.0  T
   3    -38.3563819 -0.904773E-07  0.147E-03    3.05      13.6  T
   4    -38.3563819 -0.422499E-08  0.945E-04    3.05      21.2  T
   5    -38.3563819 -0.279250E-08  0.411E-04    3.05      48.6  T
     SCC iter.                  ...        0 min,  0.005 sec
     gradient                   ...        0 min,  0.002 sec
 * total energy  :   -37.7824413 Eh     change       -0.1187332E-04 Eh
   gradient norm :     0.0020812 Eh/α   predicted    -0.6280436E-05 ( -47.10%)
   displ. norm   :     0.0726592 α      lambda       -0.1090526E-04
   maximum displ.:     0.0506992 α      in ANC's #1, #2, #3, ...

........................................................................
.............................. CYCLE   17 ..............................
........................................................................

 iter      E             dE          RMSdq      gap      omega  full diag
   1    -38.3566463 -0.383566E+02  0.342E-02    3.05       0.0  T
   2    -38.3566464 -0.576996E-07  0.202E-02    3.05       1.0  T
   3    -38.3566464 -0.539563E-08  0.117E-03    3.05      17.1  T
   4    -38.3566464 -0.194859E-07  0.637E-04    3.05      31.4  T
   5    -38.3566464 -0.328441E-08  0.304E-04    3.05      65.9  T
     SCC iter.                  ...        0 min,  0.005 sec
     gradient                   ...        0 min,  0.002 sec
 * total energy  :   -37.7824485 Eh     change       -0.7216495E-05 Eh
   gradient norm :     0.0012241 Eh/α   predicted    -0.5484364E-05 ( -24.00%)
   displ. norm   :     0.0797046 α      lambda       -0.6279929E-05
   maximum displ.:     0.0547919 α      in ANC's #1, #2, #3, ...

........................................................................
.............................. CYCLE   18 ..............................
........................................................................

 iter      E             dE          RMSdq      gap      omega  full diag
   1    -38.3571064 -0.383571E+02  0.360E-02    3.04       0.0  T
   2    -38.3571065 -0.669571E-07  0.212E-02    3.04       1.0  T
   3    -38.3571065  0.224232E-07  0.147E-03    3.04      13.6  T
   4    -38.3571065 -0.430417E-07  0.625E-04    3.04      32.0  T
   5    -38.3571065 -0.457562E-08  0.294E-04    3.04      68.1  T
     SCC iter.                  ...        0 min,  0.005 sec
     gradient                   ...        0 min,  0.002 sec
 * total energy  :   -37.7824535 Eh     change       -0.4977655E-05 Eh
   gradient norm :     0.0006647 Eh/α   predicted    -0.3150322E-05 ( -36.71%)
   displ. norm   :     0.0313626 α      lambda       -0.1742369E-05
   maximum displ.:     0.0156388 α      in ANC's #4, #1, #7, ...

   *** GEOMETRY OPTIMIZATION CONVERGED AFTER 18 ITERATIONS ***

------------------------------------------------------------------------
 total energy gain   :        -0.0175149 Eh      -10.9908 kcal/mol
 total RMSD          :         0.3177396 a0        0.1681 Å
 total power (kW/mol):        -2.5547433 (step) -235.7583 (real)
------------------------------------------------------------------------

 ANCopt (total)                0 d,  0 h,  0 min,  0.195 sec
 optimizer setup                ...        0 min,  0.000 sec (  0.067%)
 model hessian                  ...        0 min,  0.004 sec (  1.931%)
 ANC generation                 ...        0 min,  0.000 sec (  0.251%)
 coordinate transformation      ...        0 min,  0.000 sec (  0.085%)
 single point calculation       ...        0 min,  0.176 sec ( 90.311%)
 optimization log               ...        0 min,  0.007 sec (  3.686%)
 hessian update                 ...        0 min,  0.003 sec (  1.316%)
 rational function              ...        0 min,  0.002 sec (  1.113%)

================
 final structure:
================
25
 xtb: 6.7.1 (edcfbbe)
C           -5.09412095378001       -0.49428381059808       -0.12325413100883
C           -4.04800931912099        0.52984257504590       -0.52171209665694
O           -2.75642660842121       -0.03406408182999       -0.30391122825799
C           -1.70847156060778        0.77130604688937       -0.53975440262309
O           -1.82061603348575        1.91457677564472       -0.91556956223199
C           -0.44210468855305        0.07484915513429       -0.27870725851552
C            0.72703540667149        0.69913246426875       -0.46862168862579
C            2.05655324704608        0.16283587774723       -0.25749221816263
C            2.28683422061994       -1.14623186300081        0.17503160791438
C            3.57381270403872       -1.60846769606494        0.36509488661150
C            4.65852702030565       -0.77806005011620        0.12882249685679
C            4.44730339176911        0.52183402485882       -0.30149458014508
C            3.16105961356478        0.98692592240224       -0.49308222346904
H           -6.08649306421748       -0.08805507664247       -0.29520849298111
H           -4.98995986036532       -0.74694953474946        0.92830331025586
H           -4.97341933016622       -1.39978449164192       -0.71196746302919
H           -4.13828834171893        1.44662884092681        0.07188022824945
H           -4.13988371962140        0.80282834254362       -1.57930497233614
H           -0.53448840182063       -0.94272451752076        0.06536305199668
H            0.68041874920480        1.72466115607384       -0.81723765011850
H            1.45287812552723       -1.80440150457481        0.36216496929357
H            3.73590788145163       -2.62267447807397        0.69993192006799
H            5.66337681482811       -1.14362701107550        0.27954941410350
H            5.28905726709610        1.17262760853356       -0.48736679533564
H            2.99951743975550        2.00127332581959       -0.82855212185229
 
 Bond Distances (Angstroems)
 ---------------------------
C1-C2=1.5172         C1-H14=1.0860        C1-H15=1.0865        C1-H16=1.0868        C2-C1=1.5172         C2-O3=1.4260         
C2-H17=1.0959        C2-H18=1.0961        O3-C2=1.4260         O3-C4=1.3426         C4-O3=1.3426         C4-O5=1.2087         
C4-C6=1.4686         O5-C4=1.2087         C6-C4=1.4686         C6-C7=1.3389         C6-H19=1.0781        C7-C6=1.3389         
C7-C8=1.4491         C7-H20=1.0842        C8-C7=1.4491         C8-C9=1.3978         C8-C13=1.3981        C9-C8=1.3978         
C9-C10=1.3806        C9-H21=1.0787        C10-C9=1.3806        C10-C11=1.3864       C10-H22=1.0803       C11-C10=1.3864       
C11-C12=1.3855       C11-H23=1.0799       C12-C11=1.3855       C12-C13=1.3811       C12-H24=1.0801       C13-C8=1.3981        
C13-C12=1.3811       C13-H25=1.0805       H14-C1=1.0860        H15-C1=1.0865        H16-C1=1.0868        H17-C2=1.0959        
H18-C2=1.0961        H19-C6=1.0781        H20-C7=1.0842        H21-C9=1.0787        H22-C10=1.0803       H23-C11=1.0799       
H24-C12=1.0801       H25-C13=1.0805       
 C  H  Rav=1.0844 sigma=0.0059  Rmin=1.0781  Rmax=1.0961    12
 C  C  Rav=1.4103 sigma=0.0497  Rmin=1.3389  Rmax=1.5172    10
 O  C  Rav=1.3258 sigma=0.0895  Rmin=1.2087  Rmax=1.4260     3
 
 selected bond angles (degree)
 --------------------
H14-C1-C2=109.63               H15-C1-C2=110.18               H15-C1-H14=109.14              H16-C1-C2=110.09               
H16-C1-H14=109.11              H16-C1-H15=108.66              O3-C2-C1=108.51                H17-C2-C1=111.45               
H17-C2-O3=108.83               H18-C2-C1=111.33               H18-C2-O3=108.77               H18-C2-H17=107.90              
C4-O3-C2=116.29                O5-C4-O3=123.34                C6-C4-O3=110.94                C6-C4-O5=125.72                
C7-C6-C4=120.44                H19-C6-C4=115.49               H19-C6-C7=124.07               C8-C7-C6=127.44                
H20-C7-C6=116.69               H20-C7-C8=115.87               C9-C8-C7=122.88                C13-C8-C7=118.83               
C13-C8-C9=118.30               C10-C9-C8=120.65               H21-C9-C8=119.85               H21-C9-C10=119.50              
C11-C10-C9=120.35              H22-C10-C9=119.79              H22-C10-C11=119.85             
 
 selected dihedral angles (degree)
 ---------------------------------
O3-C2-C1-H14=180.79           O3-C2-C1-H15= 60.66           O3-C2-C1-H16=300.83           H17-C2-C1-H14= 60.98          
H17-C2-C1-H15=300.85          H17-C2-C1-H16=181.02          H18-C2-C1-H14=300.46          H18-C2-C1-H15=180.33          
H18-C2-C1-H16= 60.50          C4-O3-C2-C1=183.45            C4-O3-C2-H17=304.88           C4-O3-C2-H18= 62.19           
O5-C4-O3-C2=  0.03            C6-C4-O3-C2=179.98            C7-C6-C4-O3=179.22            C7-C6-C4-O5=359.17            
H19-C6-C4-O3=359.23           H19-C6-C4-O5=179.18           C8-C7-C6-C4=179.84            C8-C7-C6-H19=359.83           
H20-C7-C6-C4=  0.06           H20-C7-C6-H19=180.04          C9-C8-C7-C6=  0.96            C9-C8-C7-H20=180.75           
C13-C8-C7-C6=181.07           C13-C8-C7-H20=  0.86          C10-C9-C8-C7=180.19           C10-C9-C8-C13=  0.09          
H21-C9-C8-C7=  0.25           H21-C9-C8-C13=180.14          C11-C10-C9-C8=  0.00          C11-C10-C9-H21=179.95         
H22-C10-C9-C8=179.99          H22-C10-C9-H21=359.93         
           -------------------------------------------------
          |                Final Singlepoint                |
           -------------------------------------------------

          ...................................................
          :                      SETUP                      :
          :.................................................:
          :  # basis functions                  64          :
          :  # atomic orbitals                  64          :
          :  # shells                           38          :
          :  # electrons                        68          :
          :  max. iterations                   250          :
          :  Hamiltonian                  GFN2-xTB          :
          :  restarted?                      false          :
          :  GBSA solvation                  false          :
          :  PC potential                    false          :
          :  electronic temp.          300.0000000     K    :
          :  accuracy                    1.0000000          :
          :  -> integral cutoff          0.2500000E+02      :
          :  -> integral neglect         0.1000000E-07      :
          :  -> SCF convergence          0.1000000E-05 Eh   :
          :  -> wf. convergence          0.1000000E-03 e    :
          :  Broyden damping             0.4000000          :
          :  net charge                          0          :
          :  unpaired electrons                  0          :
          ...................................................

 iter      E             dE          RMSdq      gap      omega  full diag
   1    -38.3571065 -0.383571E+02  0.141E-04    3.04       0.0  T
   2    -38.3571065 -0.135962E-09  0.996E-05    3.04     200.8  T
   3    -38.3571065 -0.174651E-09  0.490E-05    3.04     408.3  T

   *** convergence criteria satisfied after 3 iterations ***

         #    Occupation            Energy/Eh            Energy/eV
      -------------------------------------------------------------
         1        2.0000           -0.7335154             -19.9600
       ...           ...                  ...                  ...
        28        2.0000           -0.4474692             -12.1763
        29        2.0000           -0.4365770             -11.8799
        30        2.0000           -0.4328854             -11.7794
        31        2.0000           -0.4281744             -11.6512
        32        2.0000           -0.4149078             -11.2902
        33        2.0000           -0.4079728             -11.1015
        34        2.0000           -0.3981490             -10.8342 (HOMO)
        35                         -0.2862511              -7.7893 (LUMO)
        36                         -0.2318818              -6.3098
        37                         -0.2132554              -5.8030
        38                         -0.1535233              -4.1776
        39                         -0.0860922              -2.3427
       ...                                ...                  ...
        64                          0.7195576              19.5802
      -------------------------------------------------------------
                  HL-Gap            0.1118979 Eh            3.0449 eV
             Fermi-level           -0.3422001 Eh           -9.3117 eV

 SCC (total)                   0 d,  0 h,  0 min,  0.007 sec
 SCC setup                      ...        0 min,  0.001 sec ( 13.265%)
 Dispersion                     ...        0 min,  0.000 sec (  3.461%)
 classical contributions        ...        0 min,  0.000 sec (  0.537%)
 integral evaluation            ...        0 min,  0.001 sec (  7.497%)
 iterations                     ...        0 min,  0.003 sec ( 46.612%)
 molecular gradient             ...        0 min,  0.002 sec ( 26.678%)
 printout                       ...        0 min,  0.000 sec (  1.614%)

         :::::::::::::::::::::::::::::::::::::::::::::::::::::
         ::                     SUMMARY                     ::
         :::::::::::::::::::::::::::::::::::::::::::::::::::::
         :: total energy             -37.782453511298 Eh    ::
         :: gradient norm              0.000664082549 Eh/a0 ::
         :: HOMO-LUMO gap              3.044897063550 eV    ::
         ::.................................................::
         :: SCC energy               -38.357293593711 Eh    ::
         :: -> isotropic ES            0.047820071835 Eh    ::
         :: -> anisotropic ES          0.001191316751 Eh    ::
         :: -> anisotropic XC          0.016120313337 Eh    ::
         :: -> dispersion             -0.019509962466 Eh    ::
         :: repulsion energy           0.574840082413 Eh    ::
         :: add. restraining           0.000000000000 Eh    ::
         :: total charge               0.000000000000 e     ::
         :::::::::::::::::::::::::::::::::::::::::::::::::::::

           -------------------------------------------------
          |                Property Printout                |
           -------------------------------------------------

    * Orbital Energies and Occupations

         #    Occupation            Energy/Eh            Energy/eV
      -------------------------------------------------------------
         1        2.0000           -0.7335154             -19.9600
       ...           ...                  ...                  ...
        22        2.0000           -0.4865916             -13.2408
        23        2.0000           -0.4842276             -13.1765
        24        2.0000           -0.4791823             -13.0392
        25        2.0000           -0.4709692             -12.8157
        26        2.0000           -0.4640857             -12.6284
        27        2.0000           -0.4560947             -12.4110
        28        2.0000           -0.4474692             -12.1763
        29        2.0000           -0.4365770             -11.8799
        30        2.0000           -0.4328854             -11.7794
        31        2.0000           -0.4281744             -11.6512
        32        2.0000           -0.4149078             -11.2902
        33        2.0000           -0.4079728             -11.1015
        34        2.0000           -0.3981490             -10.8342 (HOMO)
        35                         -0.2862511              -7.7893 (LUMO)
        36                         -0.2318818              -6.3098
        37                         -0.2132554              -5.8030
        38                         -0.1535233              -4.1776
        39                         -0.0860922              -2.3427
        40                          0.0148932               0.4053
        41                          0.1018594               2.7717
        42                          0.1088870               2.9630
        43                          0.1149553               3.1281
        44                          0.1213684               3.3026
        45                          0.1438560               3.9145
       ...                                ...                  ...
        64                          0.7195576              19.5802
      -------------------------------------------------------------
                  HL-Gap            0.1118979 Eh            3.0449 eV
             Fermi-level           -0.3422001 Eh           -9.3117 eV

     #   Z          covCN         q      C6AA      α(0)
     1   6 C        3.751    -0.115    22.763     6.804
     2   6 C        3.702     0.087    19.287     6.280
     3   8 O        1.706    -0.273    18.522     5.811
     4   6 C        2.728     0.352    21.030     7.508
     5   8 O        0.856    -0.427    22.227     6.321
     6   6 C        2.892    -0.072    29.802     8.950
     7   6 C        2.907    -0.012    28.320     8.726
     8   6 C        2.970     0.017    27.622     8.621
     9   6 C        2.923    -0.029    28.715     8.788
    10   6 C        2.917    -0.028    28.689     8.783
    11   6 C        2.920    -0.025    28.636     8.775
    12   6 C        2.917    -0.027    28.684     8.783
    13   6 C        2.928    -0.029    28.723     8.789
    14   1 H        0.925     0.051     2.309     2.376
    15   1 H        0.925     0.057     2.236     2.338
    16   1 H        0.925     0.057     2.230     2.335
    17   1 H        0.924     0.050     2.319     2.382
    18   1 H        0.924     0.048     2.345     2.395
    19   1 H        0.926     0.059     2.207     2.323
    20   1 H        0.925     0.069     2.097     2.264
    21   1 H        0.926     0.040     2.448     2.447
    22   1 H        0.926     0.036     2.503     2.474
    23   1 H        0.926     0.036     2.498     2.471
    24   1 H        0.926     0.037     2.495     2.470
    25   1 H        0.926     0.041     2.437     2.441

 Mol. C6AA /au·bohr⁶  :       7019.093423
 Mol. C8AA /au·bohr⁸  :     166300.594028
 Mol. α(0) /au        :        131.655025


Wiberg/Mayer (AO) data.
largest (>0.10) Wiberg bond orders for each atom

 ---------------------------------------------------------------------------
     #   Z sym  total        # sym  WBO       # sym  WBO       # sym  WBO
 ---------------------------------------------------------------------------
     1   6 C    3.992 --     2 C    1.019    15 H    0.986    16 H    0.985
                            14 H    0.984
     2   6 C    3.931 --     1 C    1.019    17 H    0.968    18 H    0.968
                             3 O    0.943
     3   8 O    2.291 --     4 C    1.112     2 C    0.943     5 O    0.168
     4   6 C    3.919 --     5 O    1.706     3 O    1.112     6 C    1.036
     5   8 O    2.015 --     4 C    1.706     3 O    0.168
     6   6 C    3.987 --     7 C    1.777     4 C    1.036    19 H    0.961
     7   6 C    3.982 --     6 C    1.777     8 C    1.116    20 H    0.957
     8   6 C    3.990 --    13 C    1.365     9 C    1.362     7 C    1.116
     9   6 C    3.992 --    10 C    1.466     8 C    1.362    21 H    0.966
                            12 C    0.105
    10   6 C    3.992 --     9 C    1.466    11 C    1.425    22 H    0.971
                            13 C    0.103
    11   6 C    3.983 --    12 C    1.431    10 C    1.425    23 H    0.971
    12   6 C    3.992 --    13 C    1.460    11 C    1.431    24 H    0.970
                             9 C    0.105
    13   6 C    3.989 --    12 C    1.460     8 C    1.365    25 H    0.968
                            10 C    0.103
    14   1 H    0.997 --     1 C    0.984
    15   1 H    0.997 --     1 C    0.986
    16   1 H    0.997 --     1 C    0.985
    17   1 H    0.997 --     2 C    0.968
    18   1 H    0.997 --     2 C    0.968
    19   1 H    0.996 --     6 C    0.961
    20   1 H    0.995 --     7 C    0.957
    21   1 H    0.998 --     9 C    0.966
    22   1 H    0.998 --    10 C    0.971
    23   1 H    0.998 --    11 C    0.971
    24   1 H    0.998 --    12 C    0.970
    25   1 H    0.998 --    13 C    0.968
 ---------------------------------------------------------------------------

Topologies differ in total number of bonds
Writing topology from bond orders to xtbtopo.mol

molecular dipole:
                 x           y           z       tot (Debye)
 q only:        0.324      -0.809       0.281
   full:        0.300      -0.858       0.293       2.428
molecular quadrupole (traceless):
                xx          xy          yy          xz          yz          zz
 q only:       13.933       4.106      -7.982      -1.249       1.531      -5.951
  q+dip:       14.740       3.978      -6.544      -0.971       0.259      -8.195
   full:       13.388       3.841      -8.286      -1.089       2.012      -5.101

           -------------------------------------------------
          |                Geometry Summary                 |
           -------------------------------------------------

      molecular mass/u    :      176.2121937
   center of mass at/Å    :        0.2111825       0.1424837      -0.2817550
  moments of inertia/u·Å² :        0.1779662E+03   0.1832670E+04   0.2004185E+04
rotational constants/cm⁻¹ :        0.9472380E-01   0.9198400E-02   0.8411216E-02

 * 23 selected distances

     #   Z          #   Z                                           value/Å
     1   6 C        2   6 C                                       1.5172190 (max)
     2   6 C        3   8 O                                       1.4260485
     3   8 O        4   6 C                                       1.3425547
     4   6 C        5   8 O                                       1.2086694
     6   6 C        7   6 C                                       1.3389123
     8   6 C        9   6 C                                       1.3977714
     9   6 C       10   6 C                                       1.3806158
    10   6 C       11   6 C                                       1.3863647
    11   6 C       12   6 C                                       1.3854650
     8   6 C       13   6 C                                       1.3980564
    12   6 C       13   6 C                                       1.3811009
     1   6 C       14   1 H                                       1.0859985
     1   6 C       15   1 H                                       1.0864910
     1   6 C       16   1 H                                       1.0867769
     2   6 C       17   1 H                                       1.0959012
     2   6 C       18   1 H                                       1.0961136
     6   6 C       19   1 H                                       1.0781352 (min)
     7   6 C       20   1 H                                       1.0841658
     9   6 C       21   1 H                                       1.0787442
    10   6 C       22   1 H                                       1.0802807
    11   6 C       23   1 H                                       1.0798524
    12   6 C       24   1 H                                       1.0801067
    13   6 C       25   1 H                                       1.0805262

 * 3 distinct bonds (by element types)

   Z      Z             #   av. dist./Å        max./Å        min./Å
   1 H    6 C          12     1.0844244     1.0961136     1.0781352
   6 C    6 C           8     1.3981882     1.5172190     1.3389123
   6 C    8 O           3     1.3257575     1.4260485     1.2086694


optimized geometry written to: xtbopt.xyz


           -------------------------------------------------
          | TOTAL ENERGY              -37.782453511298 Eh   |
          | GRADIENT NORM               0.000664082549 Eh/α |
          | HOMO-LUMO GAP               3.044897063550 eV   |
           -------------------------------------------------

------------------------------------------------------------------------
 * finished run on 2025/12/01 at 14:17:50.684     
------------------------------------------------------------------------
 total:
 * wall-time:     0 d,  0 h,  0 min,  0.232 sec
 *  cpu-time:     0 d,  0 h,  0 min,  5.222 sec
 * ratio c/w:    22.461 speedup
 SCF:
 * wall-time:     0 d,  0 h,  0 min,  0.022 sec
 *  cpu-time:     0 d,  0 h,  0 min,  0.488 sec
 * ratio c/w:    22.405 speedup
 ANC optimizer:
 * wall-time:     0 d,  0 h,  0 min,  0.203 sec
 *  cpu-time:     0 d,  0 h,  0 min,  4.597 sec
 * ratio c/w:    22.652 speedup

normal termination of xtb
