      -----------------------------------------------------------      
     |                   =====================                   |     
     |                           x T B                           |     
     |                   =====================                   |     
     |                         S. Grimme                         |     
     |          Mulliken Center for Theoretical Chemistry        |     
     |                    University of Bonn                     |     
      -----------------------------------------------------------      

   * xtb version 6.7.1 (edcfbbe) compiled by 'albert@albert-system' on 2024-07-22

   xtb is free software: you can redistribute it and/or modify it under
   the terms of the GNU Lesser General Public License as published by
   the Free Software Foundation, either version 3 of the License, or
   (at your option) any later version.
   
   xtb is distributed in the hope that it will be useful,
   but WITHOUT ANY WARRANTY; without even the implied warranty of
   MERCHANTABILITY or FITNESS FOR A PARTICULAR PURPOSE.  See the
   GNU Lesser General Public License for more details.
   
   Cite this work as:
   * C. Bannwarth, E. Caldeweyher, S. Ehlert, A. Hansen, P. Pracht,
     J. Seibert, S. Spicher, S. Grimme, WIREs Comput. Mol. Sci., 2020, 11,
     e01493. DOI: 10.1002/wcms.1493
   
   for GFN2-xTB:
   * C. Bannwarth, S. Ehlert and S. Grimme., J. Chem. Theory Comput., 2019,
     15, 1652-1671. DOI: 10.1021/acs.jctc.8b01176
   for GFN1-xTB:
   * S. Grimme, C. Bannwarth, P. Shushkov, J. Chem. Theory Comput., 2017,
     13, 1989-2009. DOI: 10.1021/acs.jctc.7b00118
   for GFN0-xTB:
   * P. Pracht, E. Caldeweyher, S. Ehlert, S. Grimme, ChemRxiv, 2019, preprint.
     DOI: 10.26434/chemrxiv.8326202.v1
   for GFN-FF:
   * S. Spicher and S. Grimme, Angew. Chem. Int. Ed., 2020, 59, 15665-15673.
     DOI: 10.1002/anie.202004239
   
   for ALPB and GBSA implicit solvation:
   * S. Ehlert, M. Stahn, S. Spicher, S. Grimme, J. Chem. Theory Comput.,
     2021, 17, 4250-4261. DOI: 10.1021/acs.jctc.1c00471
   
   for ddCOSMO and CPCM-X implicit solvation:
   * M. Stahn, S. Ehlert, S. Grimme, J. Phys. Chem. A,
     2023, XX, XXXX-XXXX. DOI: 10.1021/acs.jpca.3c04382
   
   for DFT-D4:
   * E. Caldeweyher, C. Bannwarth and S. Grimme, J. Chem. Phys., 2017,
     147, 034112. DOI: 10.1063/1.4993215
   * E. Caldeweyher, S. Ehlert, A. Hansen, H. Neugebauer, S. Spicher,
     C. Bannwarth and S. Grimme, J. Chem. Phys., 2019, 150, 154122.
     DOI: 10.1063/1.5090222
   * E. Caldeweyher, J.-M. Mewes, S. Ehlert and S. Grimme, Phys. Chem. Chem. Phys.
     2020, 22, 8499-8512. DOI: 10.1039/D0CP00502A
   
   for sTDA-xTB:
   * S. Grimme and C. Bannwarth, J. Chem. Phys., 2016, 145, 054103.
     DOI: 10.1063/1.4959605
   
   in the mass-spec context:
   * V. Asgeirsson, C. Bauer and S. Grimme, Chem. Sci., 2017, 8, 4879.
     DOI: 10.1039/c7sc00601b
   * J. Koopman and S. Grimme, ACS Omega 2019, 4, 12, 15120-15133.
     DOI: 10.1021/acsomega.9b02011
   
   for metadynamics refer to:
   * S. Grimme, J. Chem. Theory Comput., 2019, 155, 2847-2862
     DOI: 10.1021/acs.jctc.9b00143
   
   for SPH calculations refer to:
   * S. Spicher and S. Grimme, J. Chem. Theory Comput., 2021, 17, 1701-1714
     DOI: 10.1021/acs.jctc.0c01306
   
   for ONIOM refer to:
   * C. Plett, A. Katbashev, S. Ehlert, S. Grimme, M. Bursch,
     Phys. Chem. Chem. Phys., 2023, 25, 17860-17868. DOI: 10.1039/D3CP02178E
   
   for DIPRO refer to:
   * J. Kohn, N. Gildemeister, S. Grimme, D. Fazzi, A. Hansen,
     J. Chem. Phys., 2023, just accepted.
   
   for PTB refer to:
   * S. Grimme, M. Mueller, A. Hansen, J. Chem. Phys., 2023, 158, 124111.
     DOI: 10.1063/5.0137838
   
   with help from (in alphabetical order)
   P. Atkinson, C. Bannwarth, F. Bohle, G. Brandenburg, E. Caldeweyher
   M. Checinski, S. Dohm, S. Ehlert, S. Ehrlich, I. Gerasimov, C. Hölzer
   A. Katbashev, J. Kohn, J. Koopman, C. Lavigne, S. Lehtola, F. März, M. Müller,
   F. Musil, H. Neugebauer, J. Pisarek, C. Plett, P. Pracht, F. Pultar,
   J. Seibert, P. Shushkov, S. Spicher, M. Stahn, M. Steiner, T. Strunk,
   J. Stückrath, T. Rose, and J. Unsleber
   
 * started run on 2025/12/01 at 14:17:49.700     
   ID    Z sym.   atoms
    1    6 C      1, 2, 4, 6-13
    2    8 O      3, 5
    3    1 H      14-25

           -------------------------------------------------
          |                Calculation Setup                |
           -------------------------------------------------

          program call               : xtb pipeline_data/3_conformer_xyz/acrylates/rdkit/KBEBGUQPQBELIU-CMDGGOBGSA-N_conf149.xyz --opt --gfn 2-xTB --iterations 250
          coordinate file            : pipeline_data/3_conformer_xyz/acrylates/rdkit/KBEBGUQPQBELIU-CMDGGOBGSA-N_conf149.xyz
          omp threads                :                    24

########################################################################
[WARNING] Please study the warnings concerning your input carefully
-1- readin_getIntValue: could not parse '2-xTB'
########################################################################

           -------------------------------------------------
          |                 G F N 2 - x T B                 |
           -------------------------------------------------

        Reference                      10.1021/acs.jctc.8b01176
      * Hamiltonian:
        H0-scaling (s, p, d)           1.850000    2.230000    2.230000
        zeta-weighting                 0.500000
      * Dispersion:
        s8                             2.700000
        a1                             0.520000
        a2                             5.000000
        s9                             5.000000
      * Repulsion:
        kExp                           1.500000    1.000000
        rExp                           1.000000
      * Coulomb:
        alpha                          2.000000
        third order                    shell-resolved
        anisotropic                    true
        a3                             3.000000
        a5                             4.000000
        cn-shift                       1.200000
        cn-exp                         4.000000
        max-rad                        5.000000


          ...................................................
          :                      SETUP                      :
          :.................................................:
          :  # basis functions                  64          :
          :  # atomic orbitals                  64          :
          :  # shells                           38          :
          :  # electrons                        68          :
          :  max. iterations                   250          :
          :  Hamiltonian                  GFN2-xTB          :
          :  restarted?                      false          :
          :  GBSA solvation                  false          :
          :  PC potential                    false          :
          :  electronic temp.          300.0000000     K    :
          :  accuracy                    1.0000000          :
          :  -> integral cutoff          0.2500000E+02      :
          :  -> integral neglect         0.1000000E-07      :
          :  -> SCF convergence          0.1000000E-05 Eh   :
          :  -> wf. convergence          0.1000000E-03 e    :
          :  Broyden damping             0.4000000          :
          :  net charge                          0          :
          :  unpaired electrons                  0          :
          ...................................................

 iter      E             dE          RMSdq      gap      omega  full diag
   1    -38.2538176 -0.382538E+02  0.452E+00    3.22       0.0  T
   2    -38.3174211 -0.636035E-01  0.243E+00    2.98       1.0  T
   3    -38.3172460  0.175104E-03  0.125E+00    3.22       1.0  T
   4    -38.3242605 -0.701454E-02  0.206E-01    3.09       1.0  T
   5    -38.3247463 -0.485762E-03  0.691E-02    3.10       1.0  T
   6    -38.3247561 -0.983991E-05  0.384E-02    3.10       1.0  T
   7    -38.3247651 -0.898834E-05  0.180E-02    3.10       1.1  T
   8    -38.3247682 -0.311354E-05  0.616E-03    3.10       3.2  T
   9    -38.3247685 -0.283350E-06  0.286E-03    3.10       7.0  T
  10    -38.3247686 -0.865204E-07  0.127E-03    3.10      15.8  T
  11    -38.3247686 -0.966514E-08  0.613E-04    3.10      32.6  T
  12    -38.3247686 -0.121255E-08  0.135E-04    3.10     148.3  T

   *** convergence criteria satisfied after 12 iterations ***

         #    Occupation            Energy/Eh            Energy/eV
      -------------------------------------------------------------
         1        2.0000           -0.7241923             -19.7063
       ...           ...                  ...                  ...
        28        2.0000           -0.4496124             -12.2346
        29        2.0000           -0.4346844             -11.8284
        30        2.0000           -0.4289149             -11.6714
        31        2.0000           -0.4273026             -11.6275
        32        2.0000           -0.4139832             -11.2651
        33        2.0000           -0.4083862             -11.1128
        34        2.0000           -0.4031179             -10.9694 (HOMO)
        35                         -0.2891068              -7.8670 (LUMO)
        36                         -0.2349405              -6.3931
        37                         -0.2193244              -5.9681
        38                         -0.1596465              -4.3442
        39                         -0.0834172              -2.2699
       ...                                ...                  ...
        64                          0.7096494              19.3105
      -------------------------------------------------------------
                  HL-Gap            0.1140110 Eh            3.1024 eV
             Fermi-level           -0.3461123 Eh           -9.4182 eV

 SCC (total)                   0 d,  0 h,  0 min,  0.025 sec
 SCC setup                      ...        0 min,  0.001 sec (  2.581%)
 Dispersion                     ...        0 min,  0.000 sec (  1.342%)
 classical contributions        ...        0 min,  0.000 sec (  1.128%)
 integral evaluation            ...        0 min,  0.001 sec (  5.337%)
 iterations                     ...        0 min,  0.020 sec ( 80.935%)
 molecular gradient             ...        0 min,  0.002 sec (  7.962%)
 printout                       ...        0 min,  0.000 sec (  0.600%)

         :::::::::::::::::::::::::::::::::::::::::::::::::::::
         ::                     SUMMARY                     ::
         :::::::::::::::::::::::::::::::::::::::::::::::::::::
         :: total energy             -37.765205735018 Eh    ::
         :: gradient norm              0.129489301399 Eh/a0 ::
         :: HOMO-LUMO gap              3.102398476671 eV    ::
         ::.................................................::
         :: SCC energy               -38.324955609347 Eh    ::
         :: -> isotropic ES            0.050011572570 Eh    ::
         :: -> anisotropic ES          0.000577522162 Eh    ::
         :: -> anisotropic XC          0.016638995250 Eh    ::
         :: -> dispersion             -0.019409665038 Eh    ::
         :: repulsion energy           0.559749874329 Eh    ::
         :: add. restraining           0.000000000000 Eh    ::
         :: total charge              -0.000000000000 e     ::
         :::::::::::::::::::::::::::::::::::::::::::::::::::::

      ----------------------------------------------------------- 
     |                   =====================                   |
     |                        A N C O P T                        |
     |                   =====================                   |
     |               Approximate Normal Coordinate               |
     |                Rational Function Optimizer                |
      ----------------------------------------------------------- 
      ----------------------------------------------------------- 
     |                   =====================                   |
     |                        A N C O P T                        |
     |                   =====================                   |
     |               Approximate Normal Coordinate               |
     |                Rational Function Optimizer                |
      ----------------------------------------------------------- 

          ...................................................
          :                      SETUP                      :
          :.................................................:
          :   optimization level            normal          :
          :   max. optcycles                   200          :
          :   ANC micro-cycles                  20          :
          :   degrees of freedom                69          :
          :.................................................:
          :   RF solver                   davidson          :
          :   write xtbopt.log                true          :
          :   linear?                        false          :
          :   energy convergence         0.5000000E-05 Eh   :
          :   grad. convergence          0.1000000E-02 Eh/α :
          :   maxmium RF displ.          1.0000000          :
          :   Hlow (freq-cutoff)         0.1000000E-01      :
          :   Hmax (freq-cutoff)         5.0000000          :
          :   S6 in model hess.         20.0000000          :
          ...................................................

generating ANC from exact Hessian ...
Using Lindh-Hessian (1995)
 Shifting diagonal of input Hessian by   9.289134548981549E-003
 Lowest  eigenvalues of input Hessian
    0.000000    0.000000    0.000000    0.000000    0.000000    0.000000
    0.010000    0.010554    0.010592    0.013165    0.013779    0.016524
    0.018588    0.021266    0.022213    0.024921    0.030159    0.032726
 Highest eigenvalues
    1.709448    1.924588    1.969804    2.051343    2.097845    2.136211
 

........................................................................
.............................. CYCLE    1 ..............................
........................................................................

 iter      E             dE          RMSdq      gap      omega  full diag
   1    -38.3247686 -0.383248E+02  0.660E-05    3.10       0.0  T
   2    -38.3247686 -0.113758E-10  0.392E-05    3.10     509.6  T
   3    -38.3247686 -0.177636E-12  0.251E-05    3.10     798.2  T
     SCC iter.                  ...        0 min,  0.003 sec
     gradient                   ...        0 min,  0.002 sec
 * total energy  :   -37.7652057 Eh     change       -0.2818865E-09 Eh
   gradient norm :     0.1294893 Eh/α   predicted     0.0000000E+00 (-100.00%)
   displ. norm   :     0.3118598 α      lambda       -0.2038836E-01
   maximum displ.:     0.1267858 α      in ANC's #16, #39, #19, ...

........................................................................
.............................. CYCLE    2 ..............................
........................................................................

 iter      E             dE          RMSdq      gap      omega  full diag
   1    -38.3433219 -0.383433E+02  0.258E-01    3.08       0.0  T
   2    -38.3435840 -0.262133E-03  0.168E-01    3.05       1.0  T
   3    -38.3435604  0.236009E-04  0.829E-02    3.05       1.0  T
   4    -38.3436179 -0.574876E-04  0.349E-02    3.05       1.0  T
   5    -38.3436425 -0.245948E-04  0.810E-03    3.04       2.5  T
   6    -38.3436432 -0.689223E-06  0.380E-03    3.05       5.3  T
   7    -38.3436432 -0.452375E-07  0.175E-03    3.05      11.4  T
   8    -38.3436433 -0.239351E-07  0.765E-04    3.05      26.1  T
   9    -38.3436433 -0.430358E-08  0.296E-04    3.05      67.6  T
     SCC iter.                  ...        0 min,  0.009 sec
     gradient                   ...        0 min,  0.003 sec
 * total energy  :   -37.7788969 Eh     change       -0.1369116E-01 Eh
   gradient norm :     0.0433347 Eh/α   predicted    -0.1119331E-01 ( -18.24%)
   displ. norm   :     0.2920332 α      lambda       -0.5130540E-02
   maximum displ.:     0.1514830 α      in ANC's #14, #9, #16, ...

........................................................................
.............................. CYCLE    3 ..............................
........................................................................

 iter      E             dE          RMSdq      gap      omega  full diag
   1    -38.3532381 -0.383532E+02  0.154E-01    3.04       0.0  T
   2    -38.3533111 -0.729425E-04  0.980E-02    3.03       1.0  T
   3    -38.3532843  0.267375E-04  0.536E-02    3.02       1.0  T
   4    -38.3533238 -0.394261E-04  0.210E-02    3.02       1.0  T
   5    -38.3533318 -0.805766E-05  0.426E-03    3.02       4.7  T
   6    -38.3533320 -0.155995E-06  0.198E-03    3.02      10.1  T
   7    -38.3533320 -0.270481E-07  0.967E-04    3.02      20.7  T
   8    -38.3533320 -0.765952E-08  0.404E-04    3.02      49.5  T
     SCC iter.                  ...        0 min,  0.008 sec
     gradient                   ...        0 min,  0.002 sec
 * total energy  :   -37.7818939 Eh     change       -0.2997051E-02 Eh
   gradient norm :     0.0117007 Eh/α   predicted    -0.2785400E-02 (  -7.06%)
   displ. norm   :     0.1452245 α      lambda       -0.6366197E-03
   maximum displ.:     0.0784119 α      in ANC's #14, #9, #6, ...

........................................................................
.............................. CYCLE    4 ..............................
........................................................................

 iter      E             dE          RMSdq      gap      omega  full diag
   1    -38.3550240 -0.383550E+02  0.584E-02    3.03       0.0  T
   2    -38.3550273 -0.333363E-05  0.350E-02    3.03       1.0  T
   3    -38.3550253  0.201574E-05  0.116E-02    3.03       1.7  T
   4    -38.3550271 -0.181031E-05  0.498E-03    3.03       4.0  T
   5    -38.3550277 -0.613203E-06  0.883E-04    3.03      22.7  T
   6    -38.3550277 -0.432588E-08  0.501E-04    3.03      39.9  T
     SCC iter.                  ...        0 min,  0.006 sec
     gradient                   ...        0 min,  0.003 sec
 * total energy  :   -37.7822987 Eh     change       -0.4047200E-03 Eh
   gradient norm :     0.0069014 Eh/α   predicted    -0.3250252E-03 ( -19.69%)
   displ. norm   :     0.0935473 α      lambda       -0.1902526E-03
   maximum displ.:     0.0607188 α      in ANC's #6, #9, #14, ...

........................................................................
.............................. CYCLE    5 ..............................
........................................................................

 iter      E             dE          RMSdq      gap      omega  full diag
   1    -38.3565806 -0.383566E+02  0.378E-02    3.04       0.0  T
   2    -38.3565811 -0.416142E-06  0.225E-02    3.04       1.0  T
   3    -38.3565810  0.517171E-07  0.252E-03    3.04       7.9  T
   4    -38.3565811 -0.982027E-07  0.915E-04    3.04      21.9  T
   5    -38.3565811 -0.109809E-07  0.444E-04    3.04      45.1  T
     SCC iter.                  ...        0 min,  0.006 sec
     gradient                   ...        0 min,  0.002 sec
 * total energy  :   -37.7824025 Eh     change       -0.1038269E-03 Eh
   gradient norm :     0.0028863 Eh/α   predicted    -0.9636117E-04 (  -7.19%)
   displ. norm   :     0.0487519 α      lambda       -0.5325853E-04
   maximum displ.:     0.0384311 α      in ANC's #6, #7, #3, ...

........................................................................
.............................. CYCLE    6 ..............................
........................................................................

 iter      E             dE          RMSdq      gap      omega  full diag
   1    -38.3572194 -0.383572E+02  0.215E-02    3.05       0.0  T
   2    -38.3572195 -0.884029E-07  0.129E-02    3.05       1.5  T
   3    -38.3572193  0.149991E-06  0.254E-03    3.05       7.9  T
   4    -38.3572195 -0.167676E-06  0.751E-04    3.05      26.6  T
   5    -38.3572195 -0.924189E-08  0.296E-04    3.05      67.5  T
     SCC iter.                  ...        0 min,  0.005 sec
     gradient                   ...        0 min,  0.002 sec
 * total energy  :   -37.7824296 Eh     change       -0.2715751E-04 Eh
   gradient norm :     0.0017370 Eh/α   predicted    -0.2675549E-04 (  -1.48%)
   displ. norm   :     0.0454793 α      lambda       -0.1616477E-04
   maximum displ.:     0.0290193 α      in ANC's #6, #14, #4, ...

........................................................................
.............................. CYCLE    7 ..............................
........................................................................

 iter      E             dE          RMSdq      gap      omega  full diag
   1    -38.3570737 -0.383571E+02  0.147E-02    3.05       0.0  T
   2    -38.3570738 -0.929769E-07  0.880E-03    3.05       2.3  T
   3    -38.3570738  0.265487E-07  0.149E-03    3.05      13.4  T
   4    -38.3570738 -0.272835E-07  0.683E-04    3.05      29.3  T
   5    -38.3570738 -0.944257E-08  0.210E-04    3.05      95.4  T
     SCC iter.                  ...        0 min,  0.006 sec
     gradient                   ...        0 min,  0.002 sec
 * total energy  :   -37.7824437 Eh     change       -0.1402105E-04 Eh
   gradient norm :     0.0011020 Eh/α   predicted    -0.8092443E-05 ( -42.28%)
   displ. norm   :     0.0306055 α      lambda       -0.4829643E-05
   maximum displ.:     0.0135398 α      in ANC's #3, #7, #6, ...

........................................................................
.............................. CYCLE    8 ..............................
........................................................................

 iter      E             dE          RMSdq      gap      omega  full diag
   1    -38.3568081 -0.383568E+02  0.836E-03    3.05       0.0  T
   2    -38.3568081 -0.322563E-07  0.503E-03    3.05       4.0  T
   3    -38.3568081  0.525217E-07  0.153E-03    3.05      13.0  T
   4    -38.3568081 -0.561621E-07  0.437E-04    3.05      45.8  T
   5    -38.3568081 -0.425676E-08  0.119E-04    3.05     167.6  T
     SCC iter.                  ...        0 min,  0.006 sec
     gradient                   ...        0 min,  0.002 sec
 * total energy  :   -37.7824486 Eh     change       -0.4953871E-05 Eh
   gradient norm :     0.0005057 Eh/α   predicted    -0.2416370E-05 ( -51.22%)
   displ. norm   :     0.0410912 α      lambda       -0.3589435E-05
   maximum displ.:     0.0202905 α      in ANC's #7, #3, #2, ...

   *** GEOMETRY OPTIMIZATION CONVERGED AFTER 8 ITERATIONS ***

------------------------------------------------------------------------
 total energy gain   :        -0.0172429 Eh      -10.8201 kcal/mol
 total RMSD          :         0.1596757 a0        0.0845 Å
 total power (kW/mol):        -5.6588994 (step) -549.1958 (real)
------------------------------------------------------------------------

 ANCopt (total)                0 d,  0 h,  0 min,  0.082 sec
 optimizer setup                ...        0 min,  0.000 sec (  0.148%)
 model hessian                  ...        0 min,  0.004 sec (  4.540%)
 ANC generation                 ...        0 min,  0.001 sec (  0.619%)
 coordinate transformation      ...        0 min,  0.000 sec (  0.086%)
 single point calculation       ...        0 min,  0.073 sec ( 88.437%)
 optimization log               ...        0 min,  0.003 sec (  3.487%)
 hessian update                 ...        0 min,  0.001 sec (  1.270%)
 rational function              ...        0 min,  0.000 sec (  0.585%)

================
 final structure:
================
25
 xtb: 6.7.1 (edcfbbe)
C            5.10117338931915        0.39887472659950        0.27537416120381
C            4.04750467413507       -0.23284965909417       -0.61442229639708
O            2.76043466802701        0.07175641456052       -0.08026035049767
C            1.70804948148372       -0.42439925933211       -0.75030049323909
O            1.81496671673816       -1.09849589450592       -1.74814444975838
C            0.44383342455399       -0.03600268703378       -0.11138018190919
C           -0.72423746494487       -0.43176378097020       -0.63290470146913
C           -2.05653930514835       -0.14013731453098       -0.14293580041940
C           -2.29495313012859        0.63777348705379        0.99340424022919
C           -3.58546098912886        0.88768092910870        1.41631063059438
C           -4.66443466542003        0.36867566836845        0.71760379041079
C           -4.44502871223343       -0.40488613659903       -0.41077231835330
C           -3.15543529234645       -0.65638976519625       -0.83639221053668
H            6.08863783167113        0.20274819299666       -0.13233210085288
H            4.94649552656265        1.47301896306335        0.33189982001555
H            5.04205058813633       -0.01367871373703        1.27919609523037
H            4.10534841155109        0.15507048181226       -1.63822172705818
H            4.16305494547865       -1.32195371589816       -0.66049133837268
H            0.53821372375745        0.57129625639718        0.77423569741058
H           -0.67352915418074       -1.04157639794028       -1.52799012134088
H           -1.46450961630107        1.04829166077178        1.54630429751237
H           -3.75474729054642        1.49109797145271        2.29614501130556
H           -5.67207858478255        0.56682755399501        1.05168187923149
H           -5.28243963874201       -0.81143009995741       -0.95841903170322
H           -2.98637053751107       -1.25954988138456       -1.71662450123629
 
 Bond Distances (Angstroems)
 ---------------------------
C1-C2=1.5169         C1-H14=1.0862        C1-H15=1.0867        C1-H16=1.0869        C2-C1=1.5169         C2-O3=1.4264         
C2-H17=1.0964        C2-H18=1.0962        O3-C2=1.4264         O3-C4=1.3426         C4-O3=1.3426         C4-O5=1.2089         
C4-C6=1.4688         O5-C4=1.2089         C6-C4=1.4688         C6-C7=1.3390         C6-H19=1.0780        C7-C6=1.3390         
C7-C8=1.4492         C7-H20=1.0843        C8-C7=1.4492         C8-C9=1.3976         C8-C13=1.3982        C9-C8=1.3976         
C9-C10=1.3808        C9-H21=1.0788        C10-C9=1.3808        C10-C11=1.3863       C10-H22=1.0802       C11-C10=1.3863       
C11-C12=1.3856       C11-H23=1.0799       C12-C11=1.3856       C12-C13=1.3811       C12-H24=1.0800       C13-C8=1.3982        
C13-C12=1.3811       C13-H25=1.0804       H14-C1=1.0862        H15-C1=1.0867        H16-C1=1.0869        H17-C2=1.0964        
H18-C2=1.0962        H19-C6=1.0780        H20-C7=1.0843        H21-C9=1.0788        H22-C10=1.0802       H23-C11=1.0799       
H24-C12=1.0800       H25-C13=1.0804       
 C  H  Rav=1.0845 sigma=0.0061  Rmin=1.0780  Rmax=1.0964    12
 C  C  Rav=1.4103 sigma=0.0496  Rmin=1.3390  Rmax=1.5169    10
 O  C  Rav=1.3260 sigma=0.0896  Rmin=1.2089  Rmax=1.4264     3
 
 selected bond angles (degree)
 --------------------
H14-C1-C2=109.64               H15-C1-C2=110.08               H15-C1-H14=109.11              H16-C1-C2=110.24               
H16-C1-H14=109.12              H16-C1-H15=108.63              O3-C2-C1=108.55                H17-C2-C1=111.33               
H17-C2-O3=108.77               H18-C2-C1=111.42               H18-C2-O3=108.85               H18-C2-H17=107.86              
C4-O3-C2=116.20                O5-C4-O3=123.27                C6-C4-O3=111.09                C6-C4-O5=125.63                
C7-C6-C4=120.22                H19-C6-C4=115.53               H19-C6-C7=124.25               C8-C7-C6=127.65                
H20-C7-C6=116.55               H20-C7-C8=115.80               C9-C8-C7=122.94                C13-C8-C7=118.72               
C13-C8-C9=118.34               C10-C9-C8=120.61               H21-C9-C8=119.81               H21-C9-C10=119.58              
C11-C10-C9=120.35              H22-C10-C9=119.80              H22-C10-C11=119.85             
 
 selected dihedral angles (degree)
 ---------------------------------
O3-C2-C1-H14=181.69           O3-C2-C1-H15=301.72           O3-C2-C1-H16= 61.54           H17-C2-C1-H14=301.38          
H17-C2-C1-H15= 61.42          H17-C2-C1-H16=181.23          H18-C2-C1-H14= 61.84          H18-C2-C1-H15=181.88          
H18-C2-C1-H16=301.69          C4-O3-C2-C1=180.41            C4-O3-C2-H17= 59.13           C4-O3-C2-H18=301.85           
O5-C4-O3-C2=  0.32            C6-C4-O3-C2=180.43            C7-C6-C4-O3=179.86            C7-C6-C4-O5=359.97            
H19-C6-C4-O3=  0.00           H19-C6-C4-O5=180.11           C8-C7-C6-C4=180.28            C8-C7-C6-H19=  0.13           
H20-C7-C6-C4=  0.20           H20-C7-C6-H19=180.05          C9-C8-C7-C6=  0.30            C9-C8-C7-H20=180.38           
C13-C8-C7-C6=180.19           C13-C8-C7-H20=  0.27          C10-C9-C8-C7=179.87           C10-C9-C8-C13=  0.00          
H21-C9-C8-C7=359.91           H21-C9-C8-C13=180.02          C11-C10-C9-C8=  0.00          C11-C10-C9-H21=179.97         
H22-C10-C9-C8=180.03          H22-C10-C9-H21=  0.00         
           -------------------------------------------------
          |                Final Singlepoint                |
           -------------------------------------------------

          ...................................................
          :                      SETUP                      :
          :.................................................:
          :  # basis functions                  64          :
          :  # atomic orbitals                  64          :
          :  # shells                           38          :
          :  # electrons                        68          :
          :  max. iterations                   250          :
          :  Hamiltonian                  GFN2-xTB          :
          :  restarted?                      false          :
          :  GBSA solvation                  false          :
          :  PC potential                    false          :
          :  electronic temp.          300.0000000     K    :
          :  accuracy                    1.0000000          :
          :  -> integral cutoff          0.2500000E+02      :
          :  -> integral neglect         0.1000000E-07      :
          :  -> SCF convergence          0.1000000E-05 Eh   :
          :  -> wf. convergence          0.1000000E-03 e    :
          :  Broyden damping             0.4000000          :
          :  net charge                          0          :
          :  unpaired electrons                  0          :
          ...................................................

 iter      E             dE          RMSdq      gap      omega  full diag
   1    -38.3568081 -0.383568E+02  0.657E-05    3.05       0.0  T
   2    -38.3568081 -0.122142E-10  0.408E-05    3.05     490.3  T
   3    -38.3568081 -0.702727E-11  0.268E-05    3.05     747.3  T

   *** convergence criteria satisfied after 3 iterations ***

         #    Occupation            Energy/Eh            Energy/eV
      -------------------------------------------------------------
         1        2.0000           -0.7334424             -19.9580
       ...           ...                  ...                  ...
        28        2.0000           -0.4474088             -12.1746
        29        2.0000           -0.4365067             -11.8780
        30        2.0000           -0.4328473             -11.7784
        31        2.0000           -0.4282221             -11.6525
        32        2.0000           -0.4148970             -11.2899
        33        2.0000           -0.4079828             -11.1018
        34        2.0000           -0.3981457             -10.8341 (HOMO)
        35                         -0.2862366              -7.7889 (LUMO)
        36                         -0.2319156              -6.3107
        37                         -0.2132486              -5.8028
        38                         -0.1535824              -4.1792
        39                         -0.0861064              -2.3431
       ...                                ...                  ...
        64                          0.7188947              19.5621
      -------------------------------------------------------------
                  HL-Gap            0.1119092 Eh            3.0452 eV
             Fermi-level           -0.3421911 Eh           -9.3115 eV

 SCC (total)                   0 d,  0 h,  0 min,  0.009 sec
 SCC setup                      ...        0 min,  0.001 sec ( 13.280%)
 Dispersion                     ...        0 min,  0.000 sec (  1.353%)
 classical contributions        ...        0 min,  0.000 sec (  1.867%)
 integral evaluation            ...        0 min,  0.001 sec (  5.747%)
 iterations                     ...        0 min,  0.004 sec ( 45.435%)
 molecular gradient             ...        0 min,  0.002 sec ( 21.731%)
 printout                       ...        0 min,  0.001 sec ( 10.297%)

         :::::::::::::::::::::::::::::::::::::::::::::::::::::
         ::                     SUMMARY                     ::
         :::::::::::::::::::::::::::::::::::::::::::::::::::::
         :: total energy             -37.782448622714 Eh    ::
         :: gradient norm              0.000505831649 Eh/a0 ::
         :: HOMO-LUMO gap              3.045203409980 eV    ::
         ::.................................................::
         :: SCC energy               -38.356996062361 Eh    ::
         :: -> isotropic ES            0.047848088045 Eh    ::
         :: -> anisotropic ES          0.001171363446 Eh    ::
         :: -> anisotropic XC          0.016127684420 Eh    ::
         :: -> dispersion             -0.019507271063 Eh    ::
         :: repulsion energy           0.574547439647 Eh    ::
         :: add. restraining           0.000000000000 Eh    ::
         :: total charge               0.000000000000 e     ::
         :::::::::::::::::::::::::::::::::::::::::::::::::::::

           -------------------------------------------------
          |                Property Printout                |
           -------------------------------------------------

    * Orbital Energies and Occupations

         #    Occupation            Energy/Eh            Energy/eV
      -------------------------------------------------------------
         1        2.0000           -0.7334424             -19.9580
       ...           ...                  ...                  ...
        22        2.0000           -0.4866078             -13.2413
        23        2.0000           -0.4842452             -13.1770
        24        2.0000           -0.4790301             -13.0351
        25        2.0000           -0.4709074             -12.8140
        26        2.0000           -0.4641856             -12.6311
        27        2.0000           -0.4559332             -12.4066
        28        2.0000           -0.4474088             -12.1746
        29        2.0000           -0.4365067             -11.8780
        30        2.0000           -0.4328473             -11.7784
        31        2.0000           -0.4282221             -11.6525
        32        2.0000           -0.4148970             -11.2899
        33        2.0000           -0.4079828             -11.1018
        34        2.0000           -0.3981457             -10.8341 (HOMO)
        35                         -0.2862366              -7.7889 (LUMO)
        36                         -0.2319156              -6.3107
        37                         -0.2132486              -5.8028
        38                         -0.1535824              -4.1792
        39                         -0.0861064              -2.3431
        40                          0.0145451               0.3958
        41                          0.1019303               2.7737
        42                          0.1093809               2.9764
        43                          0.1149226               3.1272
        44                          0.1215532               3.3076
        45                          0.1435185               3.9053
       ...                                ...                  ...
        64                          0.7188947              19.5621
      -------------------------------------------------------------
                  HL-Gap            0.1119092 Eh            3.0452 eV
             Fermi-level           -0.3421911 Eh           -9.3115 eV

     #   Z          covCN         q      C6AA      α(0)
     1   6 C        3.751    -0.115    22.762     6.804
     2   6 C        3.702     0.087    19.285     6.279
     3   8 O        1.705    -0.273    18.521     5.811
     4   6 C        2.729     0.351    21.033     7.508
     5   8 O        0.856    -0.427    22.235     6.322
     6   6 C        2.892    -0.072    29.802     8.950
     7   6 C        2.907    -0.012    28.321     8.726
     8   6 C        2.970     0.017    27.622     8.621
     9   6 C        2.923    -0.029    28.713     8.787
    10   6 C        2.917    -0.028    28.689     8.783
    11   6 C        2.920    -0.025    28.635     8.775
    12   6 C        2.917    -0.027    28.684     8.783
    13   6 C        2.928    -0.029    28.723     8.789
    14   1 H        0.925     0.051     2.309     2.376
    15   1 H        0.925     0.057     2.229     2.335
    16   1 H        0.925     0.057     2.238     2.339
    17   1 H        0.924     0.049     2.335     2.390
    18   1 H        0.924     0.049     2.329     2.386
    19   1 H        0.926     0.059     2.209     2.324
    20   1 H        0.925     0.069     2.094     2.263
    21   1 H        0.926     0.040     2.448     2.447
    22   1 H        0.926     0.036     2.502     2.474
    23   1 H        0.926     0.036     2.498     2.472
    24   1 H        0.926     0.037     2.494     2.470
    25   1 H        0.926     0.041     2.436     2.441

 Mol. C6AA /au·bohr⁶  :       7018.998594
 Mol. C8AA /au·bohr⁸  :     166299.371979
 Mol. α(0) /au        :        131.654036


Wiberg/Mayer (AO) data.
largest (>0.10) Wiberg bond orders for each atom

 ---------------------------------------------------------------------------
     #   Z sym  total        # sym  WBO       # sym  WBO       # sym  WBO
 ---------------------------------------------------------------------------
     1   6 C    3.992 --     2 C    1.019    16 H    0.986    15 H    0.985
                            14 H    0.984
     2   6 C    3.931 --     1 C    1.019    18 H    0.968    17 H    0.968
                             3 O    0.943
     3   8 O    2.291 --     4 C    1.112     2 C    0.943     5 O    0.168
     4   6 C    3.919 --     5 O    1.706     3 O    1.112     6 C    1.036
     5   8 O    2.015 --     4 C    1.706     3 O    0.168
     6   6 C    3.987 --     7 C    1.777     4 C    1.036    19 H    0.962
     7   6 C    3.982 --     6 C    1.777     8 C    1.116    20 H    0.957
     8   6 C    3.990 --    13 C    1.364     9 C    1.362     7 C    1.116
     9   6 C    3.992 --    10 C    1.465     8 C    1.362    21 H    0.966
                            12 C    0.105
    10   6 C    3.992 --     9 C    1.465    11 C    1.426    22 H    0.971
                            13 C    0.103
    11   6 C    3.983 --    12 C    1.430    10 C    1.426    23 H    0.971
    12   6 C    3.992 --    13 C    1.460    11 C    1.430    24 H    0.970
                             9 C    0.105
    13   6 C    3.989 --    12 C    1.460     8 C    1.364    25 H    0.968
                            10 C    0.103
    14   1 H    0.997 --     1 C    0.984
    15   1 H    0.997 --     1 C    0.985
    16   1 H    0.997 --     1 C    0.986
    17   1 H    0.997 --     2 C    0.968
    18   1 H    0.997 --     2 C    0.968
    19   1 H    0.996 --     6 C    0.962
    20   1 H    0.995 --     7 C    0.957
    21   1 H    0.998 --     9 C    0.966
    22   1 H    0.998 --    10 C    0.971
    23   1 H    0.998 --    11 C    0.971
    24   1 H    0.998 --    12 C    0.970
    25   1 H    0.998 --    13 C    0.968
 ---------------------------------------------------------------------------

Topologies differ in total number of bonds
Writing topology from bond orders to xtbtopo.mol

molecular dipole:
                 x           y           z       tot (Debye)
 q only:       -0.323       0.475       0.706
   full:       -0.299       0.505       0.746       2.414
molecular quadrupole (traceless):
                xx          xy          yy          xz          yz          zz
 q only:       13.887       2.832      -6.159       3.126      -1.450      -7.729
  q+dip:       14.685       2.790      -7.333       2.908       0.663      -7.352
   full:       13.332       2.624      -5.600       2.904      -2.130      -7.733

           -------------------------------------------------
          |                Geometry Summary                 |
           -------------------------------------------------

      molecular mass/u    :      176.2121937
   center of mass at/Å    :       -0.2117660      -0.0894381      -0.1688924
  moments of inertia/u·Å² :        0.1768106E+03   0.1835778E+04   0.2006272E+04
rotational constants/cm⁻¹ :        0.9534287E-01   0.9182827E-02   0.8402466E-02

 * 23 selected distances

     #   Z          #   Z                                           value/Å
     1   6 C        2   6 C                                       1.5169152 (max)
     2   6 C        3   8 O                                       1.4264163
     3   8 O        4   6 C                                       1.3426240
     4   6 C        5   8 O                                       1.2089377
     6   6 C        7   6 C                                       1.3390312
     8   6 C        9   6 C                                       1.3975891
     9   6 C       10   6 C                                       1.3808383
    10   6 C       11   6 C                                       1.3862692
    11   6 C       12   6 C                                       1.3855576
     8   6 C       13   6 C                                       1.3982028
    12   6 C       13   6 C                                       1.3811075
     1   6 C       14   1 H                                       1.0861751
     1   6 C       15   1 H                                       1.0866952
     1   6 C       16   1 H                                       1.0869013
     2   6 C       17   1 H                                       1.0963546
     2   6 C       18   1 H                                       1.0961852
     6   6 C       19   1 H                                       1.0779774 (min)
     7   6 C       20   1 H                                       1.0842605
     9   6 C       21   1 H                                       1.0788236
    10   6 C       22   1 H                                       1.0802216
    11   6 C       23   1 H                                       1.0799161
    12   6 C       24   1 H                                       1.0800242
    13   6 C       25   1 H                                       1.0803676

 * 3 distinct bonds (by element types)

   Z      Z             #   av. dist./Å        max./Å        min./Å
   1 H    6 C          12     1.0844919     1.0963546     1.0779774
   6 C    6 C           8     1.3981889     1.5169152     1.3390312
   6 C    8 O           3     1.3259927     1.4264163     1.2089377


optimized geometry written to: xtbopt.xyz


           -------------------------------------------------
          | TOTAL ENERGY              -37.782448622714 Eh   |
          | GRADIENT NORM               0.000505831649 Eh/α |
          | HOMO-LUMO GAP               3.045203409980 eV   |
           -------------------------------------------------
########################################################################
[WARNING] Runtime exception occurred
-2- restart_readRestart: Dimension missmatch in restart file.
-1- restart_readRestart: Number of electron missmatch in restart file.
########################################################################

------------------------------------------------------------------------
 * finished run on 2025/12/01 at 14:17:49.843     
------------------------------------------------------------------------
 total:
 * wall-time:     0 d,  0 h,  0 min,  0.142 sec
 *  cpu-time:     0 d,  0 h,  0 min,  2.871 sec
 * ratio c/w:    20.171 speedup
 SCF:
 * wall-time:     0 d,  0 h,  0 min,  0.025 sec
 *  cpu-time:     0 d,  0 h,  0 min,  0.560 sec
 * ratio c/w:    22.113 speedup
 ANC optimizer:
 * wall-time:     0 d,  0 h,  0 min,  0.092 sec
 *  cpu-time:     0 d,  0 h,  0 min,  2.093 sec
 * ratio c/w:    22.708 speedup

normal termination of xtb
