      -----------------------------------------------------------      
     |                   =====================                   |     
     |                           x T B                           |     
     |                   =====================                   |     
     |                         S. Grimme                         |     
     |          Mulliken Center for Theoretical Chemistry        |     
     |                    University of Bonn                     |     
      -----------------------------------------------------------      

   * xtb version 6.7.1 (edcfbbe) compiled by 'albert@albert-system' on 2024-07-22

   xtb is free software: you can redistribute it and/or modify it under
   the terms of the GNU Lesser General Public License as published by
   the Free Software Foundation, either version 3 of the License, or
   (at your option) any later version.
   
   xtb is distributed in the hope that it will be useful,
   but WITHOUT ANY WARRANTY; without even the implied warranty of
   MERCHANTABILITY or FITNESS FOR A PARTICULAR PURPOSE.  See the
   GNU Lesser General Public License for more details.
   
   Cite this work as:
   * C. Bannwarth, E. Caldeweyher, S. Ehlert, A. Hansen, P. Pracht,
     J. Seibert, S. Spicher, S. Grimme, WIREs Comput. Mol. Sci., 2020, 11,
     e01493. DOI: 10.1002/wcms.1493
   
   for GFN2-xTB:
   * C. Bannwarth, S. Ehlert and S. Grimme., J. Chem. Theory Comput., 2019,
     15, 1652-1671. DOI: 10.1021/acs.jctc.8b01176
   for GFN1-xTB:
   * S. Grimme, C. Bannwarth, P. Shushkov, J. Chem. Theory Comput., 2017,
     13, 1989-2009. DOI: 10.1021/acs.jctc.7b00118
   for GFN0-xTB:
   * P. Pracht, E. Caldeweyher, S. Ehlert, S. Grimme, ChemRxiv, 2019, preprint.
     DOI: 10.26434/chemrxiv.8326202.v1
   for GFN-FF:
   * S. Spicher and S. Grimme, Angew. Chem. Int. Ed., 2020, 59, 15665-15673.
     DOI: 10.1002/anie.202004239
   
   for ALPB and GBSA implicit solvation:
   * S. Ehlert, M. Stahn, S. Spicher, S. Grimme, J. Chem. Theory Comput.,
     2021, 17, 4250-4261. DOI: 10.1021/acs.jctc.1c00471
   
   for ddCOSMO and CPCM-X implicit solvation:
   * M. Stahn, S. Ehlert, S. Grimme, J. Phys. Chem. A,
     2023, XX, XXXX-XXXX. DOI: 10.1021/acs.jpca.3c04382
   
   for DFT-D4:
   * E. Caldeweyher, C. Bannwarth and S. Grimme, J. Chem. Phys., 2017,
     147, 034112. DOI: 10.1063/1.4993215
   * E. Caldeweyher, S. Ehlert, A. Hansen, H. Neugebauer, S. Spicher,
     C. Bannwarth and S. Grimme, J. Chem. Phys., 2019, 150, 154122.
     DOI: 10.1063/1.5090222
   * E. Caldeweyher, J.-M. Mewes, S. Ehlert and S. Grimme, Phys. Chem. Chem. Phys.
     2020, 22, 8499-8512. DOI: 10.1039/D0CP00502A
   
   for sTDA-xTB:
   * S. Grimme and C. Bannwarth, J. Chem. Phys., 2016, 145, 054103.
     DOI: 10.1063/1.4959605
   
   in the mass-spec context:
   * V. Asgeirsson, C. Bauer and S. Grimme, Chem. Sci., 2017, 8, 4879.
     DOI: 10.1039/c7sc00601b
   * J. Koopman and S. Grimme, ACS Omega 2019, 4, 12, 15120-15133.
     DOI: 10.1021/acsomega.9b02011
   
   for metadynamics refer to:
   * S. Grimme, J. Chem. Theory Comput., 2019, 155, 2847-2862
     DOI: 10.1021/acs.jctc.9b00143
   
   for SPH calculations refer to:
   * S. Spicher and S. Grimme, J. Chem. Theory Comput., 2021, 17, 1701-1714
     DOI: 10.1021/acs.jctc.0c01306
   
   for ONIOM refer to:
   * C. Plett, A. Katbashev, S. Ehlert, S. Grimme, M. Bursch,
     Phys. Chem. Chem. Phys., 2023, 25, 17860-17868. DOI: 10.1039/D3CP02178E
   
   for DIPRO refer to:
   * J. Kohn, N. Gildemeister, S. Grimme, D. Fazzi, A. Hansen,
     J. Chem. Phys., 2023, just accepted.
   
   for PTB refer to:
   * S. Grimme, M. Mueller, A. Hansen, J. Chem. Phys., 2023, 158, 124111.
     DOI: 10.1063/5.0137838
   
   with help from (in alphabetical order)
   P. Atkinson, C. Bannwarth, F. Bohle, G. Brandenburg, E. Caldeweyher
   M. Checinski, S. Dohm, S. Ehlert, S. Ehrlich, I. Gerasimov, C. Hölzer
   A. Katbashev, J. Kohn, J. Koopman, C. Lavigne, S. Lehtola, F. März, M. Müller,
   F. Musil, H. Neugebauer, J. Pisarek, C. Plett, P. Pracht, F. Pultar,
   J. Seibert, P. Shushkov, S. Spicher, M. Stahn, M. Steiner, T. Strunk,
   J. Stückrath, T. Rose, and J. Unsleber
   
 * started run on 2025/12/01 at 14:17:49.851     
   ID    Z sym.   atoms
    1    6 C      1, 2, 4, 6-13
    2    8 O      3, 5
    3    1 H      14-25

           -------------------------------------------------
          |                Calculation Setup                |
           -------------------------------------------------

          program call               : xtb pipeline_data/3_conformer_xyz/acrylates/rdkit/KBEBGUQPQBELIU-CMDGGOBGSA-N_conf73.xyz --opt --gfn 2-xTB --iterations 250
          coordinate file            : pipeline_data/3_conformer_xyz/acrylates/rdkit/KBEBGUQPQBELIU-CMDGGOBGSA-N_conf73.xyz
          omp threads                :                    24

########################################################################
[WARNING] Please study the warnings concerning your input carefully
-1- readin_getIntValue: could not parse '2-xTB'
########################################################################

           -------------------------------------------------
          |                 G F N 2 - x T B                 |
           -------------------------------------------------

        Reference                      10.1021/acs.jctc.8b01176
      * Hamiltonian:
        H0-scaling (s, p, d)           1.850000    2.230000    2.230000
        zeta-weighting                 0.500000
      * Dispersion:
        s8                             2.700000
        a1                             0.520000
        a2                             5.000000
        s9                             5.000000
      * Repulsion:
        kExp                           1.500000    1.000000
        rExp                           1.000000
      * Coulomb:
        alpha                          2.000000
        third order                    shell-resolved
        anisotropic                    true
        a3                             3.000000
        a5                             4.000000
        cn-shift                       1.200000
        cn-exp                         4.000000
        max-rad                        5.000000

q/qsh data taken from xtbrestart
CAMM data taken from xtbrestart

          ...................................................
          :                      SETUP                      :
          :.................................................:
          :  # basis functions                  64          :
          :  # atomic orbitals                  64          :
          :  # shells                           38          :
          :  # electrons                        68          :
          :  max. iterations                   250          :
          :  Hamiltonian                  GFN2-xTB          :
          :  restarted?                       true          :
          :  GBSA solvation                  false          :
          :  PC potential                    false          :
          :  electronic temp.          300.0000000     K    :
          :  accuracy                    1.0000000          :
          :  -> integral cutoff          0.2500000E+02      :
          :  -> integral neglect         0.1000000E-07      :
          :  -> SCF convergence          0.1000000E-05 Eh   :
          :  -> wf. convergence          0.1000000E-03 e    :
          :  Broyden damping             0.4000000          :
          :  net charge                          0          :
          :  unpaired electrons                  0          :
          ...................................................

 iter      E             dE          RMSdq      gap      omega  full diag
   1    -38.3254546 -0.383255E+02  0.517E+00    3.08       0.0  T
   2    -38.3302362 -0.478157E-02  0.310E+00    3.02       1.0  T
   3    -38.3133320  0.169042E-01  0.906E-01    2.97       1.0  T
   4    -38.3327860 -0.194539E-01  0.159E-01    3.06       1.0  T
   5    -38.3329697 -0.183752E-03  0.822E-02    3.03       1.0  T
   6    -38.3329790 -0.924610E-05  0.352E-02    3.05       1.0  T
   7    -38.3329893 -0.103358E-04  0.792E-03    3.05       2.5  T
   8    -38.3329897 -0.368292E-06  0.416E-03    3.05       4.8  T
   9    -38.3329897 -0.632970E-07  0.189E-03    3.05      10.6  T
  10    -38.3329898 -0.481129E-07  0.603E-04    3.05      33.2  T
  11    -38.3329898 -0.190494E-08  0.243E-04    3.05      82.2  T

   *** convergence criteria satisfied after 11 iterations ***

         #    Occupation            Energy/Eh            Energy/eV
      -------------------------------------------------------------
         1        2.0000           -0.7268967             -19.7799
       ...           ...                  ...                  ...
        28        2.0000           -0.4525623             -12.3148
        29        2.0000           -0.4413875             -12.0108
        30        2.0000           -0.4293804             -11.6840
        31        2.0000           -0.4274156             -11.6306
        32        2.0000           -0.4175073             -11.3610
        33        2.0000           -0.4051777             -11.0254
        34        2.0000           -0.4050817             -11.0228 (HOMO)
        35                         -0.2931121              -7.9760 (LUMO)
        36                         -0.2343366              -6.3766
        37                         -0.2208243              -6.0089
        38                         -0.1600360              -4.3548
        39                         -0.0859509              -2.3388
       ...                                ...                  ...
        64                          0.7060025              19.2113
      -------------------------------------------------------------
                  HL-Gap            0.1119695 Eh            3.0468 eV
             Fermi-level           -0.3490969 Eh           -9.4994 eV

 SCC (total)                   0 d,  0 h,  0 min,  0.021 sec
 SCC setup                      ...        0 min,  0.000 sec (  1.889%)
 Dispersion                     ...        0 min,  0.000 sec (  1.272%)
 classical contributions        ...        0 min,  0.000 sec (  0.247%)
 integral evaluation            ...        0 min,  0.001 sec (  3.992%)
 iterations                     ...        0 min,  0.017 sec ( 79.143%)
 molecular gradient             ...        0 min,  0.002 sec ( 11.772%)
 printout                       ...        0 min,  0.000 sec (  1.562%)

         :::::::::::::::::::::::::::::::::::::::::::::::::::::
         ::                     SUMMARY                     ::
         :::::::::::::::::::::::::::::::::::::::::::::::::::::
         :: total energy             -37.765699106185 Eh    ::
         :: gradient norm              0.120860786127 Eh/a0 ::
         :: HOMO-LUMO gap              3.046846425263 eV    ::
         ::.................................................::
         :: SCC energy               -38.333116402050 Eh    ::
         :: -> isotropic ES            0.050735900859 Eh    ::
         :: -> anisotropic ES          0.000663666357 Eh    ::
         :: -> anisotropic XC          0.016156624834 Eh    ::
         :: -> dispersion             -0.019653326180 Eh    ::
         :: repulsion energy           0.567417295865 Eh    ::
         :: add. restraining           0.000000000000 Eh    ::
         :: total charge               0.000000000000 e     ::
         :::::::::::::::::::::::::::::::::::::::::::::::::::::

      ----------------------------------------------------------- 
     |                   =====================                   |
     |                        A N C O P T                        |
     |                   =====================                   |
     |               Approximate Normal Coordinate               |
     |                Rational Function Optimizer                |
      ----------------------------------------------------------- 
      ----------------------------------------------------------- 
     |                   =====================                   |
     |                        A N C O P T                        |
     |                   =====================                   |
     |               Approximate Normal Coordinate               |
     |                Rational Function Optimizer                |
      ----------------------------------------------------------- 

          ...................................................
          :                      SETUP                      :
          :.................................................:
          :   optimization level            normal          :
          :   max. optcycles                   200          :
          :   ANC micro-cycles                  20          :
          :   degrees of freedom                69          :
          :.................................................:
          :   RF solver                   davidson          :
          :   write xtbopt.log                true          :
          :   linear?                        false          :
          :   energy convergence         0.5000000E-05 Eh   :
          :   grad. convergence          0.1000000E-02 Eh/α :
          :   maxmium RF displ.          1.0000000          :
          :   Hlow (freq-cutoff)         0.1000000E-01      :
          :   Hmax (freq-cutoff)         5.0000000          :
          :   S6 in model hess.         20.0000000          :
          ...................................................

generating ANC from exact Hessian ...
Using Lindh-Hessian (1995)
 Shifting diagonal of input Hessian by   9.364974536189730E-003
 Lowest  eigenvalues of input Hessian
    0.000000    0.000000    0.000000    0.000000    0.000000    0.000000
    0.010000    0.010572    0.010749    0.012634    0.015046    0.015472
    0.019204    0.022551    0.024814    0.025845    0.030380    0.032507
 Highest eigenvalues
    1.802867    1.932251    1.944462    2.046632    2.101583    2.192146
 

........................................................................
.............................. CYCLE    1 ..............................
........................................................................

 iter      E             dE          RMSdq      gap      omega  full diag
   1    -38.3329898 -0.383330E+02  0.735E-05    3.05       0.0  T
   2    -38.3329898 -0.540581E-10  0.471E-05    3.05     424.3  T
   3    -38.3329898 -0.407425E-10  0.259E-05    3.05     771.6  T
     SCC iter.                  ...        0 min,  0.004 sec
     gradient                   ...        0 min,  0.002 sec
 * total energy  :   -37.7656991 Eh     change       -0.1894662E-09 Eh
   gradient norm :     0.1208627 Eh/α   predicted     0.0000000E+00 (-100.00%)
   displ. norm   :     0.3113670 α      lambda       -0.1850619E-01
   maximum displ.:     0.1304822 α      in ANC's #19, #24, #9, ...

........................................................................
.............................. CYCLE    2 ..............................
........................................................................

 iter      E             dE          RMSdq      gap      omega  full diag
   1    -38.3457604 -0.383458E+02  0.299E-01    3.04       0.0  T
   2    -38.3459913 -0.230925E-03  0.184E-01    3.01       1.0  T
   3    -38.3459710  0.202923E-04  0.638E-02    3.00       1.0  T
   4    -38.3460055 -0.344690E-04  0.200E-02    3.00       1.0  T
   5    -38.3460130 -0.753656E-05  0.833E-03    3.00       2.4  T
   6    -38.3460142 -0.115144E-05  0.374E-03    3.00       5.3  T
   7    -38.3460143 -0.105862E-06  0.128E-03    3.00      15.7  T
   8    -38.3460143 -0.120355E-07  0.554E-04    3.00      36.1  T
   9    -38.3460143 -0.206037E-08  0.210E-04    3.00      95.0  T
     SCC iter.                  ...        0 min,  0.014 sec
     gradient                   ...        0 min,  0.002 sec
 * total energy  :   -37.7779686 Eh     change       -0.1226948E-01 Eh
   gradient norm :     0.0463586 Eh/α   predicted    -0.1015753E-01 ( -17.21%)
   displ. norm   :     0.2491516 α      lambda       -0.4525042E-02
   maximum displ.:     0.1559701 α      in ANC's #9, #14, #24, ...

........................................................................
.............................. CYCLE    3 ..............................
........................................................................

 iter      E             dE          RMSdq      gap      omega  full diag
   1    -38.3528624 -0.383529E+02  0.170E-01    3.02       0.0  T
   2    -38.3529420 -0.796736E-04  0.103E-01    3.00       1.0  T
   3    -38.3529394  0.263929E-05  0.346E-02    3.00       1.0  T
   4    -38.3529470 -0.756713E-05  0.943E-03    3.00       2.1  T
   5    -38.3529482 -0.123543E-05  0.456E-03    3.00       4.4  T
   6    -38.3529486 -0.360937E-06  0.211E-03    3.00       9.5  T
   7    -38.3529486 -0.509487E-07  0.798E-04    3.00      25.0  T
   8    -38.3529486 -0.627409E-08  0.334E-04    3.00      59.9  T
     SCC iter.                  ...        0 min,  0.010 sec
     gradient                   ...        0 min,  0.002 sec
 * total energy  :   -37.7805140 Eh     change       -0.2545400E-02 Eh
   gradient norm :     0.0161613 Eh/α   predicted    -0.2405123E-02 (  -5.51%)
   displ. norm   :     0.1299954 α      lambda       -0.5571852E-03
   maximum displ.:     0.1015696 α      in ANC's #9, #5, #14, ...

........................................................................
.............................. CYCLE    4 ..............................
........................................................................

 iter      E             dE          RMSdq      gap      omega  full diag
   1    -38.3538033 -0.383538E+02  0.606E-02    3.01       0.0  T
   2    -38.3538069 -0.360236E-05  0.369E-02    3.01       1.0  T
   3    -38.3538034  0.348223E-05  0.137E-02    3.01       1.5  T
   4    -38.3538069 -0.349065E-05  0.529E-03    3.01       3.8  T
   5    -38.3538075 -0.595957E-06  0.937E-04    3.01      21.3  T
   6    -38.3538075 -0.410019E-08  0.523E-04    3.01      38.3  T
     SCC iter.                  ...        0 min,  0.007 sec
     gradient                   ...        0 min,  0.006 sec
 * total energy  :   -37.7808679 Eh     change       -0.3539076E-03 Eh
   gradient norm :     0.0081816 Eh/α   predicted    -0.2833493E-03 ( -19.94%)
   displ. norm   :     0.1175505 α      lambda       -0.2346194E-03
   maximum displ.:     0.0772240 α      in ANC's #9, #5, #6, ...

........................................................................
.............................. CYCLE    5 ..............................
........................................................................

 iter      E             dE          RMSdq      gap      omega  full diag
   1    -38.3548684 -0.383549E+02  0.444E-02    3.03       0.0  T
   2    -38.3548717 -0.328021E-05  0.264E-02    3.03       1.0  T
   3    -38.3548713  0.452633E-06  0.759E-03    3.03       2.6  T
   4    -38.3548715 -0.257807E-06  0.389E-03    3.03       5.1  T
   5    -38.3548719 -0.374139E-06  0.668E-04    3.03      29.9  T
   6    -38.3548719 -0.419840E-08  0.385E-04    3.03      51.9  T
     SCC iter.                  ...        0 min,  0.014 sec
     gradient                   ...        0 min,  0.006 sec
 * total energy  :   -37.7809911 Eh     change       -0.1232406E-03 Eh
   gradient norm :     0.0041038 Eh/α   predicted    -0.1189462E-03 (  -3.48%)
   displ. norm   :     0.0513771 α      lambda       -0.5906577E-04
   maximum displ.:     0.0443817 α      in ANC's #5, #9, #19, ...

........................................................................
.............................. CYCLE    6 ..............................
........................................................................

 iter      E             dE          RMSdq      gap      omega  full diag
   1    -38.3555136 -0.383555E+02  0.202E-02    3.03       0.0  T
   2    -38.3555140 -0.405824E-06  0.117E-02    3.03       1.7  T
   3    -38.3555137  0.239116E-06  0.458E-03    3.03       4.4  T
   4    -38.3555140 -0.258746E-06  0.160E-03    3.03      12.5  T
   5    -38.3555141 -0.549060E-07  0.433E-04    3.03      46.2  T
   6    -38.3555141 -0.137381E-08  0.203E-04    3.03      98.4  T
     SCC iter.                  ...        0 min,  0.012 sec
     gradient                   ...        0 min,  0.002 sec
 * total energy  :   -37.7810270 Eh     change       -0.3591205E-04 Eh
   gradient norm :     0.0024167 Eh/α   predicted    -0.2961439E-04 ( -17.54%)
   displ. norm   :     0.0336266 α      lambda       -0.1737278E-04
   maximum displ.:     0.0297621 α      in ANC's #5, #6, #3, ...

........................................................................
.............................. CYCLE    7 ..............................
........................................................................

 iter      E             dE          RMSdq      gap      omega  full diag
   1    -38.3554097 -0.383554E+02  0.117E-02    3.03       0.0  T
   2    -38.3554097 -0.647165E-07  0.691E-03    3.03       2.9  T
   3    -38.3554096  0.119274E-06  0.247E-03    3.03       8.1  T
   4    -38.3554097 -0.135514E-06  0.681E-04    3.03      29.4  T
   5    -38.3554097 -0.740492E-08  0.258E-04    3.03      77.6  T
     SCC iter.                  ...        0 min,  0.006 sec
     gradient                   ...        0 min,  0.002 sec
 * total energy  :   -37.7810380 Eh     change       -0.1092726E-04 Eh
   gradient norm :     0.0010079 Eh/α   predicted    -0.8697505E-05 ( -20.41%)
   displ. norm   :     0.0263652 α      lambda       -0.3473406E-05
   maximum displ.:     0.0205565 α      in ANC's #5, #3, #6, ...

........................................................................
.............................. CYCLE    8 ..............................
........................................................................

 iter      E             dE          RMSdq      gap      omega  full diag
   1    -38.3550793 -0.383551E+02  0.847E-03    3.03       0.0  T
   2    -38.3550793 -0.221566E-07  0.500E-03    3.03       4.0  T
   3    -38.3550793  0.348343E-07  0.150E-03    3.03      13.3  T
   4    -38.3550793 -0.414057E-07  0.293E-04    3.03      68.3  T
   5    -38.3550793 -0.871140E-09  0.149E-04    3.03     134.6  T
     SCC iter.                  ...        0 min,  0.006 sec
     gradient                   ...        0 min,  0.006 sec
 * total energy  :   -37.7810406 Eh     change       -0.2634840E-05 Eh
   gradient norm :     0.0007014 Eh/α   predicted    -0.1738272E-05 ( -34.03%)
   displ. norm   :     0.0101686 α      lambda       -0.8345263E-06
   maximum displ.:     0.0063640 α      in ANC's #3, #1, #6, ...

   *** GEOMETRY OPTIMIZATION CONVERGED AFTER 8 ITERATIONS ***

------------------------------------------------------------------------
 total energy gain   :        -0.0153415 Eh       -9.6269 kcal/mol
 total RMSD          :         0.1498788 a0        0.0793 Å
 total power (kW/mol):        -5.0348897 (step) -325.5117 (real)
------------------------------------------------------------------------

 ANCopt (total)                0 d,  0 h,  0 min,  0.124 sec
 optimizer setup                ...        0 min,  0.000 sec (  0.096%)
 model hessian                  ...        0 min,  0.004 sec (  3.482%)
 ANC generation                 ...        0 min,  0.001 sec (  0.549%)
 coordinate transformation      ...        0 min,  0.000 sec (  0.062%)
 single point calculation       ...        0 min,  0.113 sec ( 91.300%)
 optimization log               ...        0 min,  0.003 sec (  2.352%)
 hessian update                 ...        0 min,  0.002 sec (  1.414%)
 rational function              ...        0 min,  0.001 sec (  0.435%)

================
 final structure:
================
25
 xtb: 6.7.1 (edcfbbe)
C            4.12472621864400        0.45912866260882       -1.83487415480205
C            3.78124560758239       -0.47609506866080       -0.69080859535561
O            2.39246515974144       -0.33611934450238       -0.39660664423057
C            1.92778989694585       -1.08264467355361        0.61796169931455
O            2.63004210994069       -1.83031675946465        1.25897290756453
C            0.49135890191344       -0.90015405792701        0.86489380357271
C           -0.28362505204905       -0.07705280012498        0.14740226584017
C           -1.70566900868505        0.15282753337538        0.32156729793521
C           -2.34790792517553        1.05773956349315       -0.52904456693526
C           -3.70037651331535        1.31004412702833       -0.40787322190651
C           -4.44201443150522        0.66285200908540        0.56707052772237
C           -3.82015816837357       -0.23695202024333        1.41884910860170
C           -2.46820595809498       -0.49102133085378        1.30014552370274
H            3.92498499218694        1.48868497700771       -1.55078250401663
H            5.17637831089782        0.35739098916059       -2.08618139151488
H            3.52523980715762        0.21673349618088       -2.70842637283353
H            4.36056823702744       -0.23811073256723        0.20886811895102
H            3.98357805931204       -1.52072017813608       -0.95484603060890
H            0.11598120767561       -1.49796236343934        1.68130759226360
H            0.18117478641350        0.48427326149770       -0.65328796754194
H           -1.77300975044419        1.56448279112681       -1.29111383585340
H           -4.17945944094270        2.01219677278398       -1.07435604814869
H           -5.49973615802549        0.85791765063245        0.66335046295908
H           -4.39608357148390       -0.74292700879390        2.17978854795973
H           -1.99928931734376       -1.19419549571411        1.97017147736057
 
 Bond Distances (Angstroems)
 ---------------------------
C1-C2=1.5171         C1-H14=1.0866        C1-H15=1.0860        C1-H16=1.0868        C2-C1=1.5171         C2-O3=1.4265         
C2-H17=1.0962        C2-H18=1.0963        O3-C2=1.4265         O3-C4=1.3426         C4-O3=1.3426         C4-O5=1.2096         
C4-C6=1.4689         O5-C4=1.2096         C6-C4=1.4689         C6-C7=1.3390         C6-H19=1.0793        C7-C6=1.3390         
C7-C8=1.4510         C7-H20=1.0827        C8-C7=1.4510         C8-C9=1.3982         C8-C13=1.3977        C9-C8=1.3982         
C9-C10=1.3811        C9-H21=1.0808        C10-C9=1.3811        C10-C11=1.3854       C10-H22=1.0802       C11-C10=1.3854       
C11-C12=1.3863       C11-H23=1.0799       C12-C11=1.3863       C12-C13=1.3807       C12-H24=1.0802       C13-C8=1.3977        
C13-C12=1.3807       C13-H25=1.0786       H14-C1=1.0866        H15-C1=1.0860        H16-C1=1.0868        H17-C2=1.0962        
H18-C2=1.0963        H19-C6=1.0793        H20-C7=1.0827        H21-C9=1.0808        H22-C10=1.0802       H23-C11=1.0799       
H24-C12=1.0802       H25-C13=1.0786       
 C  H  Rav=1.0844 sigma=0.0060  Rmin=1.0786  Rmax=1.0963    12
 C  C  Rav=1.4105 sigma=0.0498  Rmin=1.3390  Rmax=1.5171    10
 O  C  Rav=1.3262 sigma=0.0893  Rmin=1.2096  Rmax=1.4265     3
 
 selected bond angles (degree)
 --------------------
H14-C1-C2=110.20               H15-C1-C2=109.63               H15-C1-H14=109.10              H16-C1-C2=110.11               
H16-C1-H14=108.67              H16-C1-H15=109.10              O3-C2-C1=108.39                H17-C2-C1=111.43               
H17-C2-O3=108.90               H18-C2-C1=111.35               H18-C2-O3=108.84               H18-C2-H17=107.88              
C4-O3-C2=115.99                O5-C4-O3=122.90                C6-C4-O3=113.35                C6-C4-O5=123.74                
C7-C6-C4=123.52                H19-C6-C4=113.48               H19-C6-C7=122.99               C8-C7-C6=126.89                
H20-C7-C6=117.81               H20-C7-C8=115.30               C9-C8-C7=118.67                C13-C8-C7=123.07               
C13-C8-C9=118.26               C10-C9-C8=120.98               H21-C9-C8=119.22               H21-C9-C10=119.81              
C11-C10-C9=120.04              H22-C10-C9=119.93              H22-C10-C11=120.03             
 
 selected dihedral angles (degree)
 ---------------------------------
O3-C2-C1-H14= 60.77           O3-C2-C1-H15=180.88           O3-C2-C1-H16=300.91           H17-C2-C1-H14=300.96          
H17-C2-C1-H15= 61.06          H17-C2-C1-H16=181.09          H18-C2-C1-H14=180.46          H18-C2-C1-H15=300.56          
H18-C2-C1-H16= 60.60          C4-O3-C2-C1=181.24            C4-O3-C2-H17=302.63           C4-O3-C2-H18= 59.99           
O5-C4-O3-C2=  0.29            C6-C4-O3-C2=180.38            C7-C6-C4-O3=  0.33            C7-C6-C4-O5=180.41            
H19-C6-C4-O3=180.11           H19-C6-C4-O5=  0.19           C8-C7-C6-C4=179.61            C8-C7-C6-H19=359.85           
H20-C7-C6-C4=359.71           H20-C7-C6-H19=179.95          C9-C8-C7-C6=179.90            C9-C8-C7-H20=359.80           
C13-C8-C7-C6=359.75           C13-C8-C7-H20=179.65          C10-C9-C8-C7=179.83           C10-C9-C8-C13=359.97          
H21-C9-C8-C7=359.85           H21-C9-C8-C13=179.98          C11-C10-C9-C8=  0.00          C11-C10-C9-H21=179.98         
H22-C10-C9-C8=180.02          H22-C10-C9-H21=  0.00         
           -------------------------------------------------
          |                Final Singlepoint                |
           -------------------------------------------------

          ...................................................
          :                      SETUP                      :
          :.................................................:
          :  # basis functions                  64          :
          :  # atomic orbitals                  64          :
          :  # shells                           38          :
          :  # electrons                        68          :
          :  max. iterations                   250          :
          :  Hamiltonian                  GFN2-xTB          :
          :  restarted?                      false          :
          :  GBSA solvation                  false          :
          :  PC potential                    false          :
          :  electronic temp.          300.0000000     K    :
          :  accuracy                    1.0000000          :
          :  -> integral cutoff          0.2500000E+02      :
          :  -> integral neglect         0.1000000E-07      :
          :  -> SCF convergence          0.1000000E-05 Eh   :
          :  -> wf. convergence          0.1000000E-03 e    :
          :  Broyden damping             0.4000000          :
          :  net charge                          0          :
          :  unpaired electrons                  0          :
          ...................................................

 iter      E             dE          RMSdq      gap      omega  full diag
   1    -38.3550793 -0.383551E+02  0.679E-05    3.03       0.0  T
   2    -38.3550793 -0.115890E-10  0.476E-05    3.03     419.8  T
   3    -38.3550793 -0.251958E-10  0.292E-05    3.03     685.3  T

   *** convergence criteria satisfied after 3 iterations ***

         #    Occupation            Energy/Eh            Energy/eV
      -------------------------------------------------------------
         1        2.0000           -0.7340867             -19.9755
       ...           ...                  ...                  ...
        28        2.0000           -0.4490045             -12.2180
        29        2.0000           -0.4395675             -11.9612
        30        2.0000           -0.4336343             -11.7998
        31        2.0000           -0.4293439             -11.6830
        32        2.0000           -0.4160901             -11.3224
        33        2.0000           -0.4069467             -11.0736
        34        2.0000           -0.3992831             -10.8650 (HOMO)
        35                         -0.2879685              -7.8360 (LUMO)
        36                         -0.2331147              -6.3434
        37                         -0.2148763              -5.8471
        38                         -0.1540562              -4.1921
        39                         -0.0875051              -2.3811
       ...                                ...                  ...
        64                          0.7184644              19.5504
      -------------------------------------------------------------
                  HL-Gap            0.1113146 Eh            3.0290 eV
             Fermi-level           -0.3436258 Eh           -9.3505 eV

 SCC (total)                   0 d,  0 h,  0 min,  0.009 sec
 SCC setup                      ...        0 min,  0.001 sec (  9.003%)
 Dispersion                     ...        0 min,  0.000 sec (  1.266%)
 classical contributions        ...        0 min,  0.000 sec (  1.783%)
 integral evaluation            ...        0 min,  0.001 sec (  6.754%)
 iterations                     ...        0 min,  0.004 sec ( 43.951%)
 molecular gradient             ...        0 min,  0.002 sec ( 26.837%)
 printout                       ...        0 min,  0.001 sec ( 10.053%)

         :::::::::::::::::::::::::::::::::::::::::::::::::::::
         ::                     SUMMARY                     ::
         :::::::::::::::::::::::::::::::::::::::::::::::::::::
         :: total energy             -37.781040612223 Eh    ::
         :: gradient norm              0.000701564962 Eh/a0 ::
         :: HOMO-LUMO gap              3.029024375598 eV    ::
         ::.................................................::
         :: SCC energy               -38.355202171789 Eh    ::
         :: -> isotropic ES            0.047845044748 Eh    ::
         :: -> anisotropic ES          0.001432706557 Eh    ::
         :: -> anisotropic XC          0.016033068974 Eh    ::
         :: -> dispersion             -0.019708015691 Eh    ::
         :: repulsion energy           0.574161559566 Eh    ::
         :: add. restraining           0.000000000000 Eh    ::
         :: total charge               0.000000000000 e     ::
         :::::::::::::::::::::::::::::::::::::::::::::::::::::

           -------------------------------------------------
          |                Property Printout                |
           -------------------------------------------------

    * Orbital Energies and Occupations

         #    Occupation            Energy/Eh            Energy/eV
      -------------------------------------------------------------
         1        2.0000           -0.7340867             -19.9755
       ...           ...                  ...                  ...
        22        2.0000           -0.4879026             -13.2765
        23        2.0000           -0.4843088             -13.1787
        24        2.0000           -0.4817619             -13.1094
        25        2.0000           -0.4719839             -12.8433
        26        2.0000           -0.4651070             -12.6562
        27        2.0000           -0.4574206             -12.4470
        28        2.0000           -0.4490045             -12.2180
        29        2.0000           -0.4395675             -11.9612
        30        2.0000           -0.4336343             -11.7998
        31        2.0000           -0.4293439             -11.6830
        32        2.0000           -0.4160901             -11.3224
        33        2.0000           -0.4069467             -11.0736
        34        2.0000           -0.3992831             -10.8650 (HOMO)
        35                         -0.2879685              -7.8360 (LUMO)
        36                         -0.2331147              -6.3434
        37                         -0.2148763              -5.8471
        38                         -0.1540562              -4.1921
        39                         -0.0875051              -2.3811
        40                          0.0123989               0.3374
        41                          0.0947001               2.5769
        42                          0.1073083               2.9200
        43                          0.1135984               3.0912
        44                          0.1148807               3.1261
        45                          0.1420876               3.8664
       ...                                ...                  ...
        64                          0.7184644              19.5504
      -------------------------------------------------------------
                  HL-Gap            0.1113146 Eh            3.0290 eV
             Fermi-level           -0.3436258 Eh           -9.3505 eV

     #   Z          covCN         q      C6AA      α(0)
     1   6 C        3.751    -0.115    22.761     6.804
     2   6 C        3.703     0.087    19.277     6.278
     3   8 O        1.704    -0.274    18.545     5.814
     4   6 C        2.725     0.351    21.033     7.508
     5   8 O        0.857    -0.424    22.159     6.311
     6   6 C        2.891    -0.071    29.772     8.946
     7   6 C        2.903    -0.015    28.394     8.737
     8   6 C        2.970     0.017    27.635     8.623
     9   6 C        2.928    -0.030    28.741     8.792
    10   6 C        2.917    -0.028    28.692     8.784
    11   6 C        2.920    -0.025    28.634     8.775
    12   6 C        2.917    -0.027    28.678     8.782
    13   6 C        2.923    -0.028    28.712     8.787
    14   1 H        0.925     0.056     2.241     2.341
    15   1 H        0.925     0.051     2.302     2.373
    16   1 H        0.925     0.057     2.237     2.339
    17   1 H        0.924     0.050     2.316     2.380
    18   1 H        0.924     0.049     2.329     2.387
    19   1 H        0.926     0.066     2.129     2.282
    20   1 H        0.925     0.062     2.171     2.304
    21   1 H        0.926     0.038     2.480     2.463
    22   1 H        0.926     0.036     2.504     2.475
    23   1 H        0.926     0.037     2.495     2.470
    24   1 H        0.926     0.037     2.489     2.467
    25   1 H        0.926     0.042     2.421     2.433

 Mol. C6AA /au·bohr⁶  :       7018.813178
 Mol. C8AA /au·bohr⁸  :     166300.493023
 Mol. α(0) /au        :        131.653061


Wiberg/Mayer (AO) data.
largest (>0.10) Wiberg bond orders for each atom

 ---------------------------------------------------------------------------
     #   Z sym  total        # sym  WBO       # sym  WBO       # sym  WBO
 ---------------------------------------------------------------------------
     1   6 C    3.992 --     2 C    1.019    14 H    0.986    16 H    0.985
                            15 H    0.984
     2   6 C    3.931 --     1 C    1.019    18 H    0.968    17 H    0.968
                             3 O    0.942
     3   8 O    2.290 --     4 C    1.111     2 C    0.942     5 O    0.166
     4   6 C    3.919 --     5 O    1.707     3 O    1.111     6 C    1.038
     5   8 O    2.008 --     4 C    1.707     3 O    0.166
     6   6 C    3.987 --     7 C    1.780     4 C    1.038    19 H    0.959
     7   6 C    3.984 --     6 C    1.780     8 C    1.114    20 H    0.959
     8   6 C    3.990 --     9 C    1.365    13 C    1.362     7 C    1.114
     9   6 C    3.985 --    10 C    1.460     8 C    1.365    21 H    0.968
                            12 C    0.103
    10   6 C    3.992 --     9 C    1.460    11 C    1.431    22 H    0.971
                            13 C    0.105
    11   6 C    3.983 --    10 C    1.431    12 C    1.425    23 H    0.971
    12   6 C    3.992 --    13 C    1.466    11 C    1.425    24 H    0.970
                             9 C    0.103
    13   6 C    3.991 --    12 C    1.466     8 C    1.362    25 H    0.966
                            10 C    0.105
    14   1 H    0.997 --     1 C    0.986
    15   1 H    0.997 --     1 C    0.984
    16   1 H    0.997 --     1 C    0.985
    17   1 H    0.997 --     2 C    0.968
    18   1 H    0.997 --     2 C    0.968
    19   1 H    0.995 --     6 C    0.959
    20   1 H    0.996 --     7 C    0.959
    21   1 H    0.999 --     9 C    0.968
    22   1 H    0.998 --    10 C    0.971
    23   1 H    0.998 --    11 C    0.971
    24   1 H    0.998 --    12 C    0.970
    25   1 H    0.998 --    13 C    0.966
 ---------------------------------------------------------------------------

Topologies differ in total number of bonds
Writing topology from bond orders to xtbtopo.mol

molecular dipole:
                 x           y           z       tot (Debye)
 q only:       -0.718       0.832      -0.741
   full:       -0.732       0.850      -0.762       3.446
molecular quadrupole (traceless):
                xx          xy          yy          xz          yz          zz
 q only:        7.047       6.191      -5.763     -10.078       1.739      -1.284
  q+dip:        8.139       5.593      -6.604     -10.500      -0.131      -1.535
   full:        6.809       6.625      -5.600     -10.165       2.647      -1.209

           -------------------------------------------------
          |                Geometry Summary                 |
           -------------------------------------------------

      molecular mass/u    :      176.2121937
   center of mass at/Å    :       -0.0998800      -0.1606677       0.1786237
  moments of inertia/u·Å² :        0.2438012E+03   0.1607908E+04   0.1845381E+04
rotational constants/cm⁻¹ :        0.6914499E-01   0.1048420E-01   0.9135042E-02

 * 23 selected distances

     #   Z          #   Z                                           value/Å
     1   6 C        2   6 C                                       1.5170724 (max)
     2   6 C        3   8 O                                       1.4264850
     3   8 O        4   6 C                                       1.3425991
     4   6 C        5   8 O                                       1.2095732
     6   6 C        7   6 C                                       1.3389885
     8   6 C        9   6 C                                       1.3981693
     9   6 C       10   6 C                                       1.3811270
    10   6 C       11   6 C                                       1.3854242
    11   6 C       12   6 C                                       1.3863187
     8   6 C       13   6 C                                       1.3977195
    12   6 C       13   6 C                                       1.3807306
     1   6 C       14   1 H                                       1.0865501
     1   6 C       15   1 H                                       1.0860379
     1   6 C       16   1 H                                       1.0868455
     2   6 C       17   1 H                                       1.0962069
     2   6 C       18   1 H                                       1.0963102
     6   6 C       19   1 H                                       1.0792659
     7   6 C       20   1 H                                       1.0826961
     9   6 C       21   1 H                                       1.0807620
    10   6 C       22   1 H                                       1.0801566
    11   6 C       23   1 H                                       1.0798592
    12   6 C       24   1 H                                       1.0801527
    13   6 C       25   1 H                                       1.0785507 (min)

 * 3 distinct bonds (by element types)

   Z      Z             #   av. dist./Å        max./Å        min./Å
   1 H    6 C          12     1.0844495     1.0963102     1.0785507
   6 C    6 C           8     1.3981938     1.5170724     1.3389885
   6 C    8 O           3     1.3262191     1.4264850     1.2095732


optimized geometry written to: xtbopt.xyz


           -------------------------------------------------
          | TOTAL ENERGY              -37.781040612223 Eh   |
          | GRADIENT NORM               0.000701564962 Eh/α |
          | HOMO-LUMO GAP               3.029024375598 eV   |
           -------------------------------------------------

------------------------------------------------------------------------
 * finished run on 2025/12/01 at 14:17:50.018     
------------------------------------------------------------------------
 total:
 * wall-time:     0 d,  0 h,  0 min,  0.167 sec
 *  cpu-time:     0 d,  0 h,  0 min,  3.666 sec
 * ratio c/w:    22.013 speedup
 SCF:
 * wall-time:     0 d,  0 h,  0 min,  0.021 sec
 *  cpu-time:     0 d,  0 h,  0 min,  0.478 sec
 * ratio c/w:    22.548 speedup
 ANC optimizer:
 * wall-time:     0 d,  0 h,  0 min,  0.134 sec
 *  cpu-time:     0 d,  0 h,  0 min,  3.016 sec
 * ratio c/w:    22.582 speedup

normal termination of xtb
