      -----------------------------------------------------------      
     |                   =====================                   |     
     |                           x T B                           |     
     |                   =====================                   |     
     |                         S. Grimme                         |     
     |          Mulliken Center for Theoretical Chemistry        |     
     |                    University of Bonn                     |     
      -----------------------------------------------------------      

   * xtb version 6.7.1 (edcfbbe) compiled by 'albert@albert-system' on 2024-07-22

   xtb is free software: you can redistribute it and/or modify it under
   the terms of the GNU Lesser General Public License as published by
   the Free Software Foundation, either version 3 of the License, or
   (at your option) any later version.
   
   xtb is distributed in the hope that it will be useful,
   but WITHOUT ANY WARRANTY; without even the implied warranty of
   MERCHANTABILITY or FITNESS FOR A PARTICULAR PURPOSE.  See the
   GNU Lesser General Public License for more details.
   
   Cite this work as:
   * C. Bannwarth, E. Caldeweyher, S. Ehlert, A. Hansen, P. Pracht,
     J. Seibert, S. Spicher, S. Grimme, WIREs Comput. Mol. Sci., 2020, 11,
     e01493. DOI: 10.1002/wcms.1493
   
   for GFN2-xTB:
   * C. Bannwarth, S. Ehlert and S. Grimme., J. Chem. Theory Comput., 2019,
     15, 1652-1671. DOI: 10.1021/acs.jctc.8b01176
   for GFN1-xTB:
   * S. Grimme, C. Bannwarth, P. Shushkov, J. Chem. Theory Comput., 2017,
     13, 1989-2009. DOI: 10.1021/acs.jctc.7b00118
   for GFN0-xTB:
   * P. Pracht, E. Caldeweyher, S. Ehlert, S. Grimme, ChemRxiv, 2019, preprint.
     DOI: 10.26434/chemrxiv.8326202.v1
   for GFN-FF:
   * S. Spicher and S. Grimme, Angew. Chem. Int. Ed., 2020, 59, 15665-15673.
     DOI: 10.1002/anie.202004239
   
   for ALPB and GBSA implicit solvation:
   * S. Ehlert, M. Stahn, S. Spicher, S. Grimme, J. Chem. Theory Comput.,
     2021, 17, 4250-4261. DOI: 10.1021/acs.jctc.1c00471
   
   for ddCOSMO and CPCM-X implicit solvation:
   * M. Stahn, S. Ehlert, S. Grimme, J. Phys. Chem. A,
     2023, XX, XXXX-XXXX. DOI: 10.1021/acs.jpca.3c04382
   
   for DFT-D4:
   * E. Caldeweyher, C. Bannwarth and S. Grimme, J. Chem. Phys., 2017,
     147, 034112. DOI: 10.1063/1.4993215
   * E. Caldeweyher, S. Ehlert, A. Hansen, H. Neugebauer, S. Spicher,
     C. Bannwarth and S. Grimme, J. Chem. Phys., 2019, 150, 154122.
     DOI: 10.1063/1.5090222
   * E. Caldeweyher, J.-M. Mewes, S. Ehlert and S. Grimme, Phys. Chem. Chem. Phys.
     2020, 22, 8499-8512. DOI: 10.1039/D0CP00502A
   
   for sTDA-xTB:
   * S. Grimme and C. Bannwarth, J. Chem. Phys., 2016, 145, 054103.
     DOI: 10.1063/1.4959605
   
   in the mass-spec context:
   * V. Asgeirsson, C. Bauer and S. Grimme, Chem. Sci., 2017, 8, 4879.
     DOI: 10.1039/c7sc00601b
   * J. Koopman and S. Grimme, ACS Omega 2019, 4, 12, 15120-15133.
     DOI: 10.1021/acsomega.9b02011
   
   for metadynamics refer to:
   * S. Grimme, J. Chem. Theory Comput., 2019, 155, 2847-2862
     DOI: 10.1021/acs.jctc.9b00143
   
   for SPH calculations refer to:
   * S. Spicher and S. Grimme, J. Chem. Theory Comput., 2021, 17, 1701-1714
     DOI: 10.1021/acs.jctc.0c01306
   
   for ONIOM refer to:
   * C. Plett, A. Katbashev, S. Ehlert, S. Grimme, M. Bursch,
     Phys. Chem. Chem. Phys., 2023, 25, 17860-17868. DOI: 10.1039/D3CP02178E
   
   for DIPRO refer to:
   * J. Kohn, N. Gildemeister, S. Grimme, D. Fazzi, A. Hansen,
     J. Chem. Phys., 2023, just accepted.
   
   for PTB refer to:
   * S. Grimme, M. Mueller, A. Hansen, J. Chem. Phys., 2023, 158, 124111.
     DOI: 10.1063/5.0137838
   
   with help from (in alphabetical order)
   P. Atkinson, C. Bannwarth, F. Bohle, G. Brandenburg, E. Caldeweyher
   M. Checinski, S. Dohm, S. Ehlert, S. Ehrlich, I. Gerasimov, C. Hölzer
   A. Katbashev, J. Kohn, J. Koopman, C. Lavigne, S. Lehtola, F. März, M. Müller,
   F. Musil, H. Neugebauer, J. Pisarek, C. Plett, P. Pracht, F. Pultar,
   J. Seibert, P. Shushkov, S. Spicher, M. Stahn, M. Steiner, T. Strunk,
   J. Stückrath, T. Rose, and J. Unsleber
   
 * started run on 2025/12/01 at 14:17:52.123     
   ID    Z sym.   atoms
    1    6 C      1-5, 7, 9, 10
    2    8 O      6, 8
    3    1 H      11-24

           -------------------------------------------------
          |                Calculation Setup                |
           -------------------------------------------------

          program call               : xtb pipeline_data/3_conformer_xyz/acrylates/rdkit/NCTBYWFEJFTVEL-ZETCQYMHSA-N_conf225.xyz --opt --gfn 2-xTB --iterations 250
          coordinate file            : pipeline_data/3_conformer_xyz/acrylates/rdkit/NCTBYWFEJFTVEL-ZETCQYMHSA-N_conf225.xyz
          omp threads                :                    24

########################################################################
[WARNING] Please study the warnings concerning your input carefully
-1- readin_getIntValue: could not parse '2-xTB'
########################################################################

           -------------------------------------------------
          |                 G F N 2 - x T B                 |
           -------------------------------------------------

        Reference                      10.1021/acs.jctc.8b01176
      * Hamiltonian:
        H0-scaling (s, p, d)           1.850000    2.230000    2.230000
        zeta-weighting                 0.500000
      * Dispersion:
        s8                             2.700000
        a1                             0.520000
        a2                             5.000000
        s9                             5.000000
      * Repulsion:
        kExp                           1.500000    1.000000
        rExp                           1.000000
      * Coulomb:
        alpha                          2.000000
        third order                    shell-resolved
        anisotropic                    true
        a3                             3.000000
        a5                             4.000000
        cn-shift                       1.200000
        cn-exp                         4.000000
        max-rad                        5.000000

q/qsh data taken from xtbrestart
CAMM data taken from xtbrestart

          ...................................................
          :                      SETUP                      :
          :.................................................:
          :  # basis functions                  54          :
          :  # atomic orbitals                  54          :
          :  # shells                           34          :
          :  # electrons                        58          :
          :  max. iterations                   250          :
          :  Hamiltonian                  GFN2-xTB          :
          :  restarted?                       true          :
          :  GBSA solvation                  false          :
          :  PC potential                    false          :
          :  electronic temp.          300.0000000     K    :
          :  accuracy                    1.0000000          :
          :  -> integral cutoff          0.2500000E+02      :
          :  -> integral neglect         0.1000000E-07      :
          :  -> SCF convergence          0.1000000E-05 Eh   :
          :  -> wf. convergence          0.1000000E-03 e    :
          :  Broyden damping             0.4000000          :
          :  net charge                          0          :
          :  unpaired electrons                  0          :
          ...................................................

 iter      E             dE          RMSdq      gap      omega  full diag
   1    -32.7381969 -0.327382E+02  0.301E+00    3.31       0.0  T
   2    -32.7432007 -0.500385E-02  0.179E+00    3.35       1.0  T
   3    -32.7443747 -0.117395E-02  0.279E-01    3.33       1.0  T
   4    -32.7445331 -0.158435E-03  0.187E-01    3.43       1.0  T
   5    -32.7447969 -0.263767E-03  0.945E-02    3.41       1.0  T
   6    -32.7448379 -0.410104E-04  0.258E-02    3.41       1.0  T
   7    -32.7448483 -0.103894E-04  0.107E-02    3.42       1.9  T
   8    -32.7448488 -0.489555E-06  0.366E-03    3.42       5.6  T
   9    -32.7448488 -0.445663E-07  0.164E-03    3.42      12.4  T
  10    -32.7448488 -0.617035E-08  0.409E-04    3.42      49.9  T
  11    -32.7448488 -0.758618E-09  0.180E-04    3.42     113.4  T

   *** convergence criteria satisfied after 11 iterations ***

         #    Occupation            Energy/Eh            Energy/eV
      -------------------------------------------------------------
         1        2.0000           -0.7286990             -19.8289
       ...           ...                  ...                  ...
        23        2.0000           -0.4499166             -12.2429
        24        2.0000           -0.4429059             -12.0521
        25        2.0000           -0.4377818             -11.9126
        26        2.0000           -0.4357759             -11.8581
        27        2.0000           -0.4307635             -11.7217
        28        2.0000           -0.4254108             -11.5760
        29        2.0000           -0.4104337             -11.1685 (HOMO)
        30                         -0.2847760              -7.7491 (LUMO)
        31                         -0.1723509              -4.6899
        32                         -0.0292295              -0.7954
        33                          0.0642585               1.7486
        34                          0.0782400               2.1290
       ...                                ...                  ...
        54                          0.6168522              16.7854
      -------------------------------------------------------------
                  HL-Gap            0.1256577 Eh            3.4193 eV
             Fermi-level           -0.3476048 Eh           -9.4588 eV

 SCC (total)                   0 d,  0 h,  0 min,  0.029 sec
 SCC setup                      ...        0 min,  0.001 sec (  2.271%)
 Dispersion                     ...        0 min,  0.000 sec (  1.190%)
 classical contributions        ...        0 min,  0.000 sec (  1.713%)
 integral evaluation            ...        0 min,  0.001 sec (  3.995%)
 iterations                     ...        0 min,  0.024 sec ( 81.440%)
 molecular gradient             ...        0 min,  0.003 sec (  8.755%)
 printout                       ...        0 min,  0.000 sec (  0.506%)

         :::::::::::::::::::::::::::::::::::::::::::::::::::::
         ::                     SUMMARY                     ::
         :::::::::::::::::::::::::::::::::::::::::::::::::::::
         :: total energy             -32.361186025871 Eh    ::
         :: gradient norm              0.133426478915 Eh/a0 ::
         :: HOMO-LUMO gap              3.419319885157 eV    ::
         ::.................................................::
         :: SCC energy               -32.744864986729 Eh    ::
         :: -> isotropic ES            0.049778488225 Eh    ::
         :: -> anisotropic ES          0.003523191730 Eh    ::
         :: -> anisotropic XC          0.013701610178 Eh    ::
         :: -> dispersion             -0.015662075850 Eh    ::
         :: repulsion energy           0.383678960857 Eh    ::
         :: add. restraining           0.000000000000 Eh    ::
         :: total charge               0.000000000000 e     ::
         :::::::::::::::::::::::::::::::::::::::::::::::::::::

      ----------------------------------------------------------- 
     |                   =====================                   |
     |                        A N C O P T                        |
     |                   =====================                   |
     |               Approximate Normal Coordinate               |
     |                Rational Function Optimizer                |
      ----------------------------------------------------------- 
      ----------------------------------------------------------- 
     |                   =====================                   |
     |                        A N C O P T                        |
     |                   =====================                   |
     |               Approximate Normal Coordinate               |
     |                Rational Function Optimizer                |
      ----------------------------------------------------------- 

          ...................................................
          :                      SETUP                      :
          :.................................................:
          :   optimization level            normal          :
          :   max. optcycles                   200          :
          :   ANC micro-cycles                  20          :
          :   degrees of freedom                66          :
          :.................................................:
          :   RF solver                   davidson          :
          :   write xtbopt.log                true          :
          :   linear?                        false          :
          :   energy convergence         0.5000000E-05 Eh   :
          :   grad. convergence          0.1000000E-02 Eh/α :
          :   maxmium RF displ.          1.0000000          :
          :   Hlow (freq-cutoff)         0.1000000E-01      :
          :   Hmax (freq-cutoff)         5.0000000          :
          :   S6 in model hess.         20.0000000          :
          ...................................................

generating ANC from exact Hessian ...
Using Lindh-Hessian (1995)
 Shifting diagonal of input Hessian by   9.153866779798604E-003
 Lowest  eigenvalues of input Hessian
    0.000000    0.000000    0.000000    0.000000    0.000000    0.000000
    0.010000    0.010624    0.011276    0.012740    0.014162    0.015049
    0.016729    0.019133    0.019685    0.021741    0.027252    0.027504
 Highest eigenvalues
    1.278639    1.316059    1.446400    1.750701    1.992594    2.115723
 

........................................................................
.............................. CYCLE    1 ..............................
........................................................................

 iter      E             dE          RMSdq      gap      omega  full diag
   1    -32.7448488 -0.327448E+02  0.422E-05    3.42       0.0  T
   2    -32.7448488 -0.304112E-11  0.269E-05    3.42     759.3  T
   3    -32.7448488 -0.703437E-12  0.952E-06    3.42    2144.2  T
     SCC iter.                  ...        0 min,  0.004 sec
     gradient                   ...        0 min,  0.002 sec
 * total energy  :   -32.3611860 Eh     change       -0.6191669E-10 Eh
   gradient norm :     0.1334264 Eh/α   predicted     0.0000000E+00 (-100.00%)
   displ. norm   :     0.3786035 α      lambda       -0.2369007E-01
   maximum displ.:     0.1792029 α      in ANC's #15, #18, #13, ...

........................................................................
.............................. CYCLE    2 ..............................
........................................................................

 iter      E             dE          RMSdq      gap      omega  full diag
   1    -32.7842079 -0.327842E+02  0.328E-01    3.56       0.0  T
   2    -32.7844552 -0.247302E-03  0.199E-01    3.62       1.0  T
   3    -32.7843476  0.107630E-03  0.101E-01    3.62       1.0  T
   4    -32.7844714 -0.123814E-03  0.373E-02    3.63       1.0  T
   5    -32.7844971 -0.256927E-04  0.721E-03    3.62       2.8  T
   6    -32.7844974 -0.348622E-06  0.384E-03    3.63       5.3  T
   7    -32.7844975 -0.420896E-07  0.933E-04    3.62      21.9  T
   8    -32.7844975 -0.196718E-08  0.388E-04    3.63      52.6  T
     SCC iter.                  ...        0 min,  0.009 sec
     gradient                   ...        0 min,  0.002 sec
 * total energy  :   -32.3774533 Eh     change       -0.1626727E-01 Eh
   gradient norm :     0.0530049 Eh/α   predicted    -0.1356045E-01 ( -16.64%)
   displ. norm   :     0.3549813 α      lambda       -0.7192131E-02
   maximum displ.:     0.2180083 α      in ANC's #15, #6, #5, ...

........................................................................
.............................. CYCLE    3 ..............................
........................................................................

 iter      E             dE          RMSdq      gap      omega  full diag
   1    -32.8021459 -0.328021E+02  0.179E-01    3.72       0.0  T
   2    -32.8022412 -0.953052E-04  0.110E-01    3.76       1.0  T
   3    -32.8022065  0.346603E-04  0.643E-02    3.76       1.0  T
   4    -32.8022546 -0.480938E-04  0.224E-02    3.77       1.0  T
   5    -32.8022620 -0.741006E-05  0.448E-03    3.76       4.6  T
   6    -32.8022621 -0.117368E-06  0.219E-03    3.76       9.3  T
   7    -32.8022621 -0.201174E-07  0.636E-04    3.76      32.1  T
   8    -32.8022621 -0.753211E-09  0.266E-04    3.76      76.6  T
     SCC iter.                  ...        0 min,  0.009 sec
     gradient                   ...        0 min,  0.002 sec
 * total energy  :   -32.3818000 Eh     change       -0.4346664E-02 Eh
   gradient norm :     0.0148114 Eh/α   predicted    -0.4049215E-02 (  -6.84%)
   displ. norm   :     0.2810364 α      lambda       -0.1534053E-02
   maximum displ.:     0.1495954 α      in ANC's #6, #5, #15, ...

........................................................................
.............................. CYCLE    4 ..............................
........................................................................

 iter      E             dE          RMSdq      gap      omega  full diag
   1    -32.8023114 -0.328023E+02  0.861E-02    3.77       0.0  T
   2    -32.8023224 -0.110133E-04  0.533E-02    3.78       1.0  T
   3    -32.8023133  0.916519E-05  0.263E-02    3.78       1.0  T
   4    -32.8023234 -0.100886E-04  0.869E-03    3.78       2.3  T
   5    -32.8023247 -0.132857E-05  0.140E-03    3.78      14.6  T
   6    -32.8023247 -0.488122E-08  0.649E-04    3.78      31.5  T
   7    -32.8023247 -0.161820E-08  0.209E-04    3.78      97.8  T
     SCC iter.                  ...        0 min,  0.007 sec
     gradient                   ...        0 min,  0.002 sec
 * total energy  :   -32.3828689 Eh     change       -0.1068969E-02 Eh
   gradient norm :     0.0098231 Eh/α   predicted    -0.8276528E-03 ( -22.57%)
   displ. norm   :     0.3532227 α      lambda       -0.1090703E-02
   maximum displ.:     0.1926966 α      in ANC's #6, #5, #9, ...

........................................................................
.............................. CYCLE    5 ..............................
........................................................................

 iter      E             dE          RMSdq      gap      omega  full diag
   1    -32.8008097 -0.328008E+02  0.933E-02    3.78       0.0  T
   2    -32.8008204 -0.106512E-04  0.564E-02    3.78       1.0  T
   3    -32.8008142  0.611907E-05  0.217E-02    3.78       1.0  T
   4    -32.8008201 -0.580470E-05  0.929E-03    3.78       2.2  T
   5    -32.8008217 -0.167259E-05  0.141E-03    3.78      14.5  T
   6    -32.8008217 -0.469921E-08  0.733E-04    3.78      27.8  T
   7    -32.8008217 -0.158673E-08  0.163E-04    3.78     125.3  T
     SCC iter.                  ...        0 min,  0.007 sec
     gradient                   ...        0 min,  0.002 sec
 * total energy  :   -32.3835265 Eh     change       -0.6575479E-03 Eh
   gradient norm :     0.0102405 Eh/α   predicted    -0.6134136E-03 (  -6.71%)
   displ. norm   :     0.2813545 α      lambda       -0.6633625E-03
   maximum displ.:     0.1472819 α      in ANC's #5, #6, #9, ...

........................................................................
.............................. CYCLE    6 ..............................
........................................................................

 iter      E             dE          RMSdq      gap      omega  full diag
   1    -32.8010930 -0.328011E+02  0.739E-02    3.77       0.0  T
   2    -32.8010957 -0.269364E-05  0.444E-02    3.77       1.0  T
   3    -32.8010946  0.106272E-05  0.879E-03    3.77       2.3  T
   4    -32.8010956 -0.983288E-06  0.444E-03    3.77       4.6  T
   5    -32.8010960 -0.385803E-06  0.943E-04    3.77      21.6  T
   6    -32.8010960 -0.133333E-08  0.488E-04    3.77      41.8  T
     SCC iter.                  ...        0 min,  0.006 sec
     gradient                   ...        0 min,  0.002 sec
 * total energy  :   -32.3839680 Eh     change       -0.4414842E-03 Eh
   gradient norm :     0.0120549 Eh/α   predicted    -0.3579413E-03 ( -18.92%)
   displ. norm   :     0.2826797 α      lambda       -0.6709081E-03
   maximum displ.:     0.1224973 α      in ANC's #5, #3, #8, ...

........................................................................
.............................. CYCLE    7 ..............................
........................................................................

 iter      E             dE          RMSdq      gap      omega  full diag
   1    -32.8036673 -0.328037E+02  0.651E-02    3.76       0.0  T
   2    -32.8036684 -0.111693E-05  0.387E-02    3.76       1.0  T
   3    -32.8036685 -0.426262E-07  0.361E-03    3.76       5.6  T
   4    -32.8036686 -0.102447E-06  0.130E-03    3.76      15.7  T
   5    -32.8036686 -0.102828E-08  0.971E-04    3.76      21.0  T
   6    -32.8036686 -0.105540E-07  0.283E-04    3.76      72.1  T
     SCC iter.                  ...        0 min,  0.006 sec
     gradient                   ...        0 min,  0.002 sec
 * total energy  :   -32.3844752 Eh     change       -0.5072617E-03 Eh
   gradient norm :     0.0105154 Eh/α   predicted    -0.3622614E-03 ( -28.58%)
   displ. norm   :     0.3748793 α      lambda       -0.6810316E-03
   maximum displ.:     0.1657207 α      in ANC's #7, #8, #9, ...

........................................................................
.............................. CYCLE    8 ..............................
........................................................................

 iter      E             dE          RMSdq      gap      omega  full diag
   1    -32.8039754 -0.328040E+02  0.845E-02    3.75       0.0  T
   2    -32.8039799 -0.442247E-05  0.502E-02    3.75       1.0  T
   3    -32.8039798  0.793152E-07  0.781E-03    3.75       2.6  T
   4    -32.8039801 -0.308722E-06  0.163E-03    3.75      12.6  T
   5    -32.8039801 -0.233177E-07  0.806E-04    3.75      25.3  T
   6    -32.8039801  0.393584E-09  0.325E-04    3.75      62.8  T
     SCC iter.                  ...        0 min,  0.010 sec
     gradient                   ...        0 min,  0.002 sec
 * total energy  :   -32.3849524 Eh     change       -0.4771455E-03 Eh
   gradient norm :     0.0107049 Eh/α   predicted    -0.3883721E-03 ( -18.61%)
   displ. norm   :     0.3024021 α      lambda       -0.6465927E-03
   maximum displ.:     0.1415054 α      in ANC's #7, #3, #8, ...

........................................................................
.............................. CYCLE    9 ..............................
........................................................................

 iter      E             dE          RMSdq      gap      omega  full diag
   1    -32.8082698 -0.328083E+02  0.864E-02    3.75       0.0  T
   2    -32.8082804 -0.105929E-04  0.496E-02    3.76       1.0  T
   3    -32.8082805 -0.595838E-07  0.132E-02    3.75       1.5  T
   4    -32.8082808 -0.373217E-06  0.250E-03    3.75       8.2  T
   5    -32.8082809 -0.571216E-07  0.132E-03    3.75      15.5  T
   6    -32.8082809  0.350553E-08  0.840E-04    3.75      24.3  T
   7    -32.8082809 -0.102800E-07  0.139E-04    3.75     147.1  T
     SCC iter.                  ...        0 min,  0.008 sec
     gradient                   ...        0 min,  0.002 sec
 * total energy  :   -32.3852393 Eh     change       -0.2869081E-03 Eh
   gradient norm :     0.0073224 Eh/α   predicted    -0.3528676E-03 (  22.99%)
   displ. norm   :     0.3737251 α      lambda       -0.5138228E-03
   maximum displ.:     0.2058581 α      in ANC's #7, #9, #8, ...

........................................................................
.............................. CYCLE   10 ..............................
........................................................................

 iter      E             dE          RMSdq      gap      omega  full diag
   1    -32.8024896 -0.328025E+02  0.103E-01    3.75       0.0  T
   2    -32.8025003 -0.106420E-04  0.591E-02    3.76       1.0  T
   3    -32.8024990  0.131359E-05  0.160E-02    3.76       1.3  T
   4    -32.8025000 -0.107188E-05  0.777E-03    3.76       2.6  T
   5    -32.8025012 -0.113571E-05  0.198E-03    3.76      10.3  T
   6    -32.8025012 -0.440861E-08  0.642E-04    3.76      31.8  T
   7    -32.8025012 -0.134748E-08  0.137E-04    3.76     149.3  T
     SCC iter.                  ...        0 min,  0.008 sec
     gradient                   ...        0 min,  0.002 sec
 * total energy  :   -32.3853632 Eh     change       -0.1238895E-03 Eh
   gradient norm :     0.0120375 Eh/α   predicted    -0.2927957E-03 ( 136.34%)
   displ. norm   :     0.1515666 α      lambda       -0.3466519E-03
   maximum displ.:     0.0669652 α      in ANC's #8, #5, #3, ...

........................................................................
.............................. CYCLE   11 ..............................
........................................................................

 iter      E             dE          RMSdq      gap      omega  full diag
   1    -32.8067329 -0.328067E+02  0.483E-02    3.76       0.0  T
   2    -32.8067369 -0.405901E-05  0.278E-02    3.76       1.0  T
   3    -32.8067369  0.113367E-07  0.815E-03    3.76       2.5  T
   4    -32.8067370 -0.946186E-07  0.277E-03    3.76       7.4  T
   5    -32.8067372 -0.133104E-06  0.117E-03    3.76      17.5  T
   6    -32.8067372 -0.828279E-08  0.546E-04    3.76      37.4  T
   7    -32.8067372 -0.971127E-09  0.747E-05    3.76     273.4  T
     SCC iter.                  ...        0 min,  0.008 sec
     gradient                   ...        0 min,  0.002 sec
 * total energy  :   -32.3855496 Eh     change       -0.1863943E-03 Eh
   gradient norm :     0.0040941 Eh/α   predicted    -0.1773116E-03 (  -4.87%)
   displ. norm   :     0.0988143 α      lambda       -0.1038098E-03
   maximum displ.:     0.0606120 α      in ANC's #7, #1, #4, ...

........................................................................
.............................. CYCLE   12 ..............................
........................................................................

 iter      E             dE          RMSdq      gap      omega  full diag
   1    -32.8071830 -0.328072E+02  0.330E-02    3.76       0.0  T
   2    -32.8071833 -0.304871E-06  0.196E-02    3.76       1.0  T
   3    -32.8071832  0.750304E-07  0.242E-03    3.76       8.4  T
   4    -32.8071833 -0.664289E-07  0.134E-03    3.76      15.3  T
   5    -32.8071833 -0.374307E-07  0.316E-04    3.76      64.6  T
   6    -32.8071833 -0.193047E-09  0.139E-04    3.76     147.1  T
     SCC iter.                  ...        0 min,  0.007 sec
     gradient                   ...        0 min,  0.006 sec
 * total energy  :   -32.3856327 Eh     change       -0.8309623E-04 Eh
   gradient norm :     0.0031256 Eh/α   predicted    -0.5241340E-04 ( -36.92%)
   displ. norm   :     0.2262789 α      lambda       -0.1683559E-03
   maximum displ.:     0.1388068 α      in ANC's #7, #1, #4, ...

........................................................................
.............................. CYCLE   13 ..............................
........................................................................

 iter      E             dE          RMSdq      gap      omega  full diag
   1    -32.8067074 -0.328067E+02  0.654E-02    3.76       0.0  T
   2    -32.8067081 -0.703940E-06  0.388E-02    3.75       1.0  T
   3    -32.8067081 -0.468613E-07  0.214E-03    3.76       9.5  T
   4    -32.8067082 -0.293032E-07  0.839E-04    3.75      24.3  T
   5    -32.8067082 -0.148474E-08  0.447E-04    3.75      45.7  T
     SCC iter.                  ...        0 min,  0.019 sec
     gradient                   ...        0 min,  0.006 sec
 * total energy  :   -32.3857405 Eh     change       -0.1078396E-03 Eh
   gradient norm :     0.0037452 Eh/α   predicted    -0.8849487E-04 ( -17.94%)
   displ. norm   :     0.1305676 α      lambda       -0.7706200E-04
   maximum displ.:     0.0723555 α      in ANC's #7, #1, #4, ...

........................................................................
.............................. CYCLE   14 ..............................
........................................................................

 iter      E             dE          RMSdq      gap      omega  full diag
   1    -32.8065860 -0.328066E+02  0.339E-02    3.75       0.0  T
   2    -32.8065862 -0.147503E-06  0.201E-02    3.75       1.0  T
   3    -32.8065859  0.247762E-06  0.375E-03    3.75       5.4  T
   4    -32.8065862 -0.277442E-06  0.993E-04    3.75      20.6  T
   5    -32.8065862 -0.148901E-07  0.335E-04    3.75      60.9  T
     SCC iter.                  ...        0 min,  0.012 sec
     gradient                   ...        0 min,  0.002 sec
 * total energy  :   -32.3857968 Eh     change       -0.5633802E-04 Eh
   gradient norm :     0.0032026 Eh/α   predicted    -0.3919037E-04 ( -30.44%)
   displ. norm   :     0.1927953 α      lambda       -0.1150092E-03
   maximum displ.:     0.1005493 α      in ANC's #1, #4, #7, ...

........................................................................
.............................. CYCLE   15 ..............................
........................................................................

 iter      E             dE          RMSdq      gap      omega  full diag
   1    -32.8066722 -0.328067E+02  0.455E-02    3.75       0.0  T
   2    -32.8066725 -0.212042E-06  0.271E-02    3.75       1.0  T
   3    -32.8066715  0.994309E-06  0.727E-03    3.75       2.8  T
   4    -32.8066726 -0.111688E-05  0.112E-03    3.75      18.1  T
   5    -32.8066726 -0.104830E-07  0.467E-04    3.75      43.7  T
   6    -32.8066726 -0.315211E-09  0.136E-04    3.75     150.2  T
     SCC iter.                  ...        0 min,  0.012 sec
     gradient                   ...        0 min,  0.004 sec
 * total energy  :   -32.3858780 Eh     change       -0.8112730E-04 Eh
   gradient norm :     0.0034259 Eh/α   predicted    -0.5964665E-04 ( -26.48%)
   displ. norm   :     0.1918210 α      lambda       -0.1000289E-03
   maximum displ.:     0.0989415 α      in ANC's #4, #1, #2, ...

........................................................................
.............................. CYCLE   16 ..............................
........................................................................

 iter      E             dE          RMSdq      gap      omega  full diag
   1    -32.8068169 -0.328068E+02  0.494E-02    3.75       0.0  T
   2    -32.8068170 -0.163275E-06  0.293E-02    3.75       1.0  T
   3    -32.8068163  0.687048E-06  0.604E-03    3.75       3.4  T
   4    -32.8068171 -0.780514E-06  0.987E-04    3.75      20.7  T
   5    -32.8068171 -0.709915E-08  0.432E-04    3.75      47.3  T
     SCC iter.                  ...        0 min,  0.008 sec
     gradient                   ...        0 min,  0.002 sec
 * total energy  :   -32.3859490 Eh     change       -0.7099455E-04 Eh
   gradient norm :     0.0034634 Eh/α   predicted    -0.5185710E-04 ( -26.96%)
   displ. norm   :     0.1758203 α      lambda       -0.7831684E-04
   maximum displ.:     0.1008626 α      in ANC's #4, #2, #1, ...

........................................................................
.............................. CYCLE   17 ..............................
........................................................................

 iter      E             dE          RMSdq      gap      omega  full diag
   1    -32.8067188 -0.328067E+02  0.543E-02    3.76       0.0  T
   2    -32.8067190 -0.119056E-06  0.321E-02    3.76       1.0  T
   3    -32.8067185  0.414149E-06  0.476E-03    3.76       4.3  T
   4    -32.8067190 -0.485422E-06  0.864E-04    3.76      23.6  T
   5    -32.8067190 -0.478743E-08  0.398E-04    3.76      51.2  T
     SCC iter.                  ...        0 min,  0.005 sec
     gradient                   ...        0 min,  0.002 sec
 * total energy  :   -32.3860022 Eh     change       -0.5322619E-04 Eh
   gradient norm :     0.0034623 Eh/α   predicted    -0.4037236E-04 ( -24.15%)
   displ. norm   :     0.1332372 α      lambda       -0.5032659E-04
   maximum displ.:     0.0944632 α      in ANC's #4, #2, #1, ...

........................................................................
.............................. CYCLE   18 ..............................
........................................................................

 iter      E             dE          RMSdq      gap      omega  full diag
   1    -32.8068316 -0.328068E+02  0.503E-02    3.76       0.0  T
   2    -32.8068317 -0.105203E-06  0.297E-02    3.76       1.0  T
   3    -32.8068317  0.471006E-07  0.207E-03    3.77       9.8  T
   4    -32.8068318 -0.740103E-07  0.875E-04    3.76      23.3  T
   5    -32.8068318 -0.993185E-08  0.343E-04    3.76      59.5  T
     SCC iter.                  ...        0 min,  0.005 sec
     gradient                   ...        0 min,  0.002 sec
 * total energy  :   -32.3860355 Eh     change       -0.3335685E-04 Eh
   gradient norm :     0.0024523 Eh/α   predicted    -0.2561470E-04 ( -23.21%)
   displ. norm   :     0.1135444 α      lambda       -0.4609518E-04
   maximum displ.:     0.0853983 α      in ANC's #4, #2, #5, ...

........................................................................
.............................. CYCLE   19 ..............................
........................................................................

 iter      E             dE          RMSdq      gap      omega  full diag
   1    -32.8073767 -0.328074E+02  0.555E-02    3.77       0.0  T
   2    -32.8073769 -0.238745E-06  0.328E-02    3.77       1.0  T
   3    -32.8073769 -0.125048E-07  0.172E-03    3.77      11.9  T
   4    -32.8073770 -0.199357E-07  0.115E-03    3.77      17.8  T
   5    -32.8073770 -0.190001E-07  0.451E-04    3.77      45.3  T
   6    -32.8073770 -0.825104E-09  0.120E-04    3.77     169.9  T
     SCC iter.                  ...        0 min,  0.007 sec
     gradient                   ...        0 min,  0.002 sec
 * total energy  :   -32.3860570 Eh     change       -0.2148351E-04 Eh
   gradient norm :     0.0020264 Eh/α   predicted    -0.2334723E-04 (   8.68%)
   displ. norm   :     0.1495135 α      lambda       -0.4088200E-04
   maximum displ.:     0.1168991 α      in ANC's #4, #7, #1, ...

........................................................................
.............................. CYCLE   20 ..............................
........................................................................

 iter      E             dE          RMSdq      gap      omega  full diag
   1    -32.8056777 -0.328057E+02  0.488E-02    3.77       0.0  T
   2    -32.8056785 -0.788725E-06  0.285E-02    3.77       1.0  T
   3    -32.8056785 -0.266262E-07  0.290E-03    3.77       7.0  T
   4    -32.8056785 -0.323840E-07  0.120E-03    3.77      17.0  T
   5    -32.8056785 -0.138721E-07  0.677E-04    3.77      30.1  T
   6    -32.8056785 -0.285613E-08  0.230E-04    3.77      88.8  T
     SCC iter.                  ...        0 min,  0.007 sec
     gradient                   ...        0 min,  0.002 sec
 * total energy  :   -32.3860607 Eh     change       -0.3662171E-05 Eh
   gradient norm :     0.0047504 Eh/α   predicted    -0.2089899E-04 ( 470.67%)
   displ. norm   :     0.0782318 α      lambda       -0.6816187E-04
   maximum displ.:     0.0439330 α      in ANC's #7, #3, #1, ...
 * RMSD in coord.:     0.5939041 α      energy gain  -0.2487466E-01 Eh

generating ANC from exact Hessian ...
Using Lindh-Hessian (1995)
 Shifting diagonal of input Hessian by   9.207568491764035E-003
 Lowest  eigenvalues of input Hessian
    0.000000    0.000000    0.000000    0.000000    0.000000    0.000000
    0.010000    0.010954    0.011539    0.012646    0.014301    0.015175
    0.017390    0.019367    0.020259    0.022655    0.026483    0.028556
 Highest eigenvalues
    1.280744    1.302593    1.451455    1.759905    2.027641    2.391398
 

........................................................................
.............................. CYCLE   21 ..............................
........................................................................

 iter      E             dE          RMSdq      gap      omega  full diag
   1    -32.8074793 -0.328075E+02  0.243E-02    3.76       0.0  T
   2    -32.8074799 -0.604342E-06  0.140E-02    3.76       1.5  T
   3    -32.8074800 -0.813839E-08  0.300E-03    3.76       6.8  T
   4    -32.8074800 -0.958116E-08  0.124E-03    3.76      16.5  T
   5    -32.8074800 -0.236431E-07  0.507E-04    3.76      40.2  T
   6    -32.8074800 -0.814495E-09  0.144E-04    3.76     141.9  T
     SCC iter.                  ...        0 min,  0.007 sec
     gradient                   ...        0 min,  0.002 sec
 * total energy  :   -32.3860823 Eh     change       -0.2161561E-04 Eh
   gradient norm :     0.0052396 Eh/α   predicted     0.0000000E+00 (-100.00%)
   displ. norm   :     0.0220555 α      lambda       -0.3430759E-04
   maximum displ.:     0.0123364 α      in ANC's #4, #9, #11, ...

........................................................................
.............................. CYCLE   22 ..............................
........................................................................

 iter      E             dE          RMSdq      gap      omega  full diag
   1    -32.8074097 -0.328074E+02  0.108E-02    3.76       0.0  T
   2    -32.8074098 -0.514838E-07  0.641E-03    3.76       3.2  T
   3    -32.8074098  0.286586E-08  0.827E-04    3.76      24.7  T
   4    -32.8074098 -0.452839E-08  0.472E-04    3.76      43.3  T
     SCC iter.                  ...        0 min,  0.005 sec
     gradient                   ...        0 min,  0.002 sec
 * total energy  :   -32.3861069 Eh     change       -0.2457693E-04 Eh
   gradient norm :     0.0020015 Eh/α   predicted    -0.1761509E-04 ( -28.33%)
   displ. norm   :     0.0335128 α      lambda       -0.1803376E-04
   maximum displ.:     0.0217454 α      in ANC's #4, #9, #2, ...

........................................................................
.............................. CYCLE   23 ..............................
........................................................................

 iter      E             dE          RMSdq      gap      omega  full diag
   1    -32.8073257 -0.328073E+02  0.117E-02    3.76       0.0  T
   2    -32.8073257 -0.375664E-07  0.696E-03    3.76       2.9  T
   3    -32.8073257  0.390572E-07  0.154E-03    3.76      13.2  T
   4    -32.8073257 -0.428786E-07  0.547E-04    3.76      37.3  T
   5    -32.8073257 -0.507391E-08  0.161E-04    3.76     127.0  T
     SCC iter.                  ...        0 min,  0.006 sec
     gradient                   ...        0 min,  0.002 sec
 * total energy  :   -32.3861167 Eh     change       -0.9802516E-05 Eh
   gradient norm :     0.0011051 Eh/α   predicted    -0.9030148E-05 (  -7.88%)
   displ. norm   :     0.0428025 α      lambda       -0.7165288E-05
   maximum displ.:     0.0318089 α      in ANC's #4, #9, #2, ...

........................................................................
.............................. CYCLE   24 ..............................
........................................................................

 iter      E             dE          RMSdq      gap      omega  full diag
   1    -32.8072791 -0.328073E+02  0.135E-02    3.76       0.0  T
   2    -32.8072791 -0.197106E-07  0.804E-03    3.76       2.5  T
   3    -32.8072790  0.570842E-07  0.177E-03    3.76      11.5  T
   4    -32.8072791 -0.672453E-07  0.366E-04    3.76      55.7  T
   5    -32.8072791 -0.102942E-08  0.172E-04    3.76     118.7  T
     SCC iter.                  ...        0 min,  0.006 sec
     gradient                   ...        0 min,  0.002 sec
 * total energy  :   -32.3861218 Eh     change       -0.5082474E-05 Eh
   gradient norm :     0.0018244 Eh/α   predicted    -0.3588553E-05 ( -29.39%)
   displ. norm   :     0.0399891 α      lambda       -0.6877613E-05
   maximum displ.:     0.0299282 α      in ANC's #4, #9, #1, ...

........................................................................
.............................. CYCLE   25 ..............................
........................................................................

 iter      E             dE          RMSdq      gap      omega  full diag
   1    -32.8073181 -0.328073E+02  0.103E-02    3.76       0.0  T
   2    -32.8073181 -0.909127E-08  0.616E-03    3.76       3.3  T
   3    -32.8073181  0.549896E-07  0.168E-03    3.76      12.2  T
   4    -32.8073181 -0.624487E-07  0.250E-04    3.76      81.7  T
   5    -32.8073181 -0.234671E-09  0.126E-04    3.76     162.2  T
     SCC iter.                  ...        0 min,  0.006 sec
     gradient                   ...        0 min,  0.002 sec
 * total energy  :   -32.3861297 Eh     change       -0.7951353E-05 Eh
   gradient norm :     0.0009841 Eh/α   predicted    -0.3442470E-05 ( -56.71%)
   displ. norm   :     0.0565430 α      lambda       -0.6400245E-05
   maximum displ.:     0.0421175 α      in ANC's #4, #9, #5, ...

........................................................................
.............................. CYCLE   26 ..............................
........................................................................

 iter      E             dE          RMSdq      gap      omega  full diag
   1    -32.8074020 -0.328074E+02  0.139E-02    3.76       0.0  T
   2    -32.8074020 -0.141150E-07  0.825E-03    3.76       2.5  T
   3    -32.8074020  0.350475E-07  0.143E-03    3.76      14.3  T
   4    -32.8074020 -0.430101E-07  0.331E-04    3.76      61.7  T
   5    -32.8074020 -0.496264E-09  0.142E-04    3.76     144.0  T
     SCC iter.                  ...        0 min,  0.005 sec
     gradient                   ...        0 min,  0.002 sec
 * total energy  :   -32.3861361 Eh     change       -0.6375444E-05 Eh
   gradient norm :     0.0007725 Eh/α   predicted    -0.3205395E-05 ( -49.72%)
   displ. norm   :     0.0450101 α      lambda       -0.3195347E-05
   maximum displ.:     0.0353338 α      in ANC's #4, #9, #5, ...

........................................................................
.............................. CYCLE   27 ..............................
........................................................................

 iter      E             dE          RMSdq      gap      omega  full diag
   1    -32.8073967 -0.328074E+02  0.129E-02    3.76       0.0  T
   2    -32.8073967 -0.658250E-08  0.767E-03    3.76       2.7  T
   3    -32.8073967  0.724128E-09  0.527E-04    3.76      38.7  T
   4    -32.8073967 -0.399244E-08  0.249E-04    3.76      82.0  T
     SCC iter.                  ...        0 min,  0.005 sec
     gradient                   ...        0 min,  0.002 sec
 * total energy  :   -32.3861395 Eh     change       -0.3404368E-05 Eh
   gradient norm :     0.0006638 Eh/α   predicted    -0.1606652E-05 ( -52.81%)
   displ. norm   :     0.0330279 α      lambda       -0.2145076E-05
   maximum displ.:     0.0257570 α      in ANC's #4, #5, #1, ...

   *** GEOMETRY OPTIMIZATION CONVERGED AFTER 27 ITERATIONS ***

------------------------------------------------------------------------
 total energy gain   :        -0.0249535 Eh      -15.6585 kcal/mol
 total RMSD          :         0.6196094 a0        0.3279 Å
 total power (kW/mol):        -2.4264936 (step) -187.6155 (real)
------------------------------------------------------------------------

 ANCopt (total)                0 d,  0 h,  0 min,  0.349 sec
 optimizer setup                ...        0 min,  0.000 sec (  0.033%)
 model hessian                  ...        0 min,  0.020 sec (  5.808%)
 ANC generation                 ...        0 min,  0.002 sec (  0.712%)
 coordinate transformation      ...        0 min,  0.000 sec (  0.065%)
 single point calculation       ...        0 min,  0.306 sec ( 87.553%)
 optimization log               ...        0 min,  0.010 sec (  2.945%)
 hessian update                 ...        0 min,  0.005 sec (  1.404%)
 rational function              ...        0 min,  0.002 sec (  0.695%)

================
 final structure:
================
24
 xtb: 6.7.1 (edcfbbe)
C           -2.95487460028374        1.23902869506660       -0.42003167151034
C           -2.57449523688459       -0.15732897079485        0.05966240729611
C           -1.18202785181384       -0.60930156374407       -0.39329190773895
C           -0.98680415972061       -2.09981156021319       -0.12071910823021
C           -0.08803997156602        0.19028904612051        0.31044899665812
O            1.17381085836354       -0.15270643980049       -0.26032842871532
C            2.21209877558062        0.61783802586516        0.08171725310668
O            2.13183688774874        1.55820983267554        0.83365449715408
C            3.44871374409270        0.16006816482947       -0.59040338354205
C            4.60542985133363        0.77482299083718       -0.39463383670776
H           -2.32551463419847        1.99986951872595        0.03308117810858
H           -2.85741752614666        1.31044662666066       -1.50157253711618
H           -3.98722264896619        1.45559024353600       -0.15570940847364
H           -3.30348904750225       -0.87061986752517       -0.33074279171561
H           -2.62640508637973       -0.19580904882230        1.14993350382106
H           -1.08286062786062       -0.43362613840895       -1.46965047076261
H            0.01459120702937       -2.40536372241861       -0.41161114505172
H           -1.70722836843066       -2.68837809555023       -0.68348811824864
H           -1.12022404341158       -2.31098692210785        0.93836022406901
H           -0.23579338447209        1.26886017405264        0.19679926026935
H           -0.06604173901751       -0.03875579122445        1.38246664435030
H            3.33576398195916       -0.69567420253520       -1.23863565186268
H            5.51588492922820        0.45749774265983       -0.87340465488926
H            4.66030769131840        1.62584326211591        0.26477614973154
 
 Bond Distances (Angstroems)
 ---------------------------
C1-C2=1.5247         C1-H11=1.0864        C1-H12=1.0883        C1-H13=1.0874        C2-C1=1.5247         C2-C3=1.5325         
C2-H14=1.0921        C2-H15=1.0922        C3-C2=1.5325         C3-C4=1.5278         C3-C5=1.5269         C3-H16=1.0951        
C4-C3=1.5278         C4-H17=1.0866        C4-H18=1.0873        C4-H19=1.0881        C5-C3=1.5269         C5-O6=1.4268         
C5-H20=1.0946        C5-H21=1.0964        O6-C5=1.4268         O6-C7=1.3375         C7-O6=1.3375         C7-O8=1.2067         
C7-C9=1.4800         O8-C7=1.2067         C9-C7=1.4800         C9-C10=1.3245        C9-H22=1.0795        C10-C9=1.3245        
C10-H23=1.0765       C10-H24=1.0780       H11-C1=1.0864        H12-C1=1.0883        H13-C1=1.0874        H14-C2=1.0921        
H15-C2=1.0922        H16-C3=1.0951        H17-C4=1.0866        H18-C4=1.0873        H19-C4=1.0881        H20-C5=1.0946        
H21-C5=1.0964        H22-C9=1.0795        H23-C10=1.0765       H24-C10=1.0780       
 C  H  Rav=1.0877 sigma=0.0060  Rmin=1.0765  Rmax=1.0964    14
 C  C  Rav=1.4860 sigma=0.0744  Rmin=1.3245  Rmax=1.5325     6
 O  C  Rav=1.3236 sigma=0.0904  Rmin=1.2067  Rmax=1.4268     3
 
 selected bond angles (degree)
 --------------------
H11-C1-C2=111.45               H12-C1-C2=110.51               H12-C1-H11=108.46              H13-C1-C2=110.05               
H13-C1-H11=108.01              H13-C1-H12=108.27              C3-C2-C1=113.82                H14-C2-C1=108.61               
H14-C2-C3=107.95               H15-C2-C1=109.54               H15-C2-C3=109.14               H15-C2-H14=107.59              
C4-C3-C2=110.56                C5-C3-C2=111.12                C5-C3-C4=109.70                H16-C3-C2=109.00               
H16-C3-C4=108.68               H16-C3-C5=107.71               H17-C4-C3=110.14               H18-C4-C3=110.56               
H18-C4-H17=108.65              H19-C4-C3=110.32               H19-C4-H17=108.60              H19-C4-H18=108.51              
O6-C5-C3=108.87                H20-C5-C3=111.81               H20-C5-O6=108.34               H21-C5-C3=110.83               
H21-C5-O6=108.85               H21-C5-H20=108.06              C7-O6-C5=116.47                O8-C7-O6=123.83                
C9-C7-O6=110.75                C9-C7-O8=125.42                C10-C9-C7=121.27               H22-C9-C7=115.50               
H22-C9-C10=123.24              H23-C10-C9=122.42              H24-C10-C9=120.09              H24-C10-H23=117.50             
 
 selected dihedral angles (degree)
 ---------------------------------
C3-C2-C1-H11=293.84           C3-C2-C1-H12= 54.52           C3-C2-C1-H13=174.05           H14-C2-C1-H11=173.57          
H14-C2-C1-H12=294.25          H14-C2-C1-H13= 53.77          H15-C2-C1-H11= 56.32          H15-C2-C1-H12=177.00          
H15-C2-C1-H13=296.53          C4-C3-C2-C1=191.38            C4-C3-C2-H14=312.03           C4-C3-C2-H15= 68.69           
C5-C3-C2-C1= 69.32            C5-C3-C2-H14=189.97           C5-C3-C2-H15=306.62           H16-C3-C2-C1=310.78           
H16-C3-C2-H14= 71.43          H16-C3-C2-H15=188.08          H17-C4-C3-C2=182.01           H17-C4-C3-C5=304.90           
H17-C4-C3-H16= 62.42          H18-C4-C3-C2= 61.92           H18-C4-C3-C5=184.81           H18-C4-C3-H16=302.33          
H19-C4-C3-C2=301.89           H19-C4-C3-C5= 64.78           H19-C4-C3-H16=182.30          O6-C5-C3-C2=186.94            
O6-C5-C3-C4= 64.38            O6-C5-C3-H16=306.25           H20-C5-C3-C2=306.61           H20-C5-C3-C4=184.05           
H20-C5-C3-H16= 65.92          H21-C5-C3-C2= 67.24           H21-C5-C3-C4=304.68           H21-C5-C3-H16=186.55          
C7-O6-C5-C3=169.05            C7-O6-C5-H20= 47.26           C7-O6-C5-H21=289.97           O8-C7-O6-C5=  0.33            
C9-C7-O6-C5=180.61            C10-C9-C7-O6=180.23           C10-C9-C7-O8=  0.52           H22-C9-C7-O6=  0.24           
H22-C9-C7-O8=180.52           H23-C10-C9-C7=179.98          H23-C10-C9-H22=359.97         H24-C10-C9-C7=  0.00          
H24-C10-C9-H22=180.02         
           -------------------------------------------------
          |                Final Singlepoint                |
           -------------------------------------------------

          ...................................................
          :                      SETUP                      :
          :.................................................:
          :  # basis functions                  54          :
          :  # atomic orbitals                  54          :
          :  # shells                           34          :
          :  # electrons                        58          :
          :  max. iterations                   250          :
          :  Hamiltonian                  GFN2-xTB          :
          :  restarted?                      false          :
          :  GBSA solvation                  false          :
          :  PC potential                    false          :
          :  electronic temp.          300.0000000     K    :
          :  accuracy                    1.0000000          :
          :  -> integral cutoff          0.2500000E+02      :
          :  -> integral neglect         0.1000000E-07      :
          :  -> SCF convergence          0.1000000E-05 Eh   :
          :  -> wf. convergence          0.1000000E-03 e    :
          :  Broyden damping             0.4000000          :
          :  net charge                          0          :
          :  unpaired electrons                  0          :
          ...................................................

 iter      E             dE          RMSdq      gap      omega  full diag
   1    -32.8073967 -0.328074E+02  0.937E-05    3.76       0.0  T
   2    -32.8073967 -0.229861E-10  0.630E-05    3.76     323.8  T
   3    -32.8073967 -0.175007E-10  0.425E-05    3.76     480.0  T

   *** convergence criteria satisfied after 3 iterations ***

         #    Occupation            Energy/Eh            Energy/eV
      -------------------------------------------------------------
         1        2.0000           -0.7380684             -20.0839
       ...           ...                  ...                  ...
        23        2.0000           -0.4510551             -12.2738
        24        2.0000           -0.4490336             -12.2188
        25        2.0000           -0.4381058             -11.9215
        26        2.0000           -0.4361054             -11.8670
        27        2.0000           -0.4321977             -11.7607
        28        2.0000           -0.4307011             -11.7200
        29        2.0000           -0.4116457             -11.2014 (HOMO)
        30                         -0.2733829              -7.4391 (LUMO)
        31                         -0.1633215              -4.4442
        32                          0.0034723               0.0945
        33                          0.0704159               1.9161
        34                          0.0829924               2.2583
       ...                                ...                  ...
        54                          0.7086214              19.2826
      -------------------------------------------------------------
                  HL-Gap            0.1382627 Eh            3.7623 eV
             Fermi-level           -0.3425143 Eh           -9.3203 eV

 SCC (total)                   0 d,  0 h,  0 min,  0.008 sec
 SCC setup                      ...        0 min,  0.001 sec ( 13.119%)
 Dispersion                     ...        0 min,  0.000 sec (  1.322%)
 classical contributions        ...        0 min,  0.000 sec (  2.678%)
 integral evaluation            ...        0 min,  0.001 sec (  6.228%)
 iterations                     ...        0 min,  0.004 sec ( 41.588%)
 molecular gradient             ...        0 min,  0.002 sec ( 20.930%)
 printout                       ...        0 min,  0.001 sec ( 13.876%)

         :::::::::::::::::::::::::::::::::::::::::::::::::::::
         ::                     SUMMARY                     ::
         :::::::::::::::::::::::::::::::::::::::::::::::::::::
         :: total energy             -32.386139496706 Eh    ::
         :: gradient norm              0.000664164835 Eh/a0 ::
         :: HOMO-LUMO gap              3.762320265509 eV    ::
         ::.................................................::
         :: SCC energy               -32.807399347766 Eh    ::
         :: -> isotropic ES            0.047135070718 Eh    ::
         :: -> anisotropic ES          0.003136145774 Eh    ::
         :: -> anisotropic XC          0.012565508627 Eh    ::
         :: -> dispersion             -0.015740982329 Eh    ::
         :: repulsion energy           0.421259851060 Eh    ::
         :: add. restraining           0.000000000000 Eh    ::
         :: total charge               0.000000000000 e     ::
         :::::::::::::::::::::::::::::::::::::::::::::::::::::

           -------------------------------------------------
          |                Property Printout                |
           -------------------------------------------------

    * Orbital Energies and Occupations

         #    Occupation            Energy/Eh            Energy/eV
      -------------------------------------------------------------
         1        2.0000           -0.7380684             -20.0839
       ...           ...                  ...                  ...
        17        2.0000           -0.4990178             -13.5790
        18        2.0000           -0.4917551             -13.3813
        19        2.0000           -0.4872072             -13.2576
        20        2.0000           -0.4818440             -13.1116
        21        2.0000           -0.4619995             -12.5716
        22        2.0000           -0.4603081             -12.5256
        23        2.0000           -0.4510551             -12.2738
        24        2.0000           -0.4490336             -12.2188
        25        2.0000           -0.4381058             -11.9215
        26        2.0000           -0.4361054             -11.8670
        27        2.0000           -0.4321977             -11.7607
        28        2.0000           -0.4307011             -11.7200
        29        2.0000           -0.4116457             -11.2014 (HOMO)
        30                         -0.2733829              -7.4391 (LUMO)
        31                         -0.1633215              -4.4442
        32                          0.0034723               0.0945
        33                          0.0704159               1.9161
        34                          0.0829924               2.2583
        35                          0.1125140               3.0617
        36                          0.1248372               3.3970
        37                          0.1261928               3.4339
        38                          0.1331294               3.6226
        39                          0.1355547               3.6886
        40                          0.1616092               4.3976
       ...                                ...                  ...
        54                          0.7086214              19.2826
      -------------------------------------------------------------
                  HL-Gap            0.1382627 Eh            3.7623 eV
             Fermi-level           -0.3425143 Eh           -9.3203 eV

     #   Z          covCN         q      C6AA      α(0)
     1   6 C        3.751    -0.107    22.601     6.780
     2   6 C        3.804    -0.063    21.708     6.633
     3   6 C        3.850    -0.021    20.906     6.503
     4   6 C        3.757    -0.110    22.657     6.787
     5   6 C        3.708     0.079    19.398     6.295
     6   8 O        1.705    -0.265    18.398     5.791
     7   6 C        2.727     0.355    20.973     7.497
     8   8 O        0.856    -0.416    22.011     6.290
     9   6 C        2.887    -0.059    29.456     8.898
    10   6 C        2.841    -0.060    29.482     8.898
    11   1 H        0.925     0.036     2.505     2.475
    12   1 H        0.925     0.038     2.478     2.462
    13   1 H        0.925     0.040     2.449     2.447
    14   1 H        0.924     0.042     2.422     2.434
    15   1 H        0.924     0.035     2.518     2.482
    16   1 H        0.924     0.046     2.367     2.406
    17   1 H        0.925     0.049     2.327     2.386
    18   1 H        0.925     0.039     2.459     2.452
    19   1 H        0.925     0.038     2.470     2.458
    20   1 H        0.924     0.054     2.275     2.359
    21   1 H        0.924     0.046     2.366     2.406
    22   1 H        0.926     0.063     2.168     2.302
    23   1 H        0.926     0.062     2.177     2.307
    24   1 H        0.926     0.078     1.997     2.210

 Mol. C6AA /au·bohr⁶  :       4743.579059
 Mol. C8AA /au·bohr⁸  :     103539.438343
 Mol. α(0) /au        :        103.958111


Wiberg/Mayer (AO) data.
largest (>0.10) Wiberg bond orders for each atom

 ---------------------------------------------------------------------------
     #   Z sym  total        # sym  WBO       # sym  WBO       # sym  WBO
 ---------------------------------------------------------------------------
     1   6 C    3.996 --     2 C    1.020    12 H    0.987    13 H    0.987
                            11 H    0.985
     2   6 C    3.996 --     1 C    1.020     3 C    0.995    15 H    0.977
                            14 H    0.976
     3   6 C    3.992 --     4 C    1.008     2 C    0.995     5 C    0.994
                            16 H    0.966
     4   6 C    3.995 --     3 C    1.008    19 H    0.987    18 H    0.986
                            17 H    0.985
     5   6 C    3.925 --     3 C    0.994    21 H    0.966    20 H    0.964
                             6 O    0.939
     6   8 O    2.310 --     7 C    1.128     5 C    0.939     8 O    0.175
     7   6 C    3.921 --     8 O    1.722     6 O    1.128     9 C    1.009
     8   8 O    2.030 --     7 C    1.722     6 O    0.175
     9   6 C    3.988 --    10 C    1.933     7 C    1.009    22 H    0.965
    10   6 C    3.982 --     9 C    1.933    23 H    0.975    24 H    0.970
    11   1 H    0.999 --     1 C    0.985
    12   1 H    0.999 --     1 C    0.987
    13   1 H    0.998 --     1 C    0.987
    14   1 H    0.998 --     2 C    0.976
    15   1 H    0.999 --     2 C    0.977
    16   1 H    0.998 --     3 C    0.966
    17   1 H    0.997 --     4 C    0.985
    18   1 H    0.998 --     4 C    0.986
    19   1 H    0.999 --     4 C    0.987
    20   1 H    0.997 --     5 C    0.964
    21   1 H    0.998 --     5 C    0.966
    22   1 H    0.996 --     9 C    0.965
    23   1 H    0.995 --    10 C    0.975
    24   1 H    0.994 --    10 C    0.970
 ---------------------------------------------------------------------------

Topologies differ in total number of bonds
Writing topology from bond orders to xtbtopo.mol

molecular dipole:
                 x           y           z       tot (Debye)
 q only:       -0.246      -0.619      -0.482
   full:       -0.209      -0.669      -0.510       2.203
molecular quadrupole (traceless):
                xx          xy          yy          xz          yz          zz
 q only:        8.332      -2.625      -5.008      -4.164      -2.236      -3.324
  q+dip:        7.771      -2.904      -5.958      -4.699      -2.225      -1.813
   full:        7.590      -3.477      -5.720      -4.538      -3.399      -1.870

           -------------------------------------------------
          |                Geometry Summary                 |
           -------------------------------------------------

      molecular mass/u    :      142.1958675
   center of mass at/Å    :        0.5404056       0.1571251      -0.0785587
  moments of inertia/u·Å² :        0.1762616E+03   0.8859465E+03   0.9996257E+03
rotational constants/cm⁻¹ :        0.9563983E-01   0.1902782E-01   0.1686394E-01

 * 22 selected distances

     #   Z          #   Z                                           value/Å
     1   6 C        2   6 C                                       1.5246672
     2   6 C        3   6 C                                       1.5324532 (max)
     3   6 C        4   6 C                                       1.5277528
     3   6 C        5   6 C                                       1.5268943
     5   6 C        6   8 O                                       1.4267798
     6   8 O        7   6 C                                       1.3374514
     7   6 C        8   8 O                                       1.2067108
     9   6 C       10   6 C                                       1.3244779
     1   6 C       11   1 H                                       1.0864089
     1   6 C       12   1 H                                       1.0882689
     1   6 C       13   1 H                                       1.0874318
     2   6 C       14   1 H                                       1.0920771
     2   6 C       15   1 H                                       1.0921843
     3   6 C       16   1 H                                       1.0951000
     4   6 C       17   1 H                                       1.0866339
     4   6 C       18   1 H                                       1.0872584
     4   6 C       19   1 H                                       1.0881384
     5   6 C       20   1 H                                       1.0945607
     5   6 C       21   1 H                                       1.0964340
     9   6 C       22   1 H                                       1.0794711
    10   6 C       23   1 H                                       1.0764969 (min)
    10   6 C       24   1 H                                       1.0779930

 * 3 distinct bonds (by element types)

   Z      Z             #   av. dist./Å        max./Å        min./Å
   1 H    6 C          14     1.0877470     1.0964340     1.0764969
   6 C    6 C           5     1.4872491     1.5324532     1.3244779
   6 C    8 O           3     1.3236473     1.4267798     1.2067108


optimized geometry written to: xtbopt.xyz


           -------------------------------------------------
          | TOTAL ENERGY              -32.386139496706 Eh   |
          | GRADIENT NORM               0.000664164835 Eh/α |
          | HOMO-LUMO GAP               3.762320265509 eV   |
           -------------------------------------------------

------------------------------------------------------------------------
 * finished run on 2025/12/01 at 14:17:52.564     
------------------------------------------------------------------------
 total:
 * wall-time:     0 d,  0 h,  0 min,  0.441 sec
 *  cpu-time:     0 d,  0 h,  0 min,  9.254 sec
 * ratio c/w:    21.003 speedup
 SCF:
 * wall-time:     0 d,  0 h,  0 min,  0.029 sec
 *  cpu-time:     0 d,  0 h,  0 min,  0.659 sec
 * ratio c/w:    22.546 speedup
 ANC optimizer:
 * wall-time:     0 d,  0 h,  0 min,  0.359 sec
 *  cpu-time:     0 d,  0 h,  0 min,  8.107 sec
 * ratio c/w:    22.598 speedup

normal termination of xtb
