      -----------------------------------------------------------      
     |                   =====================                   |     
     |                           x T B                           |     
     |                   =====================                   |     
     |                         S. Grimme                         |     
     |          Mulliken Center for Theoretical Chemistry        |     
     |                    University of Bonn                     |     
      -----------------------------------------------------------      

   * xtb version 6.7.1 (edcfbbe) compiled by 'albert@albert-system' on 2024-07-22

   xtb is free software: you can redistribute it and/or modify it under
   the terms of the GNU Lesser General Public License as published by
   the Free Software Foundation, either version 3 of the License, or
   (at your option) any later version.
   
   xtb is distributed in the hope that it will be useful,
   but WITHOUT ANY WARRANTY; without even the implied warranty of
   MERCHANTABILITY or FITNESS FOR A PARTICULAR PURPOSE.  See the
   GNU Lesser General Public License for more details.
   
   Cite this work as:
   * C. Bannwarth, E. Caldeweyher, S. Ehlert, A. Hansen, P. Pracht,
     J. Seibert, S. Spicher, S. Grimme, WIREs Comput. Mol. Sci., 2020, 11,
     e01493. DOI: 10.1002/wcms.1493
   
   for GFN2-xTB:
   * C. Bannwarth, S. Ehlert and S. Grimme., J. Chem. Theory Comput., 2019,
     15, 1652-1671. DOI: 10.1021/acs.jctc.8b01176
   for GFN1-xTB:
   * S. Grimme, C. Bannwarth, P. Shushkov, J. Chem. Theory Comput., 2017,
     13, 1989-2009. DOI: 10.1021/acs.jctc.7b00118
   for GFN0-xTB:
   * P. Pracht, E. Caldeweyher, S. Ehlert, S. Grimme, ChemRxiv, 2019, preprint.
     DOI: 10.26434/chemrxiv.8326202.v1
   for GFN-FF:
   * S. Spicher and S. Grimme, Angew. Chem. Int. Ed., 2020, 59, 15665-15673.
     DOI: 10.1002/anie.202004239
   
   for ALPB and GBSA implicit solvation:
   * S. Ehlert, M. Stahn, S. Spicher, S. Grimme, J. Chem. Theory Comput.,
     2021, 17, 4250-4261. DOI: 10.1021/acs.jctc.1c00471
   
   for ddCOSMO and CPCM-X implicit solvation:
   * M. Stahn, S. Ehlert, S. Grimme, J. Phys. Chem. A,
     2023, XX, XXXX-XXXX. DOI: 10.1021/acs.jpca.3c04382
   
   for DFT-D4:
   * E. Caldeweyher, C. Bannwarth and S. Grimme, J. Chem. Phys., 2017,
     147, 034112. DOI: 10.1063/1.4993215
   * E. Caldeweyher, S. Ehlert, A. Hansen, H. Neugebauer, S. Spicher,
     C. Bannwarth and S. Grimme, J. Chem. Phys., 2019, 150, 154122.
     DOI: 10.1063/1.5090222
   * E. Caldeweyher, J.-M. Mewes, S. Ehlert and S. Grimme, Phys. Chem. Chem. Phys.
     2020, 22, 8499-8512. DOI: 10.1039/D0CP00502A
   
   for sTDA-xTB:
   * S. Grimme and C. Bannwarth, J. Chem. Phys., 2016, 145, 054103.
     DOI: 10.1063/1.4959605
   
   in the mass-spec context:
   * V. Asgeirsson, C. Bauer and S. Grimme, Chem. Sci., 2017, 8, 4879.
     DOI: 10.1039/c7sc00601b
   * J. Koopman and S. Grimme, ACS Omega 2019, 4, 12, 15120-15133.
     DOI: 10.1021/acsomega.9b02011
   
   for metadynamics refer to:
   * S. Grimme, J. Chem. Theory Comput., 2019, 155, 2847-2862
     DOI: 10.1021/acs.jctc.9b00143
   
   for SPH calculations refer to:
   * S. Spicher and S. Grimme, J. Chem. Theory Comput., 2021, 17, 1701-1714
     DOI: 10.1021/acs.jctc.0c01306
   
   for ONIOM refer to:
   * C. Plett, A. Katbashev, S. Ehlert, S. Grimme, M. Bursch,
     Phys. Chem. Chem. Phys., 2023, 25, 17860-17868. DOI: 10.1039/D3CP02178E
   
   for DIPRO refer to:
   * J. Kohn, N. Gildemeister, S. Grimme, D. Fazzi, A. Hansen,
     J. Chem. Phys., 2023, just accepted.
   
   for PTB refer to:
   * S. Grimme, M. Mueller, A. Hansen, J. Chem. Phys., 2023, 158, 124111.
     DOI: 10.1063/5.0137838
   
   with help from (in alphabetical order)
   P. Atkinson, C. Bannwarth, F. Bohle, G. Brandenburg, E. Caldeweyher
   M. Checinski, S. Dohm, S. Ehlert, S. Ehrlich, I. Gerasimov, C. Hölzer
   A. Katbashev, J. Kohn, J. Koopman, C. Lavigne, S. Lehtola, F. März, M. Müller,
   F. Musil, H. Neugebauer, J. Pisarek, C. Plett, P. Pracht, F. Pultar,
   J. Seibert, P. Shushkov, S. Spicher, M. Stahn, M. Steiner, T. Strunk,
   J. Stückrath, T. Rose, and J. Unsleber
   
 * started run on 2025/12/01 at 14:17:51.573     
   ID    Z sym.   atoms
    1    6 C      1-5, 7, 9, 10
    2    8 O      6, 8
    3    1 H      11-24

           -------------------------------------------------
          |                Calculation Setup                |
           -------------------------------------------------

          program call               : xtb pipeline_data/3_conformer_xyz/acrylates/rdkit/NCTBYWFEJFTVEL-ZETCQYMHSA-N_conf235.xyz --opt --gfn 2-xTB --iterations 250
          coordinate file            : pipeline_data/3_conformer_xyz/acrylates/rdkit/NCTBYWFEJFTVEL-ZETCQYMHSA-N_conf235.xyz
          omp threads                :                    24

########################################################################
[WARNING] Please study the warnings concerning your input carefully
-1- readin_getIntValue: could not parse '2-xTB'
########################################################################

           -------------------------------------------------
          |                 G F N 2 - x T B                 |
           -------------------------------------------------

        Reference                      10.1021/acs.jctc.8b01176
      * Hamiltonian:
        H0-scaling (s, p, d)           1.850000    2.230000    2.230000
        zeta-weighting                 0.500000
      * Dispersion:
        s8                             2.700000
        a1                             0.520000
        a2                             5.000000
        s9                             5.000000
      * Repulsion:
        kExp                           1.500000    1.000000
        rExp                           1.000000
      * Coulomb:
        alpha                          2.000000
        third order                    shell-resolved
        anisotropic                    true
        a3                             3.000000
        a5                             4.000000
        cn-shift                       1.200000
        cn-exp                         4.000000
        max-rad                        5.000000

q/qsh data taken from xtbrestart
CAMM data taken from xtbrestart

          ...................................................
          :                      SETUP                      :
          :.................................................:
          :  # basis functions                  54          :
          :  # atomic orbitals                  54          :
          :  # shells                           34          :
          :  # electrons                        58          :
          :  max. iterations                   250          :
          :  Hamiltonian                  GFN2-xTB          :
          :  restarted?                       true          :
          :  GBSA solvation                  false          :
          :  PC potential                    false          :
          :  electronic temp.          300.0000000     K    :
          :  accuracy                    1.0000000          :
          :  -> integral cutoff          0.2500000E+02      :
          :  -> integral neglect         0.1000000E-07      :
          :  -> SCF convergence          0.1000000E-05 Eh   :
          :  -> wf. convergence          0.1000000E-03 e    :
          :  Broyden damping             0.4000000          :
          :  net charge                          0          :
          :  unpaired electrons                  0          :
          ...................................................

 iter      E             dE          RMSdq      gap      omega  full diag
   1    -32.7445440 -0.327445E+02  0.524E+00    3.59       0.0  T
   2    -32.7489099 -0.436592E-02  0.311E+00    3.29       1.0  T
   3    -32.7411302  0.777973E-02  0.736E-01    3.58       1.0  T
   4    -32.7505436 -0.941345E-02  0.162E-01    3.40       1.0  T
   5    -32.7507403 -0.196741E-03  0.832E-02    3.40       1.0  T
   6    -32.7507470 -0.662546E-05  0.278E-02    3.41       1.0  T
   7    -32.7507563 -0.930561E-05  0.625E-03    3.41       3.3  T
   8    -32.7507564 -0.904632E-07  0.322E-03    3.41       6.3  T
   9    -32.7507564 -0.198456E-07  0.670E-04    3.41      30.5  T
  10    -32.7507564 -0.578240E-09  0.242E-04    3.41      84.3  T

   *** convergence criteria satisfied after 10 iterations ***

         #    Occupation            Energy/Eh            Energy/eV
      -------------------------------------------------------------
         1        2.0000           -0.7282467             -19.8166
       ...           ...                  ...                  ...
        23        2.0000           -0.4545696             -12.3695
        24        2.0000           -0.4398900             -11.9700
        25        2.0000           -0.4368055             -11.8861
        26        2.0000           -0.4323214             -11.7641
        27        2.0000           -0.4275851             -11.6352
        28        2.0000           -0.4228810             -11.5072
        29        2.0000           -0.4109286             -11.1819 (HOMO)
        30                         -0.2857699              -7.7762 (LUMO)
        31                         -0.1718388              -4.6760
        32                         -0.0228081              -0.6206
        33                          0.0644061               1.7526
        34                          0.0813215               2.2129
       ...                                ...                  ...
        54                          0.6144126              16.7190
      -------------------------------------------------------------
                  HL-Gap            0.1251587 Eh            3.4057 eV
             Fermi-level           -0.3483492 Eh           -9.4791 eV

 SCC (total)                   0 d,  0 h,  0 min,  0.019 sec
 SCC setup                      ...        0 min,  0.000 sec (  1.465%)
 Dispersion                     ...        0 min,  0.000 sec (  1.388%)
 classical contributions        ...        0 min,  0.000 sec (  0.341%)
 integral evaluation            ...        0 min,  0.001 sec (  3.542%)
 iterations                     ...        0 min,  0.016 sec ( 81.390%)
 molecular gradient             ...        0 min,  0.002 sec ( 10.885%)
 printout                       ...        0 min,  0.000 sec (  0.838%)

         :::::::::::::::::::::::::::::::::::::::::::::::::::::
         ::                     SUMMARY                     ::
         :::::::::::::::::::::::::::::::::::::::::::::::::::::
         :: total energy             -32.361408446984 Eh    ::
         :: gradient norm              0.137891185504 Eh/a0 ::
         :: HOMO-LUMO gap              3.405740959337 eV    ::
         ::.................................................::
         :: SCC energy               -32.750738128604 Eh    ::
         :: -> isotropic ES            0.049982496792 Eh    ::
         :: -> anisotropic ES          0.003009469372 Eh    ::
         :: -> anisotropic XC          0.013349306363 Eh    ::
         :: -> dispersion             -0.015950012831 Eh    ::
         :: repulsion energy           0.389329681620 Eh    ::
         :: add. restraining           0.000000000000 Eh    ::
         :: total charge               0.000000000000 e     ::
         :::::::::::::::::::::::::::::::::::::::::::::::::::::

      ----------------------------------------------------------- 
     |                   =====================                   |
     |                        A N C O P T                        |
     |                   =====================                   |
     |               Approximate Normal Coordinate               |
     |                Rational Function Optimizer                |
      ----------------------------------------------------------- 
      ----------------------------------------------------------- 
     |                   =====================                   |
     |                        A N C O P T                        |
     |                   =====================                   |
     |               Approximate Normal Coordinate               |
     |                Rational Function Optimizer                |
      ----------------------------------------------------------- 

          ...................................................
          :                      SETUP                      :
          :.................................................:
          :   optimization level            normal          :
          :   max. optcycles                   200          :
          :   ANC micro-cycles                  20          :
          :   degrees of freedom                66          :
          :.................................................:
          :   RF solver                   davidson          :
          :   write xtbopt.log                true          :
          :   linear?                        false          :
          :   energy convergence         0.5000000E-05 Eh   :
          :   grad. convergence          0.1000000E-02 Eh/α :
          :   maxmium RF displ.          1.0000000          :
          :   Hlow (freq-cutoff)         0.1000000E-01      :
          :   Hmax (freq-cutoff)         5.0000000          :
          :   S6 in model hess.         20.0000000          :
          ...................................................

generating ANC from exact Hessian ...
Using Lindh-Hessian (1995)
 Shifting diagonal of input Hessian by   9.131437205060957E-003
 Lowest  eigenvalues of input Hessian
    0.000000    0.000000    0.000000    0.000000    0.000000    0.000000
    0.010000    0.010708    0.010890    0.013012    0.014376    0.015370
    0.016846    0.019155    0.021001    0.021867    0.023409    0.028113
 Highest eigenvalues
    1.311482    1.354267    1.458286    1.765476    2.007646    2.115553
 

........................................................................
.............................. CYCLE    1 ..............................
........................................................................

 iter      E             dE          RMSdq      gap      omega  full diag
   1    -32.7507564 -0.327508E+02  0.518E-05    3.41       0.0  T
   2    -32.7507564 -0.270006E-11  0.312E-05    3.41     653.9  T
   3    -32.7507564  0.255795E-12  0.114E-05    3.41    1786.2  T
     SCC iter.                  ...        0 min,  0.003 sec
     gradient                   ...        0 min,  0.002 sec
 * total energy  :   -32.3614084 Eh     change       -0.1739124E-09 Eh
   gradient norm :     0.1378926 Eh/α   predicted     0.0000000E+00 (-100.00%)
   displ. norm   :     0.3919912 α      lambda       -0.2576400E-01
   maximum displ.:     0.2106244 α      in ANC's #18, #14, #15, ...

........................................................................
.............................. CYCLE    2 ..............................
........................................................................

 iter      E             dE          RMSdq      gap      omega  full diag
   1    -32.7877980 -0.327878E+02  0.328E-01    3.55       0.0  T
   2    -32.7880331 -0.235015E-03  0.199E-01    3.61       1.0  T
   3    -32.7879116  0.121453E-03  0.110E-01    3.61       1.0  T
   4    -32.7880617 -0.150060E-03  0.345E-02    3.62       1.0  T
   5    -32.7880809 -0.192631E-04  0.750E-03    3.61       2.7  T
   6    -32.7880813 -0.373737E-06  0.382E-03    3.62       5.3  T
   7    -32.7880814 -0.493421E-07  0.935E-04    3.61      21.8  T
   8    -32.7880814 -0.170591E-08  0.350E-04    3.61      58.4  T
     SCC iter.                  ...        0 min,  0.008 sec
     gradient                   ...        0 min,  0.002 sec
 * total energy  :   -32.3792603 Eh     change       -0.1785185E-01 Eh
   gradient norm :     0.0578407 Eh/α   predicted    -0.1487645E-01 ( -16.67%)
   displ. norm   :     0.3427483 α      lambda       -0.8287512E-02
   maximum displ.:     0.1886213 α      in ANC's #15, #14, #18, ...

........................................................................
.............................. CYCLE    3 ..............................
........................................................................

 iter      E             dE          RMSdq      gap      omega  full diag
   1    -32.8050635 -0.328051E+02  0.188E-01    3.71       0.0  T
   2    -32.8051832 -0.119770E-03  0.115E-01    3.77       1.0  T
   3    -32.8051525  0.307663E-04  0.723E-02    3.76       1.0  T
   4    -32.8052020 -0.495846E-04  0.242E-02    3.77       1.0  T
   5    -32.8052100 -0.798971E-05  0.473E-03    3.77       4.3  T
   6    -32.8052102 -0.126534E-06  0.223E-03    3.77       9.2  T
   7    -32.8052102 -0.219410E-07  0.655E-04    3.77      31.2  T
   8    -32.8052102 -0.793008E-09  0.268E-04    3.77      76.1  T
     SCC iter.                  ...        0 min,  0.008 sec
     gradient                   ...        0 min,  0.002 sec
 * total energy  :   -32.3841172 Eh     change       -0.4856934E-02 Eh
   gradient norm :     0.0171601 Eh/α   predicted    -0.4630551E-02 (  -4.66%)
   displ. norm   :     0.2152272 α      lambda       -0.1315259E-02
   maximum displ.:     0.0976133 α      in ANC's #15, #4, #11, ...

........................................................................
.............................. CYCLE    4 ..............................
........................................................................

 iter      E             dE          RMSdq      gap      omega  full diag
   1    -32.8046241 -0.328046E+02  0.750E-02    3.78       0.0  T
   2    -32.8046331 -0.899967E-05  0.470E-02    3.78       1.0  T
   3    -32.8046258  0.730752E-05  0.261E-02    3.78       1.0  T
   4    -32.8046347 -0.888274E-05  0.775E-03    3.78       2.6  T
   5    -32.8046356 -0.902907E-06  0.146E-03    3.78      14.0  T
   6    -32.8046356 -0.375264E-08  0.542E-04    3.78      37.6  T
   7    -32.8046356 -0.742595E-09  0.210E-04    3.78      97.2  T
     SCC iter.                  ...        0 min,  0.007 sec
     gradient                   ...        0 min,  0.002 sec
 * total energy  :   -32.3849333 Eh     change       -0.8160814E-03 Eh
   gradient norm :     0.0100678 Eh/α   predicted    -0.6881377E-03 ( -15.68%)
   displ. norm   :     0.1979765 α      lambda       -0.5901855E-03
   maximum displ.:     0.1176493 α      in ANC's #4, #15, #3, ...

........................................................................
.............................. CYCLE    5 ..............................
........................................................................

 iter      E             dE          RMSdq      gap      omega  full diag
   1    -32.8042635 -0.328043E+02  0.667E-02    3.78       0.0  T
   2    -32.8042683 -0.477791E-05  0.404E-02    3.78       1.0  T
   3    -32.8042641  0.417046E-05  0.180E-02    3.78       1.1  T
   4    -32.8042686 -0.448375E-05  0.641E-03    3.78       3.2  T
   5    -32.8042693 -0.657741E-06  0.119E-03    3.78      17.2  T
   6    -32.8042693 -0.326668E-08  0.534E-04    3.78      38.2  T
   7    -32.8042693 -0.109401E-08  0.131E-04    3.78     156.2  T
     SCC iter.                  ...        0 min,  0.008 sec
     gradient                   ...        0 min,  0.002 sec
 * total energy  :   -32.3852245 Eh     change       -0.2911381E-03 Eh
   gradient norm :     0.0058720 Eh/α   predicted    -0.3066591E-03 (   5.33%)
   displ. norm   :     0.1249617 α      lambda       -0.2337163E-03
   maximum displ.:     0.0866265 α      in ANC's #4, #3, #2, ...

........................................................................
.............................. CYCLE    6 ..............................
........................................................................

 iter      E             dE          RMSdq      gap      omega  full diag
   1    -32.8053334 -0.328053E+02  0.479E-02    3.78       0.0  T
   2    -32.8053340 -0.654165E-06  0.285E-02    3.77       1.0  T
   3    -32.8053337  0.317107E-06  0.483E-03    3.77       4.2  T
   4    -32.8053341 -0.351415E-06  0.234E-03    3.77       8.7  T
   5    -32.8053342 -0.860840E-07  0.646E-04    3.77      31.6  T
   6    -32.8053342 -0.506915E-09  0.295E-04    3.77      69.2  T
     SCC iter.                  ...        0 min,  0.006 sec
     gradient                   ...        0 min,  0.002 sec
 * total energy  :   -32.3853767 Eh     change       -0.1522131E-03 Eh
   gradient norm :     0.0039379 Eh/α   predicted    -0.1186937E-03 ( -22.02%)
   displ. norm   :     0.1431406 α      lambda       -0.1425378E-03
   maximum displ.:     0.0981909 α      in ANC's #4, #3, #2, ...

........................................................................
.............................. CYCLE    7 ..............................
........................................................................

 iter      E             dE          RMSdq      gap      omega  full diag
   1    -32.8062808 -0.328063E+02  0.408E-02    3.77       0.0  T
   2    -32.8062810 -0.236908E-06  0.242E-02    3.77       1.0  T
   3    -32.8062810 -0.139159E-07  0.146E-03    3.77      13.9  T
   4    -32.8062811 -0.176578E-07  0.876E-04    3.77      23.3  T
   5    -32.8062811 -0.672110E-08  0.390E-04    3.77      52.4  T
     SCC iter.                  ...        0 min,  0.005 sec
     gradient                   ...        0 min,  0.002 sec
 * total energy  :   -32.3854796 Eh     change       -0.1029701E-03 Eh
   gradient norm :     0.0036808 Eh/α   predicted    -0.7273094E-04 ( -29.37%)
   displ. norm   :     0.1494612 α      lambda       -0.1001761E-03
   maximum displ.:     0.1021958 α      in ANC's #4, #3, #2, ...

........................................................................
.............................. CYCLE    8 ..............................
........................................................................

 iter      E             dE          RMSdq      gap      omega  full diag
   1    -32.8066432 -0.328066E+02  0.358E-02    3.76       0.0  T
   2    -32.8066440 -0.806028E-06  0.210E-02    3.77       1.0  T
   3    -32.8066439  0.974768E-07  0.432E-03    3.76       4.7  T
   4    -32.8066440 -0.112580E-06  0.158E-03    3.76      12.9  T
   5    -32.8066441 -0.405186E-07  0.428E-04    3.76      47.7  T
   6    -32.8066441 -0.166267E-08  0.240E-04    3.76      85.0  T
     SCC iter.                  ...        0 min,  0.011 sec
     gradient                   ...        0 min,  0.007 sec
 * total energy  :   -32.3855516 Eh     change       -0.7197305E-04 Eh
   gradient norm :     0.0026625 Eh/α   predicted    -0.5120934E-04 ( -28.85%)
   displ. norm   :     0.1229324 α      lambda       -0.5478036E-04
   maximum displ.:     0.0833035 α      in ANC's #4, #3, #2, ...

........................................................................
.............................. CYCLE    9 ..............................
........................................................................

 iter      E             dE          RMSdq      gap      omega  full diag
   1    -32.8065949 -0.328066E+02  0.287E-02    3.76       0.0  T
   2    -32.8065954 -0.499469E-06  0.168E-02    3.77       1.2  T
   3    -32.8065951  0.314944E-06  0.539E-03    3.76       3.8  T
   4    -32.8065954 -0.319324E-06  0.198E-03    3.77      10.3  T
   5    -32.8065955 -0.700515E-07  0.383E-04    3.77      53.3  T
   6    -32.8065955 -0.588280E-09  0.209E-04    3.77      97.5  T
     SCC iter.                  ...        0 min,  0.012 sec
     gradient                   ...        0 min,  0.005 sec
 * total energy  :   -32.3855898 Eh     change       -0.3814911E-04 Eh
   gradient norm :     0.0017800 Eh/α   predicted    -0.2780658E-04 ( -27.11%)
   displ. norm   :     0.1186125 α      lambda       -0.2329426E-04
   maximum displ.:     0.0829601 α      in ANC's #4, #3, #2, ...

........................................................................
.............................. CYCLE   10 ..............................
........................................................................

 iter      E             dE          RMSdq      gap      omega  full diag
   1    -32.8066865 -0.328067E+02  0.280E-02    3.77       0.0  T
   2    -32.8066868 -0.288684E-06  0.165E-02    3.77       1.2  T
   3    -32.8066861  0.705127E-06  0.689E-03    3.77       3.0  T
   4    -32.8066869 -0.793805E-06  0.131E-03    3.77      15.6  T
   5    -32.8066869 -0.247087E-07  0.383E-04    3.77      53.3  T
   6    -32.8066869 -0.216836E-09  0.146E-04    3.77     139.9  T
     SCC iter.                  ...        0 min,  0.011 sec
     gradient                   ...        0 min,  0.002 sec
 * total energy  :   -32.3856077 Eh     change       -0.1793637E-04 Eh
   gradient norm :     0.0013350 Eh/α   predicted    -0.1172082E-04 ( -34.65%)
   displ. norm   :     0.1203518 α      lambda        0.2166689E-04
   maximum displ.:     0.0841347 α      in ANC's #4, #3, #2, ...

........................................................................
.............................. CYCLE   11 ..............................
........................................................................

 iter      E             dE          RMSdq      gap      omega  full diag
   1    -32.8065211 -0.328065E+02  0.282E-02    3.77       0.0  T
   2    -32.8065214 -0.291189E-06  0.167E-02    3.77       1.2  T
   3    -32.8065207  0.705617E-06  0.689E-03    3.77       3.0  T
   4    -32.8065214 -0.794712E-06  0.134E-03    3.77      15.3  T
   5    -32.8065215 -0.255345E-07  0.393E-04    3.77      51.9  T
   6    -32.8065215 -0.235801E-09  0.151E-04    3.77     134.9  T
     SCC iter.                  ...        0 min,  0.006 sec
     gradient                   ...        0 min,  0.002 sec
 * total energy  :   -32.3855914 Eh     change        0.1634343E-04 Eh
   gradient norm :     0.0028654 Eh/α   predicted     0.1089938E-04 ( -33.31%)
   displ. norm   :     0.0727270 α      lambda       -0.2672656E-04
   maximum displ.:     0.0489798 α      in ANC's #4, #3, #2, ...

........................................................................
.............................. CYCLE   12 ..............................
........................................................................

 iter      E             dE          RMSdq      gap      omega  full diag
   1    -32.8068097 -0.328068E+02  0.177E-02    3.77       0.0  T
   2    -32.8068099 -0.253570E-06  0.103E-02    3.77       2.0  T
   3    -32.8068097  0.182480E-06  0.421E-03    3.77       4.9  T
   4    -32.8068099 -0.194190E-06  0.138E-03    3.77      14.8  T
   5    -32.8068100 -0.333800E-07  0.270E-04    3.77      75.5  T
   6    -32.8068100 -0.219543E-09  0.134E-04    3.77     152.1  T
     SCC iter.                  ...        0 min,  0.006 sec
     gradient                   ...        0 min,  0.002 sec
 * total energy  :   -32.3856098 Eh     change       -0.1840705E-04 Eh
   gradient norm :     0.0012710 Eh/α   predicted    -0.1343660E-04 ( -27.00%)
   displ. norm   :     0.0691896 α      lambda       -0.8238540E-05
   maximum displ.:     0.0417890 α      in ANC's #4, #3, #2, ...

........................................................................
.............................. CYCLE   13 ..............................
........................................................................

 iter      E             dE          RMSdq      gap      omega  full diag
   1    -32.8068841 -0.328069E+02  0.163E-02    3.77       0.0  T
   2    -32.8068844 -0.283425E-06  0.940E-03    3.76       2.2  T
   3    -32.8068842  0.170513E-06  0.429E-03    3.77       4.8  T
   4    -32.8068844 -0.184836E-06  0.145E-03    3.77      14.1  T
   5    -32.8068844 -0.355949E-07  0.265E-04    3.77      77.1  T
   6    -32.8068844 -0.239183E-09  0.137E-04    3.77     149.5  T
     SCC iter.                  ...        0 min,  0.006 sec
     gradient                   ...        0 min,  0.002 sec
 * total energy  :   -32.3856145 Eh     change       -0.4726590E-05 Eh
   gradient norm :     0.0004742 Eh/α   predicted    -0.4130806E-05 ( -12.60%)
   displ. norm   :     0.0226603 α      lambda       -0.1742824E-05
   maximum displ.:     0.0158956 α      in ANC's #4, #3, #5, ...

   *** GEOMETRY OPTIMIZATION CONVERGED AFTER 13 ITERATIONS ***

------------------------------------------------------------------------
 total energy gain   :        -0.0242060 Eh      -15.1895 kcal/mol
 total RMSD          :         0.2786813 a0        0.1475 Å
 total power (kW/mol):        -4.8886883 (step) -391.9343 (real)
------------------------------------------------------------------------

 ANCopt (total)                0 d,  0 h,  0 min,  0.162 sec
 optimizer setup                ...        0 min,  0.000 sec (  0.070%)
 model hessian                  ...        0 min,  0.010 sec (  6.453%)
 ANC generation                 ...        0 min,  0.001 sec (  0.367%)
 coordinate transformation      ...        0 min,  0.000 sec (  0.069%)
 single point calculation       ...        0 min,  0.144 sec ( 88.921%)
 optimization log               ...        0 min,  0.002 sec (  1.083%)
 hessian update                 ...        0 min,  0.003 sec (  2.131%)
 rational function              ...        0 min,  0.001 sec (  0.539%)

================
 final structure:
================
24
 xtb: 6.7.1 (edcfbbe)
C           -3.02041876325740        1.42213795235008        0.16142693321836
C           -1.55807934938449        1.10418748528778        0.44858588806739
C           -1.32321068964635       -0.35318533502825        0.86191119924846
C           -1.63689997755061       -1.33221864980200       -0.26668764597753
C            0.12216442487429       -0.53644276473711        1.32472220051054
O            1.00655178512055       -0.22488581965380        0.25067815493467
C            2.31343105449002       -0.34790771491049        0.50462341043255
O            2.75913592984314       -0.70059315666930        1.56917307384113
C            3.11659086961537        0.00642163875700       -0.68678946069739
C            4.43999464647415       -0.04084942429958       -0.66213575670850
H           -3.37283629459291        0.89379851532642       -0.72034294979219
H           -3.64563896865390        1.14055511879440        1.00628920374530
H           -3.14262696345605        2.48842837127151       -0.01394494696955
H           -1.20975183376680        1.75234724313115        1.25647325657175
H           -0.95451201482537        1.32139751260944       -0.43395743759486
H           -1.96277681141271       -0.58323732665985        1.72160136749369
H           -1.41947061289067       -2.35093870800266        0.04656433935286
H           -2.68568400564675       -1.27923921527092       -0.54339161730465
H           -1.03057450619888       -1.10207664912822       -1.13900738935671
H            0.35289739045966        0.12057540900500        2.17171089180868
H            0.30547701592711       -1.56932815037996        1.64312293432338
H            2.55069997469611        0.30027090980572       -1.55771680164831
H            5.04335830733941        0.21262310792809       -1.51677428180956
H            4.95217939244289       -0.34184034972441        0.23747143431027
 
 Bond Distances (Angstroems)
 ---------------------------
C1-C2=1.5238         C1-H11=1.0867        C1-H12=1.0881        C1-H13=1.0875        C2-C1=1.5238         C2-C3=1.5330         
C2-H14=1.0928        C2-H15=1.0910        C3-C2=1.5330         C3-C4=1.5266         C3-C5=1.5287         C3-H16=1.0959        
C4-C3=1.5266         C4-H17=1.0877        C4-H18=1.0860        C4-H19=1.0870        C5-C3=1.5287         C5-O6=1.4258         
C5-H20=1.0965        C5-H21=1.0963        O6-C5=1.4258         O6-C7=1.3370         C7-O6=1.3370         C7-O8=1.2068         
C7-C9=1.4799         O8-C7=1.2068         C9-C7=1.4799         C9-C10=1.3245        C9-H22=1.0794        C10-C9=1.3245        
C10-H23=1.0764       C10-H24=1.0781       H11-C1=1.0867        H12-C1=1.0881        H13-C1=1.0875        H14-C2=1.0928        
H15-C2=1.0910        H16-C3=1.0959        H17-C4=1.0877        H18-C4=1.0860        H19-C4=1.0870        H20-C5=1.0965        
H21-C5=1.0963        H22-C9=1.0794        H23-C10=1.0764       H24-C10=1.0781       
 C  H  Rav=1.0878 sigma=0.0063  Rmin=1.0764  Rmax=1.0965    14
 C  C  Rav=1.4861 sigma=0.0744  Rmin=1.3245  Rmax=1.5330     6
 O  C  Rav=1.3232 sigma=0.0899  Rmin=1.2068  Rmax=1.4258     3
 
 selected bond angles (degree)
 --------------------
H11-C1-C2=111.27               H12-C1-C2=110.55               H12-C1-H11=108.53              H13-C1-C2=110.05               
H13-C1-H11=108.02              H13-C1-H12=108.32              C3-C2-C1=113.34                H14-C2-C1=108.75               
H14-C2-C3=108.40               H15-C2-C1=109.69               H15-C2-C3=108.82               H15-C2-H14=107.67              
C4-C3-C2=112.26                C5-C3-C2=109.91                C5-C3-C4=109.95                H16-C3-C2=108.76               
H16-C3-C4=108.99               H16-C3-C5=106.81               H17-C4-C3=110.28               H18-C4-C3=110.83               
H18-C4-H17=108.19              H19-C4-C3=110.05               H19-C4-H17=108.54              H19-C4-H18=108.90              
O6-C5-C3=109.40                H20-C5-C3=111.16               H20-C5-O6=108.69               H21-C5-C3=111.04               
H21-C5-O6=108.72               H21-C5-H20=107.76              C7-O6-C5=116.30                O8-C7-O6=123.74                
C9-C7-O6=110.83                C9-C7-O8=125.43                C10-C9-C7=121.25               H22-C9-C7=115.48               
H22-C9-C10=123.27              H23-C10-C9=122.47              H24-C10-C9=120.01              H24-C10-H23=117.51             
 
 selected dihedral angles (degree)
 ---------------------------------
C3-C2-C1-H11=293.23           C3-C2-C1-H12= 53.91           C3-C2-C1-H13=173.53           H14-C2-C1-H11=172.59          
H14-C2-C1-H12=293.27          H14-C2-C1-H13= 52.89          H15-C2-C1-H11= 55.07          H15-C2-C1-H12=175.75          
H15-C2-C1-H13=295.37          C4-C3-C2-C1= 65.47            C4-C3-C2-H14=186.30           C4-C3-C2-H15=303.14           
C5-C3-C2-C1=188.18            C5-C3-C2-H14=309.01           C5-C3-C2-H15= 65.85           H16-C3-C2-C1=304.78           
H16-C3-C2-H14= 65.61          H16-C3-C2-H15=182.45          H17-C4-C3-C2=177.60           H17-C4-C3-C5= 54.92           
H17-C4-C3-H16=298.16          H18-C4-C3-C2=297.38           H18-C4-C3-C5=174.69           H18-C4-C3-H16= 57.94          
H19-C4-C3-C2= 57.89           H19-C4-C3-C5=295.21           H19-C4-C3-H16=178.45          O6-C5-C3-C2=298.92            
O6-C5-C3-C4= 62.99            O6-C5-C3-H16=181.10           H20-C5-C3-C2= 58.97           H20-C5-C3-C4=183.03           
H20-C5-C3-H16=301.15          H21-C5-C3-C2=178.92           H21-C5-C3-C4=302.98           H21-C5-C3-H16= 61.10          
C7-O6-C5-C3=180.40            C7-O6-C5-H20= 58.85           C7-O6-C5-H21=301.81           O8-C7-O6-C5=  0.05            
C9-C7-O6-C5=180.12            C10-C9-C7-O6=179.85           C10-C9-C7-O8=359.92           H22-C9-C7-O6=359.88           
H22-C9-C7-O8=179.95           H23-C10-C9-C7=180.01          H23-C10-C9-H22=  0.00         H24-C10-C9-C7=  0.00          
H24-C10-C9-H22=179.98         
           -------------------------------------------------
          |                Final Singlepoint                |
           -------------------------------------------------

          ...................................................
          :                      SETUP                      :
          :.................................................:
          :  # basis functions                  54          :
          :  # atomic orbitals                  54          :
          :  # shells                           34          :
          :  # electrons                        58          :
          :  max. iterations                   250          :
          :  Hamiltonian                  GFN2-xTB          :
          :  restarted?                      false          :
          :  GBSA solvation                  false          :
          :  PC potential                    false          :
          :  electronic temp.          300.0000000     K    :
          :  accuracy                    1.0000000          :
          :  -> integral cutoff          0.2500000E+02      :
          :  -> integral neglect         0.1000000E-07      :
          :  -> SCF convergence          0.1000000E-05 Eh   :
          :  -> wf. convergence          0.1000000E-03 e    :
          :  Broyden damping             0.4000000          :
          :  net charge                          0          :
          :  unpaired electrons                  0          :
          ...................................................

 iter      E             dE          RMSdq      gap      omega  full diag
   1    -32.8068844 -0.328069E+02  0.492E-05    3.77       0.0  T
   2    -32.8068844 -0.279243E-11  0.294E-05    3.77     693.1  T
   3    -32.8068844  0.263611E-11  0.195E-05    3.77    1047.8  T

   *** convergence criteria satisfied after 3 iterations ***

         #    Occupation            Energy/Eh            Energy/eV
      -------------------------------------------------------------
         1        2.0000           -0.7382663             -20.0892
       ...           ...                  ...                  ...
        23        2.0000           -0.4563048             -12.4167
        24        2.0000           -0.4406706             -11.9913
        25        2.0000           -0.4390441             -11.9470
        26        2.0000           -0.4373901             -11.9020
        27        2.0000           -0.4301179             -11.7041
        28        2.0000           -0.4291863             -11.6788
        29        2.0000           -0.4120465             -11.2124 (HOMO)
        30                         -0.2736769              -7.4471 (LUMO)
        31                         -0.1635949              -4.4516
        32                          0.0097558               0.2655
        33                          0.0607052               1.6519
        34                          0.0918080               2.4982
       ...                                ...                  ...
        54                          0.7081709              19.2703
      -------------------------------------------------------------
                  HL-Gap            0.1383696 Eh            3.7652 eV
             Fermi-level           -0.3428617 Eh           -9.3297 eV

 SCC (total)                   0 d,  0 h,  0 min,  0.007 sec
 SCC setup                      ...        0 min,  0.001 sec ( 12.844%)
 Dispersion                     ...        0 min,  0.000 sec (  1.508%)
 classical contributions        ...        0 min,  0.000 sec (  2.485%)
 integral evaluation            ...        0 min,  0.001 sec (  7.817%)
 iterations                     ...        0 min,  0.003 sec ( 48.043%)
 molecular gradient             ...        0 min,  0.002 sec ( 22.607%)
 printout                       ...        0 min,  0.000 sec (  4.338%)

         :::::::::::::::::::::::::::::::::::::::::::::::::::::
         ::                     SUMMARY                     ::
         :::::::::::::::::::::::::::::::::::::::::::::::::::::
         :: total energy             -32.385614486723 Eh    ::
         :: gradient norm              0.000474826387 Eh/a0 ::
         :: HOMO-LUMO gap              3.765228165071 eV    ::
         ::.................................................::
         :: SCC energy               -32.806856006032 Eh    ::
         :: -> isotropic ES            0.046872037376 Eh    ::
         :: -> anisotropic ES          0.003548564014 Eh    ::
         :: -> anisotropic XC          0.012413356431 Eh    ::
         :: -> dispersion             -0.016045697880 Eh    ::
         :: repulsion energy           0.421241519309 Eh    ::
         :: add. restraining           0.000000000000 Eh    ::
         :: total charge              -0.000000000000 e     ::
         :::::::::::::::::::::::::::::::::::::::::::::::::::::

           -------------------------------------------------
          |                Property Printout                |
           -------------------------------------------------

    * Orbital Energies and Occupations

         #    Occupation            Energy/Eh            Energy/eV
      -------------------------------------------------------------
         1        2.0000           -0.7382663             -20.0892
       ...           ...                  ...                  ...
        17        2.0000           -0.4966070             -13.5134
        18        2.0000           -0.4918679             -13.3844
        19        2.0000           -0.4860784             -13.2269
        20        2.0000           -0.4697593             -12.7828
        21        2.0000           -0.4682830             -12.7426
        22        2.0000           -0.4606126             -12.5339
        23        2.0000           -0.4563048             -12.4167
        24        2.0000           -0.4406706             -11.9913
        25        2.0000           -0.4390441             -11.9470
        26        2.0000           -0.4373901             -11.9020
        27        2.0000           -0.4301179             -11.7041
        28        2.0000           -0.4291863             -11.6788
        29        2.0000           -0.4120465             -11.2124 (HOMO)
        30                         -0.2736769              -7.4471 (LUMO)
        31                         -0.1635949              -4.4516
        32                          0.0097558               0.2655
        33                          0.0607052               1.6519
        34                          0.0918080               2.4982
        35                          0.0965079               2.6261
        36                          0.1277696               3.4768
        37                          0.1293329               3.5193
        38                          0.1381359               3.7589
        39                          0.1433487               3.9007
        40                          0.1474610               4.0126
       ...                                ...                  ...
        54                          0.7081709              19.2703
      -------------------------------------------------------------
                  HL-Gap            0.1383696 Eh            3.7652 eV
             Fermi-level           -0.3428617 Eh           -9.3297 eV

     #   Z          covCN         q      C6AA      α(0)
     1   6 C        3.751    -0.104    22.543     6.771
     2   6 C        3.804    -0.058    21.611     6.618
     3   6 C        3.850    -0.018    20.859     6.496
     4   6 C        3.755    -0.108    22.621     6.782
     5   6 C        3.710     0.079    19.389     6.293
     6   8 O        1.705    -0.261    18.321     5.779
     7   6 C        2.729     0.354    20.984     7.499
     8   8 O        0.856    -0.416    22.013     6.290
     9   6 C        2.887    -0.059    29.453     8.898
    10   6 C        2.841    -0.060    29.482     8.898
    11   1 H        0.925     0.038     2.472     2.459
    12   1 H        0.925     0.035     2.521     2.483
    13   1 H        0.925     0.037     2.496     2.470
    14   1 H        0.924     0.032     2.554     2.499
    15   1 H        0.924     0.045     2.384     2.414
    16   1 H        0.924     0.037     2.485     2.465
    17   1 H        0.925     0.037     2.495     2.470
    18   1 H        0.925     0.044     2.399     2.422
    19   1 H        0.925     0.048     2.342     2.393
    20   1 H        0.924     0.046     2.375     2.410
    21   1 H        0.924     0.048     2.339     2.392
    22   1 H        0.926     0.062     2.171     2.304
    23   1 H        0.926     0.062     2.175     2.306
    24   1 H        0.926     0.078     1.996     2.209

 Mol. C6AA /au·bohr⁶  :       4748.814831
 Mol. C8AA /au·bohr⁸  :     103587.363233
 Mol. α(0) /au        :        104.023050


Wiberg/Mayer (AO) data.
largest (>0.10) Wiberg bond orders for each atom

 ---------------------------------------------------------------------------
     #   Z sym  total        # sym  WBO       # sym  WBO       # sym  WBO
 ---------------------------------------------------------------------------
     1   6 C    3.997 --     2 C    1.020    12 H    0.987    13 H    0.987
                            11 H    0.986
     2   6 C    3.996 --     1 C    1.020     3 C    0.996    14 H    0.977
                            15 H    0.976
     3   6 C    3.992 --     4 C    1.009     2 C    0.996     5 C    0.992
                            16 H    0.965
     4   6 C    3.995 --     3 C    1.009    17 H    0.986    19 H    0.986
                            18 H    0.984
     5   6 C    3.928 --     3 C    0.992    20 H    0.966    21 H    0.966
                             6 O    0.941
     6   8 O    2.313 --     7 C    1.128     5 C    0.941     8 O    0.175
     7   6 C    3.921 --     8 O    1.722     6 O    1.128     9 C    1.009
     8   8 O    2.030 --     7 C    1.722     6 O    0.175
     9   6 C    3.988 --    10 C    1.933     7 C    1.009    22 H    0.965
    10   6 C    3.982 --     9 C    1.933    23 H    0.975    24 H    0.970
    11   1 H    0.999 --     1 C    0.986
    12   1 H    0.999 --     1 C    0.987
    13   1 H    0.998 --     1 C    0.987
    14   1 H    0.999 --     2 C    0.977
    15   1 H    0.998 --     2 C    0.976
    16   1 H    0.998 --     3 C    0.965
    17   1 H    0.999 --     4 C    0.986
    18   1 H    0.998 --     4 C    0.984
    19   1 H    0.998 --     4 C    0.986
    20   1 H    0.998 --     5 C    0.966
    21   1 H    0.997 --     5 C    0.966
    22   1 H    0.996 --     9 C    0.965
    23   1 H    0.995 --    10 C    0.975
    24   1 H    0.994 --    10 C    0.970
 ---------------------------------------------------------------------------

Topologies differ in total number of bonds
Writing topology from bond orders to xtbtopo.mol

molecular dipole:
                 x           y           z       tot (Debye)
 q only:       -0.530       0.234      -0.686
   full:       -0.524       0.244      -0.711       2.328
molecular quadrupole (traceless):
                xx          xy          yy          xz          yz          zz
 q only:        3.424       2.917      -0.929      -9.207       1.111      -2.494
  q+dip:        2.026       3.453      -0.549     -10.377       1.002      -1.477
   full:        1.641       3.475       0.628     -10.444       1.672      -2.270

           -------------------------------------------------
          |                Geometry Summary                 |
           -------------------------------------------------

      molecular mass/u    :      142.1958675
   center of mass at/Å    :        0.5868619      -0.1035960       0.3624420
  moments of inertia/u·Å² :        0.1755321E+03   0.8889335E+03   0.9266439E+03
rotational constants/cm⁻¹ :        0.9603734E-01   0.1896388E-01   0.1819214E-01

 * 22 selected distances

     #   Z          #   Z                                           value/Å
     1   6 C        2   6 C                                       1.5238077
     2   6 C        3   6 C                                       1.5329504 (max)
     3   6 C        4   6 C                                       1.5266444
     3   6 C        5   6 C                                       1.5286880
     5   6 C        6   8 O                                       1.4257558
     6   8 O        7   6 C                                       1.3369953
     7   6 C        8   8 O                                       1.2067751
     9   6 C       10   6 C                                       1.3244773
     1   6 C       11   1 H                                       1.0866734
     1   6 C       12   1 H                                       1.0881092
     1   6 C       13   1 H                                       1.0875043
     2   6 C       14   1 H                                       1.0927604
     2   6 C       15   1 H                                       1.0910347
     3   6 C       16   1 H                                       1.0959179
     4   6 C       17   1 H                                       1.0877468
     4   6 C       18   1 H                                       1.0859650
     4   6 C       19   1 H                                       1.0869857
     5   6 C       20   1 H                                       1.0964947
     5   6 C       21   1 H                                       1.0962823
     9   6 C       22   1 H                                       1.0793955
    10   6 C       23   1 H                                       1.0764308 (min)
    10   6 C       24   1 H                                       1.0780640

 * 3 distinct bonds (by element types)

   Z      Z             #   av. dist./Å        max./Å        min./Å
   1 H    6 C          14     1.0878118     1.0964947     1.0764308
   6 C    6 C           5     1.4873136     1.5329504     1.3244773
   6 C    8 O           3     1.3231754     1.4257558     1.2067751


optimized geometry written to: xtbopt.xyz


           -------------------------------------------------
          | TOTAL ENERGY              -32.385614486723 Eh   |
          | GRADIENT NORM               0.000474826387 Eh/α |
          | HOMO-LUMO GAP               3.765228165071 eV   |
           -------------------------------------------------

------------------------------------------------------------------------
 * finished run on 2025/12/01 at 14:17:51.773     
------------------------------------------------------------------------
 total:
 * wall-time:     0 d,  0 h,  0 min,  0.200 sec
 *  cpu-time:     0 d,  0 h,  0 min,  4.504 sec
 * ratio c/w:    22.475 speedup
 SCF:
 * wall-time:     0 d,  0 h,  0 min,  0.019 sec
 *  cpu-time:     0 d,  0 h,  0 min,  0.441 sec
 * ratio c/w:    22.670 speedup
 ANC optimizer:
 * wall-time:     0 d,  0 h,  0 min,  0.170 sec
 *  cpu-time:     0 d,  0 h,  0 min,  3.848 sec
 * ratio c/w:    22.652 speedup

normal termination of xtb
