      -----------------------------------------------------------      
     |                   =====================                   |     
     |                           x T B                           |     
     |                   =====================                   |     
     |                         S. Grimme                         |     
     |          Mulliken Center for Theoretical Chemistry        |     
     |                    University of Bonn                     |     
      -----------------------------------------------------------      

   * xtb version 6.7.1 (edcfbbe) compiled by 'albert@albert-system' on 2024-07-22

   xtb is free software: you can redistribute it and/or modify it under
   the terms of the GNU Lesser General Public License as published by
   the Free Software Foundation, either version 3 of the License, or
   (at your option) any later version.
   
   xtb is distributed in the hope that it will be useful,
   but WITHOUT ANY WARRANTY; without even the implied warranty of
   MERCHANTABILITY or FITNESS FOR A PARTICULAR PURPOSE.  See the
   GNU Lesser General Public License for more details.
   
   Cite this work as:
   * C. Bannwarth, E. Caldeweyher, S. Ehlert, A. Hansen, P. Pracht,
     J. Seibert, S. Spicher, S. Grimme, WIREs Comput. Mol. Sci., 2020, 11,
     e01493. DOI: 10.1002/wcms.1493
   
   for GFN2-xTB:
   * C. Bannwarth, S. Ehlert and S. Grimme., J. Chem. Theory Comput., 2019,
     15, 1652-1671. DOI: 10.1021/acs.jctc.8b01176
   for GFN1-xTB:
   * S. Grimme, C. Bannwarth, P. Shushkov, J. Chem. Theory Comput., 2017,
     13, 1989-2009. DOI: 10.1021/acs.jctc.7b00118
   for GFN0-xTB:
   * P. Pracht, E. Caldeweyher, S. Ehlert, S. Grimme, ChemRxiv, 2019, preprint.
     DOI: 10.26434/chemrxiv.8326202.v1
   for GFN-FF:
   * S. Spicher and S. Grimme, Angew. Chem. Int. Ed., 2020, 59, 15665-15673.
     DOI: 10.1002/anie.202004239
   
   for ALPB and GBSA implicit solvation:
   * S. Ehlert, M. Stahn, S. Spicher, S. Grimme, J. Chem. Theory Comput.,
     2021, 17, 4250-4261. DOI: 10.1021/acs.jctc.1c00471
   
   for ddCOSMO and CPCM-X implicit solvation:
   * M. Stahn, S. Ehlert, S. Grimme, J. Phys. Chem. A,
     2023, XX, XXXX-XXXX. DOI: 10.1021/acs.jpca.3c04382
   
   for DFT-D4:
   * E. Caldeweyher, C. Bannwarth and S. Grimme, J. Chem. Phys., 2017,
     147, 034112. DOI: 10.1063/1.4993215
   * E. Caldeweyher, S. Ehlert, A. Hansen, H. Neugebauer, S. Spicher,
     C. Bannwarth and S. Grimme, J. Chem. Phys., 2019, 150, 154122.
     DOI: 10.1063/1.5090222
   * E. Caldeweyher, J.-M. Mewes, S. Ehlert and S. Grimme, Phys. Chem. Chem. Phys.
     2020, 22, 8499-8512. DOI: 10.1039/D0CP00502A
   
   for sTDA-xTB:
   * S. Grimme and C. Bannwarth, J. Chem. Phys., 2016, 145, 054103.
     DOI: 10.1063/1.4959605
   
   in the mass-spec context:
   * V. Asgeirsson, C. Bauer and S. Grimme, Chem. Sci., 2017, 8, 4879.
     DOI: 10.1039/c7sc00601b
   * J. Koopman and S. Grimme, ACS Omega 2019, 4, 12, 15120-15133.
     DOI: 10.1021/acsomega.9b02011
   
   for metadynamics refer to:
   * S. Grimme, J. Chem. Theory Comput., 2019, 155, 2847-2862
     DOI: 10.1021/acs.jctc.9b00143
   
   for SPH calculations refer to:
   * S. Spicher and S. Grimme, J. Chem. Theory Comput., 2021, 17, 1701-1714
     DOI: 10.1021/acs.jctc.0c01306
   
   for ONIOM refer to:
   * C. Plett, A. Katbashev, S. Ehlert, S. Grimme, M. Bursch,
     Phys. Chem. Chem. Phys., 2023, 25, 17860-17868. DOI: 10.1039/D3CP02178E
   
   for DIPRO refer to:
   * J. Kohn, N. Gildemeister, S. Grimme, D. Fazzi, A. Hansen,
     J. Chem. Phys., 2023, just accepted.
   
   for PTB refer to:
   * S. Grimme, M. Mueller, A. Hansen, J. Chem. Phys., 2023, 158, 124111.
     DOI: 10.1063/5.0137838
   
   with help from (in alphabetical order)
   P. Atkinson, C. Bannwarth, F. Bohle, G. Brandenburg, E. Caldeweyher
   M. Checinski, S. Dohm, S. Ehlert, S. Ehrlich, I. Gerasimov, C. Hölzer
   A. Katbashev, J. Kohn, J. Koopman, C. Lavigne, S. Lehtola, F. März, M. Müller,
   F. Musil, H. Neugebauer, J. Pisarek, C. Plett, P. Pracht, F. Pultar,
   J. Seibert, P. Shushkov, S. Spicher, M. Stahn, M. Steiner, T. Strunk,
   J. Stückrath, T. Rose, and J. Unsleber
   
 * started run on 2025/12/01 at 14:17:51.175     
   ID    Z sym.   atoms
    1    6 C      1-5, 7, 9, 10
    2    8 O      6, 8
    3    1 H      11-24

           -------------------------------------------------
          |                Calculation Setup                |
           -------------------------------------------------

          program call               : xtb pipeline_data/3_conformer_xyz/acrylates/rdkit/NCTBYWFEJFTVEL-ZETCQYMHSA-N_conf213.xyz --opt --gfn 2-xTB --iterations 250
          coordinate file            : pipeline_data/3_conformer_xyz/acrylates/rdkit/NCTBYWFEJFTVEL-ZETCQYMHSA-N_conf213.xyz
          omp threads                :                    24

########################################################################
[WARNING] Please study the warnings concerning your input carefully
-1- readin_getIntValue: could not parse '2-xTB'
########################################################################

           -------------------------------------------------
          |                 G F N 2 - x T B                 |
           -------------------------------------------------

        Reference                      10.1021/acs.jctc.8b01176
      * Hamiltonian:
        H0-scaling (s, p, d)           1.850000    2.230000    2.230000
        zeta-weighting                 0.500000
      * Dispersion:
        s8                             2.700000
        a1                             0.520000
        a2                             5.000000
        s9                             5.000000
      * Repulsion:
        kExp                           1.500000    1.000000
        rExp                           1.000000
      * Coulomb:
        alpha                          2.000000
        third order                    shell-resolved
        anisotropic                    true
        a3                             3.000000
        a5                             4.000000
        cn-shift                       1.200000
        cn-exp                         4.000000
        max-rad                        5.000000

q/qsh data taken from xtbrestart
CAMM data taken from xtbrestart

          ...................................................
          :                      SETUP                      :
          :.................................................:
          :  # basis functions                  54          :
          :  # atomic orbitals                  54          :
          :  # shells                           34          :
          :  # electrons                        58          :
          :  max. iterations                   250          :
          :  Hamiltonian                  GFN2-xTB          :
          :  restarted?                       true          :
          :  GBSA solvation                  false          :
          :  PC potential                    false          :
          :  electronic temp.          300.0000000     K    :
          :  accuracy                    1.0000000          :
          :  -> integral cutoff          0.2500000E+02      :
          :  -> integral neglect         0.1000000E-07      :
          :  -> SCF convergence          0.1000000E-05 Eh   :
          :  -> wf. convergence          0.1000000E-03 e    :
          :  Broyden damping             0.4000000          :
          :  net charge                          0          :
          :  unpaired electrons                  0          :
          ...................................................

 iter      E             dE          RMSdq      gap      omega  full diag
   1    -32.7574426 -0.327574E+02  0.485E+00    3.42       0.0  T
   2    -32.7636472 -0.620455E-02  0.287E+00    3.45       1.0  T
   3    -32.7638650 -0.217834E-03  0.322E-01    3.31       1.0  T
   4    -32.7650211 -0.115611E-02  0.147E-01    3.43       1.0  T
   5    -32.7651250 -0.103842E-03  0.809E-02    3.42       1.0  T
   6    -32.7651276 -0.266215E-05  0.410E-02    3.41       1.0  T
   7    -32.7651533 -0.257245E-04  0.715E-03    3.42       2.9  T
   8    -32.7651535 -0.111204E-06  0.272E-03    3.42       7.5  T
   9    -32.7651535 -0.234561E-07  0.950E-04    3.42      21.5  T
  10    -32.7651535 -0.174780E-08  0.374E-04    3.42      54.5  T

   *** convergence criteria satisfied after 10 iterations ***

         #    Occupation            Energy/Eh            Energy/eV
      -------------------------------------------------------------
         1        2.0000           -0.7257424             -19.7485
       ...           ...                  ...                  ...
        23        2.0000           -0.4576794             -12.4541
        24        2.0000           -0.4456096             -12.1257
        25        2.0000           -0.4388438             -11.9415
        26        2.0000           -0.4332070             -11.7882
        27        2.0000           -0.4289040             -11.6711
        28        2.0000           -0.4225098             -11.4971
        29        2.0000           -0.4122565             -11.2181 (HOMO)
        30                         -0.2865996              -7.7988 (LUMO)
        31                         -0.1721536              -4.6845
        32                         -0.0378307              -1.0294
        33                          0.0690121               1.8779
        34                          0.0912319               2.4825
       ...                                ...                  ...
        54                          0.6541006              17.7990
      -------------------------------------------------------------
                  HL-Gap            0.1256569 Eh            3.4193 eV
             Fermi-level           -0.3494280 Eh           -9.5084 eV

 SCC (total)                   0 d,  0 h,  0 min,  0.020 sec
 SCC setup                      ...        0 min,  0.000 sec (  1.426%)
 Dispersion                     ...        0 min,  0.000 sec (  1.333%)
 classical contributions        ...        0 min,  0.000 sec (  0.423%)
 integral evaluation            ...        0 min,  0.001 sec (  3.850%)
 iterations                     ...        0 min,  0.017 sec ( 82.669%)
 molecular gradient             ...        0 min,  0.002 sec (  9.437%)
 printout                       ...        0 min,  0.000 sec (  0.737%)

         :::::::::::::::::::::::::::::::::::::::::::::::::::::
         ::                     SUMMARY                     ::
         :::::::::::::::::::::::::::::::::::::::::::::::::::::
         :: total energy             -32.364783710670 Eh    ::
         :: gradient norm              0.142257923011 Eh/a0 ::
         :: HOMO-LUMO gap              3.419298383971 eV    ::
         ::.................................................::
         :: SCC energy               -32.765114879111 Eh    ::
         :: -> isotropic ES            0.050146252993 Eh    ::
         :: -> anisotropic ES          0.002400069197 Eh    ::
         :: -> anisotropic XC          0.012954454421 Eh    ::
         :: -> dispersion             -0.016295427748 Eh    ::
         :: repulsion energy           0.400331168441 Eh    ::
         :: add. restraining           0.000000000000 Eh    ::
         :: total charge               0.000000000000 e     ::
         :::::::::::::::::::::::::::::::::::::::::::::::::::::

      ----------------------------------------------------------- 
     |                   =====================                   |
     |                        A N C O P T                        |
     |                   =====================                   |
     |               Approximate Normal Coordinate               |
     |                Rational Function Optimizer                |
      ----------------------------------------------------------- 
      ----------------------------------------------------------- 
     |                   =====================                   |
     |                        A N C O P T                        |
     |                   =====================                   |
     |               Approximate Normal Coordinate               |
     |                Rational Function Optimizer                |
      ----------------------------------------------------------- 

          ...................................................
          :                      SETUP                      :
          :.................................................:
          :   optimization level            normal          :
          :   max. optcycles                   200          :
          :   ANC micro-cycles                  20          :
          :   degrees of freedom                66          :
          :.................................................:
          :   RF solver                   davidson          :
          :   write xtbopt.log                true          :
          :   linear?                        false          :
          :   energy convergence         0.5000000E-05 Eh   :
          :   grad. convergence          0.1000000E-02 Eh/α :
          :   maxmium RF displ.          1.0000000          :
          :   Hlow (freq-cutoff)         0.1000000E-01      :
          :   Hmax (freq-cutoff)         5.0000000          :
          :   S6 in model hess.         20.0000000          :
          ...................................................

generating ANC from exact Hessian ...
Using Lindh-Hessian (1995)
 Shifting diagonal of input Hessian by   9.354375140663850E-003
 Lowest  eigenvalues of input Hessian
    0.000000    0.000000    0.000000    0.000000    0.000000    0.000000
    0.010000    0.010895    0.011163    0.013007    0.014968    0.015643
    0.016853    0.018843    0.021333    0.025029    0.027621    0.027921
 Highest eigenvalues
    1.338762    1.387645    1.481938    1.792520    1.907680    2.173305
 

........................................................................
.............................. CYCLE    1 ..............................
........................................................................

 iter      E             dE          RMSdq      gap      omega  full diag
   1    -32.7651535 -0.327652E+02  0.106E-04    3.42       0.0  T
   2    -32.7651535 -0.248548E-10  0.627E-05    3.42     325.4  T
   3    -32.7651535  0.376588E-11  0.446E-05    3.42     457.3  T
     SCC iter.                  ...        0 min,  0.003 sec
     gradient                   ...        0 min,  0.002 sec
 * total energy  :   -32.3647837 Eh     change       -0.3448619E-09 Eh
   gradient norm :     0.1422567 Eh/α   predicted     0.0000000E+00 (-100.00%)
   displ. norm   :     0.3179624 α      lambda       -0.2252010E-01
   maximum displ.:     0.1338717 α      in ANC's #14, #19, #10, ...

........................................................................
.............................. CYCLE    2 ..............................
........................................................................

 iter      E             dE          RMSdq      gap      omega  full diag
   1    -32.7905755 -0.327906E+02  0.308E-01    3.52       0.0  T
   2    -32.7908269 -0.251468E-03  0.193E-01    3.57       1.0  T
   3    -32.7907940  0.329309E-04  0.767E-02    3.58       1.0  T
   4    -32.7908384 -0.444002E-04  0.312E-02    3.58       1.0  T
   5    -32.7908529 -0.145565E-04  0.951E-03    3.57       2.1  T
   6    -32.7908541 -0.115441E-05  0.386E-03    3.57       5.3  T
   7    -32.7908542 -0.686429E-07  0.968E-04    3.57      21.1  T
   8    -32.7908542 -0.116886E-08  0.397E-04    3.57      51.4  T
     SCC iter.                  ...        0 min,  0.009 sec
     gradient                   ...        0 min,  0.002 sec
 * total energy  :   -32.3799119 Eh     change       -0.1512820E-01 Eh
   gradient norm :     0.0526714 Eh/α   predicted    -0.1240437E-01 ( -18.00%)
   displ. norm   :     0.2432794 α      lambda       -0.5284581E-02
   maximum displ.:     0.1084095 α      in ANC's #14, #10, #7, ...

........................................................................
.............................. CYCLE    3 ..............................
........................................................................

 iter      E             dE          RMSdq      gap      omega  full diag
   1    -32.8036861 -0.328037E+02  0.180E-01    3.65       0.0  T
   2    -32.8037842 -0.980759E-04  0.113E-01    3.67       1.0  T
   3    -32.8037759  0.829277E-05  0.467E-02    3.68       1.0  T
   4    -32.8037886 -0.127297E-04  0.196E-02    3.68       1.0  T
   5    -32.8037940 -0.537596E-05  0.655E-03    3.68       3.1  T
   6    -32.8037946 -0.602460E-06  0.212E-03    3.68       9.6  T
   7    -32.8037946 -0.166635E-07  0.538E-04    3.68      38.0  T
   8    -32.8037946 -0.458748E-09  0.242E-04    3.68      84.3  T
     SCC iter.                  ...        0 min,  0.009 sec
     gradient                   ...        0 min,  0.002 sec
 * total energy  :   -32.3828404 Eh     change       -0.2928469E-02 Eh
   gradient norm :     0.0147538 Eh/α   predicted    -0.2799946E-02 (  -4.39%)
   displ. norm   :     0.1444664 α      lambda       -0.5284374E-03
   maximum displ.:     0.0912317 α      in ANC's #7, #10, #6, ...

........................................................................
.............................. CYCLE    4 ..............................
........................................................................

 iter      E             dE          RMSdq      gap      omega  full diag
   1    -32.8034738 -0.328035E+02  0.582E-02    3.69       0.0  T
   2    -32.8034840 -0.101576E-04  0.355E-02    3.68       1.0  T
   3    -32.8034840 -0.336546E-07  0.132E-02    3.69       1.5  T
   4    -32.8034842 -0.140028E-06  0.375E-03    3.68       5.4  T
   5    -32.8034844 -0.191846E-06  0.138E-03    3.69      14.7  T
   6    -32.8034844 -0.221111E-07  0.606E-04    3.69      33.7  T
   7    -32.8034844 -0.151925E-08  0.198E-04    3.69     103.0  T
     SCC iter.                  ...        0 min,  0.007 sec
     gradient                   ...        0 min,  0.001 sec
 * total energy  :   -32.3832160 Eh     change       -0.3755835E-03 Eh
   gradient norm :     0.0069109 Eh/α   predicted    -0.2697793E-03 ( -28.17%)
   displ. norm   :     0.2084233 α      lambda       -0.4167749E-03
   maximum displ.:     0.1410736 α      in ANC's #7, #10, #1, ...

........................................................................
.............................. CYCLE    5 ..............................
........................................................................

 iter      E             dE          RMSdq      gap      omega  full diag
   1    -32.8030245 -0.328030E+02  0.602E-02    3.70       0.0  T
   2    -32.8030321 -0.763157E-05  0.360E-02    3.69       1.0  T
   3    -32.8030320  0.103021E-06  0.122E-02    3.70       1.7  T
   4    -32.8030324 -0.408485E-06  0.268E-03    3.70       7.6  T
   5    -32.8030325 -0.105441E-06  0.129E-03    3.70      15.9  T
   6    -32.8030326 -0.190498E-07  0.557E-04    3.70      36.7  T
   7    -32.8030326 -0.101247E-08  0.174E-04    3.70     117.0  T
     SCC iter.                  ...        0 min,  0.007 sec
     gradient                   ...        0 min,  0.001 sec
 * total energy  :   -32.3834613 Eh     change       -0.2452930E-03 Eh
   gradient norm :     0.0059682 Eh/α   predicted    -0.2174594E-03 ( -11.35%)
   displ. norm   :     0.1332843 α      lambda       -0.1727124E-03
   maximum displ.:     0.0802955 α      in ANC's #7, #1, #10, ...

........................................................................
.............................. CYCLE    6 ..............................
........................................................................

 iter      E             dE          RMSdq      gap      omega  full diag
   1    -32.8032754 -0.328033E+02  0.418E-02    3.70       0.0  T
   2    -32.8032759 -0.546425E-06  0.249E-02    3.70       1.0  T
   3    -32.8032757  0.219405E-06  0.470E-03    3.70       4.3  T
   4    -32.8032760 -0.273308E-06  0.186E-03    3.70      11.0  T
   5    -32.8032760 -0.545934E-07  0.710E-04    3.70      28.7  T
   6    -32.8032760 -0.197370E-08  0.275E-04    3.70      74.1  T
     SCC iter.                  ...        0 min,  0.026 sec
     gradient                   ...        0 min,  0.001 sec
 * total energy  :   -32.3835743 Eh     change       -0.1129953E-03 Eh
   gradient norm :     0.0067489 Eh/α   predicted    -0.8789335E-04 ( -22.22%)
   displ. norm   :     0.1364032 α      lambda       -0.1405531E-03
   maximum displ.:     0.0766667 α      in ANC's #1, #7, #10, ...

........................................................................
.............................. CYCLE    7 ..............................
........................................................................

 iter      E             dE          RMSdq      gap      omega  full diag
   1    -32.8040340 -0.328040E+02  0.412E-02    3.70       0.0  T
   2    -32.8040349 -0.946280E-06  0.246E-02    3.70       1.0  T
   3    -32.8040349  0.369707E-07  0.397E-03    3.69       5.1  T
   4    -32.8040350 -0.907497E-07  0.177E-03    3.70      11.5  T
   5    -32.8040350 -0.449347E-07  0.773E-04    3.70      26.4  T
   6    -32.8040350 -0.354244E-08  0.328E-04    3.70      62.2  T
     SCC iter.                  ...        0 min,  0.010 sec
     gradient                   ...        0 min,  0.004 sec
 * total energy  :   -32.3836753 Eh     change       -0.1010512E-03 Eh
   gradient norm :     0.0048569 Eh/α   predicted    -0.7158509E-04 ( -29.16%)
   displ. norm   :     0.1558000 α      lambda       -0.1101108E-03
   maximum displ.:     0.1014696 α      in ANC's #1, #7, #2, ...

........................................................................
.............................. CYCLE    8 ..............................
........................................................................

 iter      E             dE          RMSdq      gap      omega  full diag
   1    -32.8044007 -0.328044E+02  0.452E-02    3.69       0.0  T
   2    -32.8044022 -0.152971E-05  0.268E-02    3.69       1.0  T
   3    -32.8044021  0.476021E-07  0.501E-03    3.69       4.1  T
   4    -32.8044023 -0.165417E-06  0.123E-03    3.69      16.6  T
   5    -32.8044023 -0.135851E-07  0.653E-04    3.69      31.3  T
   6    -32.8044023 -0.756351E-09  0.427E-04    3.69      47.8  T
     SCC iter.                  ...        0 min,  0.021 sec
     gradient                   ...        0 min,  0.002 sec
 * total energy  :   -32.3837552 Eh     change       -0.7986243E-04 Eh
   gradient norm :     0.0028356 Eh/α   predicted    -0.5640601E-04 ( -29.37%)
   displ. norm   :     0.1647544 α      lambda       -0.8460489E-04
   maximum displ.:     0.1116989 α      in ANC's #1, #4, #2, ...

........................................................................
.............................. CYCLE    9 ..............................
........................................................................

 iter      E             dE          RMSdq      gap      omega  full diag
   1    -32.8043007 -0.328043E+02  0.496E-02    3.69       0.0  T
   2    -32.8043013 -0.599257E-06  0.294E-02    3.69       1.0  T
   3    -32.8043011  0.270244E-06  0.485E-03    3.69       4.2  T
   4    -32.8043014 -0.358225E-06  0.198E-03    3.69      10.3  T
   5    -32.8043015 -0.556117E-07  0.781E-04    3.69      26.2  T
   6    -32.8043015 -0.244368E-08  0.372E-04    3.69      54.9  T
     SCC iter.                  ...        0 min,  0.009 sec
     gradient                   ...        0 min,  0.001 sec
 * total energy  :   -32.3838169 Eh     change       -0.6173269E-04 Eh
   gradient norm :     0.0025902 Eh/α   predicted    -0.4345318E-04 ( -29.61%)
   displ. norm   :     0.1552686 α      lambda       -0.6873583E-04
   maximum displ.:     0.1086423 α      in ANC's #1, #4, #2, ...

........................................................................
.............................. CYCLE   10 ..............................
........................................................................

 iter      E             dE          RMSdq      gap      omega  full diag
   1    -32.8045010 -0.328045E+02  0.463E-02    3.69       0.0  T
   2    -32.8045012 -0.195441E-06  0.274E-02    3.69       1.0  T
   3    -32.8045013 -0.544853E-07  0.136E-03    3.69      15.0  T
   4    -32.8045013 -0.103593E-07  0.750E-04    3.69      27.2  T
   5    -32.8045013 -0.836003E-09  0.317E-04    3.69      64.4  T
     SCC iter.                  ...        0 min,  0.005 sec
     gradient                   ...        0 min,  0.001 sec
 * total energy  :   -32.3838689 Eh     change       -0.5197246E-04 Eh
   gradient norm :     0.0027957 Eh/α   predicted    -0.3519841E-04 ( -32.27%)
   displ. norm   :     0.1614636 α      lambda       -0.6136230E-04
   maximum displ.:     0.1116551 α      in ANC's #1, #4, #2, ...

........................................................................
.............................. CYCLE   11 ..............................
........................................................................

 iter      E             dE          RMSdq      gap      omega  full diag
   1    -32.8043675 -0.328044E+02  0.494E-02    3.69       0.0  T
   2    -32.8043677 -0.227553E-06  0.293E-02    3.69       1.0  T
   3    -32.8043678 -0.468472E-07  0.161E-03    3.69      12.7  T
   4    -32.8043678 -0.213978E-07  0.901E-04    3.69      22.6  T
   5    -32.8043678 -0.287150E-08  0.572E-04    3.69      35.7  T
     SCC iter.                  ...        0 min,  0.011 sec
     gradient                   ...        0 min,  0.002 sec
 * total energy  :   -32.3839186 Eh     change       -0.4975625E-04 Eh
   gradient norm :     0.0026704 Eh/α   predicted    -0.3148149E-04 ( -36.73%)
   displ. norm   :     0.1834853 α      lambda       -0.6624869E-04
   maximum displ.:     0.1269480 α      in ANC's #1, #4, #7, ...

........................................................................
.............................. CYCLE   12 ..............................
........................................................................

 iter      E             dE          RMSdq      gap      omega  full diag
   1    -32.8045612 -0.328046E+02  0.560E-02    3.69       0.0  T
   2    -32.8045616 -0.364152E-06  0.331E-02    3.69       1.0  T
   3    -32.8045613  0.259240E-06  0.441E-03    3.69       4.6  T
   4    -32.8045617 -0.339729E-06  0.162E-03    3.69      12.6  T
   5    -32.8045617 -0.346332E-07  0.660E-04    3.69      30.9  T
   6    -32.8045617 -0.127388E-08  0.280E-04    3.69      72.9  T
     SCC iter.                  ...        0 min,  0.008 sec
     gradient                   ...        0 min,  0.002 sec
 * total energy  :   -32.3839714 Eh     change       -0.5276819E-04 Eh
   gradient norm :     0.0022722 Eh/α   predicted    -0.3424052E-04 ( -35.11%)
   displ. norm   :     0.1765077 α      lambda       -0.5469055E-04
   maximum displ.:     0.1238280 α      in ANC's #1, #4, #7, ...

........................................................................
.............................. CYCLE   13 ..............................
........................................................................

 iter      E             dE          RMSdq      gap      omega  full diag
   1    -32.8042302 -0.328042E+02  0.529E-02    3.70       0.0  T
   2    -32.8042305 -0.278683E-06  0.313E-02    3.70       1.0  T
   3    -32.8042303  0.239542E-06  0.420E-03    3.70       4.9  T
   4    -32.8042306 -0.313415E-06  0.141E-03    3.70      14.4  T
   5    -32.8042306 -0.255811E-07  0.610E-04    3.70      33.5  T
   6    -32.8042306 -0.876824E-09  0.236E-04    3.70      86.5  T
     SCC iter.                  ...        0 min,  0.026 sec
     gradient                   ...        0 min,  0.002 sec
 * total energy  :   -32.3840149 Eh     change       -0.4349687E-04 Eh
   gradient norm :     0.0019561 Eh/α   predicted    -0.2819990E-04 ( -35.17%)
   displ. norm   :     0.3250874 α      lambda       -0.6280337E-04
   maximum displ.:     0.2277838 α      in ANC's #1, #4, #10, ...

........................................................................
.............................. CYCLE   14 ..............................
........................................................................

 iter      E             dE          RMSdq      gap      omega  full diag
   1    -32.8053119 -0.328053E+02  0.969E-02    3.70       0.0  T
   2    -32.8053129 -0.928690E-06  0.573E-02    3.70       1.0  T
   3    -32.8053125  0.343468E-06  0.587E-03    3.70       3.5  T
   4    -32.8053131 -0.526066E-06  0.251E-03    3.70       8.1  T
   5    -32.8053131 -0.859549E-07  0.104E-03    3.70      19.7  T
   6    -32.8053131 -0.196965E-08  0.312E-04    3.70      65.5  T
   7    -32.8053131 -0.540126E-09  0.101E-04    3.70     201.5  T
     SCC iter.                  ...        0 min,  0.010 sec
     gradient                   ...        0 min,  0.002 sec
 * total energy  :   -32.3840619 Eh     change       -0.4701437E-04 Eh
   gradient norm :     0.0033190 Eh/α   predicted    -0.3287966E-04 ( -30.06%)
   displ. norm   :     0.1633429 α      lambda       -0.5138904E-04
   maximum displ.:     0.1137594 α      in ANC's #1, #4, #7, ...

........................................................................
.............................. CYCLE   15 ..............................
........................................................................

 iter      E             dE          RMSdq      gap      omega  full diag
   1    -32.8038795 -0.328039E+02  0.462E-02    3.70       0.0  T
   2    -32.8038799 -0.391325E-06  0.272E-02    3.70       1.0  T
   3    -32.8038800 -0.629978E-07  0.159E-03    3.70      12.8  T
   4    -32.8038800 -0.609960E-08  0.763E-04    3.70      26.8  T
   5    -32.8038800 -0.437268E-10  0.308E-04    3.70      66.2  T
     SCC iter.                  ...        0 min,  0.007 sec
     gradient                   ...        0 min,  0.002 sec
 * total energy  :   -32.3840898 Eh     change       -0.2790273E-04 Eh
   gradient norm :     0.0031649 Eh/α   predicted    -0.2638103E-04 (  -5.45%)
   displ. norm   :     0.0632052 α      lambda       -0.3448828E-04
   maximum displ.:     0.0399170 α      in ANC's #2, #1, #6, ...

........................................................................
.............................. CYCLE   16 ..............................
........................................................................

 iter      E             dE          RMSdq      gap      omega  full diag
   1    -32.8048316 -0.328048E+02  0.181E-02    3.70       0.0  T
   2    -32.8048318 -0.146029E-06  0.106E-02    3.70       1.9  T
   3    -32.8048316  0.131114E-06  0.309E-03    3.70       6.6  T
   4    -32.8048318 -0.142369E-06  0.103E-03    3.70      19.9  T
   5    -32.8048318 -0.177333E-07  0.254E-04    3.70      80.2  T
   6    -32.8048318 -0.230898E-09  0.139E-04    3.70     147.0  T
     SCC iter.                  ...        0 min,  0.008 sec
     gradient                   ...        0 min,  0.002 sec
 * total energy  :   -32.3841174 Eh     change       -0.2761824E-04 Eh
   gradient norm :     0.0020391 Eh/α   predicted    -0.1731624E-04 ( -37.30%)
   displ. norm   :     0.1343339 α      lambda       -0.4143624E-04
   maximum displ.:     0.0993639 α      in ANC's #1, #2, #4, ...

........................................................................
.............................. CYCLE   17 ..............................
........................................................................

 iter      E             dE          RMSdq      gap      omega  full diag
   1    -32.8051241 -0.328051E+02  0.382E-02    3.69       0.0  T
   2    -32.8051244 -0.337699E-06  0.225E-02    3.69       1.0  T
   3    -32.8051236  0.802409E-06  0.700E-03    3.69       2.9  T
   4    -32.8051245 -0.905805E-06  0.152E-03    3.69      13.4  T
   5    -32.8051246 -0.343215E-07  0.488E-04    3.69      41.9  T
   6    -32.8051246 -0.698556E-09  0.241E-04    3.69      84.7  T
     SCC iter.                  ...        0 min,  0.008 sec
     gradient                   ...        0 min,  0.002 sec
 * total energy  :   -32.3841469 Eh     change       -0.2945290E-04 Eh
   gradient norm :     0.0010690 Eh/α   predicted    -0.2109282E-04 ( -28.38%)
   displ. norm   :     0.1469253 α      lambda       -0.1772710E-04
   maximum displ.:     0.1112434 α      in ANC's #1, #2, #4, ...

........................................................................
.............................. CYCLE   18 ..............................
........................................................................

 iter      E             dE          RMSdq      gap      omega  full diag
   1    -32.8055013 -0.328055E+02  0.422E-02    3.69       0.0  T
   2    -32.8055015 -0.196336E-06  0.248E-02    3.69       1.0  T
   3    -32.8055014  0.670772E-07  0.254E-03    3.69       8.0  T
   4    -32.8055015 -0.906687E-07  0.114E-03    3.69      18.0  T
   5    -32.8055015 -0.215063E-07  0.393E-04    3.69      52.0  T
   6    -32.8055015 -0.314749E-09  0.143E-04    3.69     142.6  T
     SCC iter.                  ...        0 min,  0.008 sec
     gradient                   ...        0 min,  0.002 sec
 * total energy  :   -32.3841654 Eh     change       -0.1846540E-04 Eh
   gradient norm :     0.0020805 Eh/α   predicted    -0.8952667E-05 ( -51.52%)
   displ. norm   :     0.0682496 α      lambda       -0.1349439E-04
   maximum displ.:     0.0532724 α      in ANC's #1, #2, #7, ...

........................................................................
.............................. CYCLE   19 ..............................
........................................................................

 iter      E             dE          RMSdq      gap      omega  full diag
   1    -32.8052297 -0.328052E+02  0.215E-02    3.69       0.0  T
   2    -32.8052298 -0.108908E-06  0.127E-02    3.69       1.6  T
   3    -32.8052298  0.750521E-07  0.225E-03    3.69       9.1  T
   4    -32.8052298 -0.792485E-07  0.870E-04    3.69      23.5  T
   5    -32.8052299 -0.134522E-07  0.205E-04    3.69      99.4  T
     SCC iter.                  ...        0 min,  0.007 sec
     gradient                   ...        0 min,  0.002 sec
 * total energy  :   -32.3841769 Eh     change       -0.1155940E-04 Eh
   gradient norm :     0.0015134 Eh/α   predicted    -0.6779156E-05 ( -41.35%)
   displ. norm   :     0.1467410 α      lambda       -0.2166650E-04
   maximum displ.:     0.1059745 α      in ANC's #1, #2, #5, ...

........................................................................
.............................. CYCLE   20 ..............................
........................................................................

 iter      E             dE          RMSdq      gap      omega  full diag
   1    -32.8051226 -0.328051E+02  0.490E-02    3.69       0.0  T
   2    -32.8051229 -0.255598E-06  0.288E-02    3.69       1.0  T
   3    -32.8051229  0.470018E-08  0.176E-03    3.69      11.6  T
   4    -32.8051229 -0.452017E-07  0.655E-04    3.69      31.2  T
   5    -32.8051229 -0.344297E-08  0.336E-04    3.69      60.8  T
     SCC iter.                  ...        0 min,  0.007 sec
     gradient                   ...        0 min,  0.002 sec
 * total energy  :   -32.3842010 Eh     change       -0.2404209E-04 Eh
   gradient norm :     0.0011243 Eh/α   predicted    -0.1093828E-04 ( -54.50%)
   displ. norm   :     0.1417077 α      lambda       -0.1263098E-04
   maximum displ.:     0.1036667 α      in ANC's #1, #2, #5, ...
 * RMSD in coord.:     0.4934732 α      energy gain  -0.1941724E-01 Eh

generating ANC from exact Hessian ...
Using Lindh-Hessian (1995)
 Shifting diagonal of input Hessian by   9.283774515292068E-003
 Lowest  eigenvalues of input Hessian
    0.000000    0.000000    0.000000    0.000000    0.000000    0.000000
    0.010000    0.010794    0.011325    0.012752    0.014934    0.015139
    0.016551    0.018335    0.020772    0.023775    0.027457    0.028601
 Highest eigenvalues
    1.280278    1.293555    1.467152    1.821142    1.955650    2.398529
 

........................................................................
.............................. CYCLE   21 ..............................
........................................................................

 iter      E             dE          RMSdq      gap      omega  full diag
   1    -32.8048023 -0.328048E+02  0.512E-02    3.69       0.0  T
   2    -32.8048024 -0.826485E-07  0.301E-02    3.69       1.0  T
   3    -32.8048024 -0.262333E-07  0.101E-03    3.69      20.1  T
   4    -32.8048025 -0.841778E-08  0.511E-04    3.69      39.9  T
   5    -32.8048025 -0.198685E-08  0.310E-04    3.69      65.8  T
     SCC iter.                  ...        0 min,  0.006 sec
     gradient                   ...        0 min,  0.002 sec
 * total energy  :   -32.3842134 Eh     change       -0.1242059E-04 Eh
   gradient norm :     0.0011216 Eh/α   predicted     0.0000000E+00 (-100.00%)
   displ. norm   :     0.0173015 α      lambda       -0.1221300E-05
   maximum displ.:     0.0120702 α      in ANC's #1, #2, #3, ...

........................................................................
.............................. CYCLE   22 ..............................
........................................................................

 iter      E             dE          RMSdq      gap      omega  full diag
   1    -32.8051577 -0.328052E+02  0.967E-03    3.69       0.0  T
   2    -32.8051578 -0.263835E-07  0.570E-03    3.69       3.6  T
   3    -32.8051577  0.838684E-08  0.823E-04    3.69      24.8  T
   4    -32.8051578 -0.933809E-08  0.438E-04    3.69      46.6  T
     SCC iter.                  ...        0 min,  0.005 sec
     gradient                   ...        0 min,  0.003 sec
 * total energy  :   -32.3842170 Eh     change       -0.3655987E-05 Eh
   gradient norm :     0.0004054 Eh/α   predicted    -0.1895960E-05 ( -48.14%)
   displ. norm   :     0.0169637 α      lambda        0.4777294E-06
   maximum displ.:     0.0118246 α      in ANC's #1, #2, #3, ...

   *** GEOMETRY OPTIMIZATION CONVERGED AFTER 22 ITERATIONS ***

------------------------------------------------------------------------
 total energy gain   :        -0.0194333 Eh      -12.1946 kcal/mol
 total RMSD          :         0.4947228 a0        0.2618 Å
 total power (kW/mol):        -2.3191895 (step) -147.3671 (real)
------------------------------------------------------------------------

 ANCopt (total)                0 d,  0 h,  0 min,  0.346 sec
 optimizer setup                ...        0 min,  0.000 sec (  0.033%)
 model hessian                  ...        0 min,  0.028 sec (  8.132%)
 ANC generation                 ...        0 min,  0.001 sec (  0.425%)
 coordinate transformation      ...        0 min,  0.000 sec (  0.058%)
 single point calculation       ...        0 min,  0.304 sec ( 87.928%)
 optimization log               ...        0 min,  0.005 sec (  1.372%)
 hessian update                 ...        0 min,  0.004 sec (  1.164%)
 rational function              ...        0 min,  0.002 sec (  0.606%)

================
 final structure:
================
24
 xtb: 6.7.1 (edcfbbe)
C           -2.97142828747416       -0.53416639389132       -0.66646254324247
C           -2.43614174245660        0.45267636582313        0.36548419062626
C           -0.92404087291045        0.70417838642151        0.29330233942011
C           -0.50316382198921        1.37743299014448       -1.01099340781049
C           -0.13613230933696       -0.58703424923559        0.50288130017579
O            1.22368861872700       -0.24842712970237        0.77143812683492
C            2.05374003568682       -1.27529448576803        0.97731349600603
O            1.70127249034261       -2.43051579506345        0.95552688639632
C            3.44891364684040       -0.85050904576289        1.23143073711140
C            3.86409539259343        0.40551722511141        1.17072845208247
H           -2.77037200139237       -0.19216988690807       -1.67763499063877
H           -2.52670655838879       -1.51667891342904       -0.53521773591915
H           -4.04863634941089       -0.63310759987227       -0.55373391521602
H           -2.94532657004745        1.41038820137781        0.23698919443735
H           -2.68005134316800        0.08319998218494        1.36432930203290
H           -0.66154674350420        1.37390952170674        1.12033954532590
H           -1.04576341941599        2.30959974388759       -1.14918996054602
H           -0.69732373268061        0.73106647577375       -1.86293661096474
H            0.56135692063069        1.59587487361749       -0.98587843710298
H           -0.53114687113472       -1.15946194430109        1.35042078191054
H           -0.16764191235656       -1.22722104726449       -0.38508592036054
H            4.11623469139511       -1.66881280853616        1.46111576798948
H            3.18471477606228        1.20719058857311        0.93509746115877
H            4.89140396338889        0.67236594511301        1.35390494029409
 
 Bond Distances (Angstroems)
 ---------------------------
C1-C2=1.5249         C1-H11=1.0862        C1-H12=1.0864        C1-H13=1.0876        C2-C1=1.5249         C2-C3=1.5346         
C2-H14=1.0922        C2-H15=1.0926        C3-C2=1.5346         C3-C4=1.5270         C3-C5=1.5271         C3-H16=1.0961        
C4-C3=1.5270         C4-H17=1.0874        C4-H18=1.0869        C4-H19=1.0870        C5-C3=1.5271         C5-O6=1.4268         
C5-H20=1.0964        C5-H21=1.0951        O6-C5=1.4268         O6-C7=1.3363         C7-O6=1.3363         C7-O8=1.2080         
C7-C9=1.4804         O8-C7=1.2080         C9-C7=1.4804         C9-C10=1.3243        C9-H22=1.0806        C10-C9=1.3243        
C10-H23=1.0769       C10-H24=1.0771       H11-C1=1.0862        H12-C1=1.0864        H13-C1=1.0876        H14-C2=1.0922        
H15-C2=1.0926        H16-C3=1.0961        H17-C4=1.0874        H18-C4=1.0869        H19-C4=1.0870        H20-C5=1.0964        
H21-C5=1.0951        H22-C9=1.0806        H23-C10=1.0769       H24-C10=1.0771       
 C  H  Rav=1.0878 sigma=0.0062  Rmin=1.0769  Rmax=1.0964    14
 C  C  Rav=1.4864 sigma=0.0746  Rmin=1.3243  Rmax=1.5346     6
 O  C  Rav=1.3237 sigma=0.0898  Rmin=1.2080  Rmax=1.4268     3
 
 selected bond angles (degree)
 --------------------
H11-C1-C2=111.18               H12-C1-C2=111.09               H12-C1-H11=108.75              H13-C1-C2=109.66               
H13-C1-H11=107.97              H13-C1-H12=108.10              C3-C2-C1=114.84                H14-C2-C1=108.92               
H14-C2-C3=108.07               H15-C2-C1=108.75               H15-C2-C3=108.57               H15-C2-H14=107.46              
C4-C3-C2=112.58                C5-C3-C2=111.31                C5-C3-C4=110.35                H16-C3-C2=107.49               
H16-C3-C4=108.00               H16-C3-C5=106.83               H17-C4-C3=110.43               H18-C4-C3=110.98               
H18-C4-H17=108.73              H19-C4-C3=109.80               H19-C4-H17=108.62              H19-C4-H18=108.21              
O6-C5-C3=108.48                H20-C5-C3=111.20               H20-C5-O6=108.77               H21-C5-C3=111.60               
H21-C5-O6=108.59               H21-C5-H20=108.13              C7-O6-C5=116.01                O8-C7-O6=123.42                
C9-C7-O6=113.04                C9-C7-O8=123.54                C10-C9-C7=124.04               H22-C9-C7=113.65               
H22-C9-C10=122.30              H23-C10-C9=121.22              H24-C10-C9=121.75              H24-C10-H23=117.03             
 
 selected dihedral angles (degree)
 ---------------------------------
C3-C2-C1-H11=300.51           C3-C2-C1-H12= 61.76           C3-C2-C1-H13=181.19           H14-C2-C1-H11= 61.83          
H14-C2-C1-H12=183.09          H14-C2-C1-H13=302.51          H15-C2-C1-H11=178.66          H15-C2-C1-H12=299.91          
H15-C2-C1-H13= 59.34          C4-C3-C2-C1= 64.76            C4-C3-C2-H14=302.97           C4-C3-C2-H15=186.71           
C5-C3-C2-C1=300.25            C5-C3-C2-H14=178.46           C5-C3-C2-H15= 62.20           H16-C3-C2-C1=183.58           
H16-C3-C2-H14= 61.79          H16-C3-C2-H15=305.53          H17-C4-C3-C2= 56.37           H17-C4-C3-C5=181.40           
H17-C4-C3-H16=297.84          H18-C4-C3-C2=295.72           H18-C4-C3-C5= 60.76           H18-C4-C3-H16=177.20          
H19-C4-C3-C2=176.12           H19-C4-C3-C5=301.16           H19-C4-C3-H16= 57.60          O6-C5-C3-C2=194.89            
O6-C5-C3-C4= 69.13            O6-C5-C3-H16=311.96           H20-C5-C3-C2=314.46           H20-C5-C3-C4=188.70           
H20-C5-C3-H16= 71.53          H21-C5-C3-C2= 75.30           H21-C5-C3-C4=309.54           H21-C5-C3-H16=192.37          
C7-O6-C5-C3=180.13            C7-O6-C5-H20= 59.05           C7-O6-C5-H21=301.59           O8-C7-O6-C5=359.36            
C9-C7-O6-C5=179.23            C10-C9-C7-O6=355.49           C10-C9-C7-O8=175.35           H22-C9-C7-O6=176.34           
H22-C9-C7-O8=356.20           H23-C10-C9-C7=  0.59          H23-C10-C9-H22=179.67         H24-C10-C9-C7=180.58          
H24-C10-C9-H22=359.65         
           -------------------------------------------------
          |                Final Singlepoint                |
           -------------------------------------------------

          ...................................................
          :                      SETUP                      :
          :.................................................:
          :  # basis functions                  54          :
          :  # atomic orbitals                  54          :
          :  # shells                           34          :
          :  # electrons                        58          :
          :  max. iterations                   250          :
          :  Hamiltonian                  GFN2-xTB          :
          :  restarted?                      false          :
          :  GBSA solvation                  false          :
          :  PC potential                    false          :
          :  electronic temp.          300.0000000     K    :
          :  accuracy                    1.0000000          :
          :  -> integral cutoff          0.2500000E+02      :
          :  -> integral neglect         0.1000000E-07      :
          :  -> SCF convergence          0.1000000E-05 Eh   :
          :  -> wf. convergence          0.1000000E-03 e    :
          :  Broyden damping             0.4000000          :
          :  net charge                          0          :
          :  unpaired electrons                  0          :
          ...................................................

 iter      E             dE          RMSdq      gap      omega  full diag
   1    -32.8051578 -0.328052E+02  0.116E-04    3.69       0.0  T
   2    -32.8051578 -0.156248E-10  0.691E-05    3.69     295.5  T
   3    -32.8051578  0.104450E-11  0.233E-05    3.69     874.9  T

   *** convergence criteria satisfied after 3 iterations ***

         #    Occupation            Energy/Eh            Energy/eV
      -------------------------------------------------------------
         1        2.0000           -0.7384174             -20.0934
       ...           ...                  ...                  ...
        23        2.0000           -0.4598288             -12.5126
        24        2.0000           -0.4418253             -12.0227
        25        2.0000           -0.4385657             -11.9340
        26        2.0000           -0.4360559             -11.8657
        27        2.0000           -0.4343794             -11.8201
        28        2.0000           -0.4300417             -11.7020
        29        2.0000           -0.4111615             -11.1883 (HOMO)
        30                         -0.2754908              -7.4965 (LUMO)
        31                         -0.1639402              -4.4610
        32                          0.0015686               0.0427
        33                          0.0719318               1.9574
        34                          0.0884690               2.4074
       ...                                ...                  ...
        54                          0.7007999              19.0697
      -------------------------------------------------------------
                  HL-Gap            0.1356707 Eh            3.6918 eV
             Fermi-level           -0.3433261 Eh           -9.3424 eV

 SCC (total)                   0 d,  0 h,  0 min,  0.007 sec
 SCC setup                      ...        0 min,  0.000 sec (  3.077%)
 Dispersion                     ...        0 min,  0.000 sec (  2.311%)
 classical contributions        ...        0 min,  0.000 sec (  1.027%)
 integral evaluation            ...        0 min,  0.001 sec (  9.201%)
 iterations                     ...        0 min,  0.003 sec ( 46.874%)
 molecular gradient             ...        0 min,  0.002 sec ( 32.315%)
 printout                       ...        0 min,  0.000 sec (  4.853%)

         :::::::::::::::::::::::::::::::::::::::::::::::::::::
         ::                     SUMMARY                     ::
         :::::::::::::::::::::::::::::::::::::::::::::::::::::
         :: total energy             -32.384217031113 Eh    ::
         :: gradient norm              0.000406299269 Eh/a0 ::
         :: HOMO-LUMO gap              3.691786315812 eV    ::
         ::.................................................::
         :: SCC energy               -32.805112267793 Eh    ::
         :: -> isotropic ES            0.047264090613 Eh    ::
         :: -> anisotropic ES          0.003414473655 Eh    ::
         :: -> anisotropic XC          0.012411080563 Eh    ::
         :: -> dispersion             -0.016252526074 Eh    ::
         :: repulsion energy           0.420895236680 Eh    ::
         :: add. restraining           0.000000000000 Eh    ::
         :: total charge               0.000000000000 e     ::
         :::::::::::::::::::::::::::::::::::::::::::::::::::::

           -------------------------------------------------
          |                Property Printout                |
           -------------------------------------------------

    * Orbital Energies and Occupations

         #    Occupation            Energy/Eh            Energy/eV
      -------------------------------------------------------------
         1        2.0000           -0.7384174             -20.0934
       ...           ...                  ...                  ...
        17        2.0000           -0.5009950             -13.6328
        18        2.0000           -0.4932406             -13.4218
        19        2.0000           -0.4811917             -13.0939
        20        2.0000           -0.4757515             -12.9459
        21        2.0000           -0.4703780             -12.7996
        22        2.0000           -0.4637989             -12.6206
        23        2.0000           -0.4598288             -12.5126
        24        2.0000           -0.4418253             -12.0227
        25        2.0000           -0.4385657             -11.9340
        26        2.0000           -0.4360559             -11.8657
        27        2.0000           -0.4343794             -11.8201
        28        2.0000           -0.4300417             -11.7020
        29        2.0000           -0.4111615             -11.1883 (HOMO)
        30                         -0.2754908              -7.4965 (LUMO)
        31                         -0.1639402              -4.4610
        32                          0.0015686               0.0427
        33                          0.0719318               1.9574
        34                          0.0884690               2.4074
        35                          0.1041981               2.8354
        36                          0.1169809               3.1832
        37                          0.1245320               3.3887
        38                          0.1322757               3.5994
        39                          0.1331246               3.6225
        40                          0.1417127               3.8562
       ...                                ...                  ...
        54                          0.7007999              19.0697
      -------------------------------------------------------------
                  HL-Gap            0.1356707 Eh            3.6918 eV
             Fermi-level           -0.3433261 Eh           -9.3424 eV

     #   Z          covCN         q      C6AA      α(0)
     1   6 C        3.751    -0.107    22.613     6.782
     2   6 C        3.802    -0.062    21.681     6.629
     3   6 C        3.849    -0.020    20.897     6.502
     4   6 C        3.755    -0.108    22.620     6.782
     5   6 C        3.710     0.080    19.379     6.291
     6   8 O        1.704    -0.263    18.361     5.785
     7   6 C        2.726     0.355    20.976     7.498
     8   8 O        0.857    -0.416    22.012     6.290
     9   6 C        2.887    -0.057    29.423     8.893
    10   6 C        2.838    -0.063    29.559     8.910
    11   1 H        0.925     0.041     2.438     2.442
    12   1 H        0.925     0.036     2.497     2.471
    13   1 H        0.925     0.039     2.465     2.455
    14   1 H        0.924     0.040     2.445     2.445
    15   1 H        0.924     0.033     2.544     2.494
    16   1 H        0.924     0.045     2.389     2.417
    17   1 H        0.925     0.040     2.448     2.447
    18   1 H        0.925     0.042     2.427     2.436
    19   1 H        0.925     0.044     2.393     2.419
    20   1 H        0.924     0.048     2.343     2.394
    21   1 H        0.924     0.053     2.282     2.363
    22   1 H        0.926     0.070     2.083     2.257
    23   1 H        0.926     0.070     2.089     2.260
    24   1 H        0.926     0.061     2.186     2.312

 Mol. C6AA /au·bohr⁶  :       4744.861391
 Mol. C8AA /au·bohr⁸  :     103552.224056
 Mol. α(0) /au        :        103.974879


Wiberg/Mayer (AO) data.
largest (>0.10) Wiberg bond orders for each atom

 ---------------------------------------------------------------------------
     #   Z sym  total        # sym  WBO       # sym  WBO       # sym  WBO
 ---------------------------------------------------------------------------
     1   6 C    3.996 --     2 C    1.020    12 H    0.987    13 H    0.987
                            11 H    0.985
     2   6 C    3.996 --     1 C    1.020     3 C    0.994    15 H    0.978
                            14 H    0.977
     3   6 C    3.992 --     4 C    1.010     2 C    0.994     5 C    0.993
                            16 H    0.966
     4   6 C    3.996 --     3 C    1.010    17 H    0.986    19 H    0.985
                            18 H    0.984
     5   6 C    3.925 --     3 C    0.993    20 H    0.966    21 H    0.965
                             6 O    0.938
     6   8 O    2.309 --     7 C    1.130     5 C    0.938     8 O    0.174
     7   6 C    3.921 --     8 O    1.721     6 O    1.130     9 C    1.011
     8   8 O    2.027 --     7 C    1.721     6 O    0.174
     9   6 C    3.988 --    10 C    1.936     7 C    1.011    22 H    0.963
    10   6 C    3.985 --     9 C    1.936    24 H    0.975    23 H    0.972
    11   1 H    0.998 --     1 C    0.985
    12   1 H    0.999 --     1 C    0.987
    13   1 H    0.998 --     1 C    0.987
    14   1 H    0.998 --     2 C    0.977
    15   1 H    0.999 --     2 C    0.978
    16   1 H    0.998 --     3 C    0.966
    17   1 H    0.998 --     4 C    0.986
    18   1 H    0.998 --     4 C    0.984
    19   1 H    0.998 --     4 C    0.985
    20   1 H    0.998 --     5 C    0.966
    21   1 H    0.997 --     5 C    0.965
    22   1 H    0.995 --     9 C    0.963
    23   1 H    0.995 --    10 C    0.972
    24   1 H    0.996 --    10 C    0.975
 ---------------------------------------------------------------------------

Topologies differ in total number of bonds
Writing topology from bond orders to xtbtopo.mol

molecular dipole:
                 x           y           z       tot (Debye)
 q only:       -0.155       1.099      -0.157
   full:       -0.093       1.126      -0.122       2.889
molecular quadrupole (traceless):
                xx          xy          yy          xz          yz          zz
 q only:        8.954       4.971      -8.481       1.448       2.688      -0.473
  q+dip:        8.884       5.112      -8.903       1.363       2.752       0.019
   full:        8.880       5.121     -10.067       1.092       2.943       1.187

           -------------------------------------------------
          |                Geometry Summary                 |
           -------------------------------------------------

      molecular mass/u    :      142.1958675
   center of mass at/Å    :        0.4937585      -0.3062067       0.4409638
  moments of inertia/u·Å² :        0.1896595E+03   0.8016056E+03   0.9271091E+03
rotational constants/cm⁻¹ :        0.8888369E-01   0.2102983E-01   0.1818301E-01

 * 22 selected distances

     #   Z          #   Z                                           value/Å
     1   6 C        2   6 C                                       1.5248950
     2   6 C        3   6 C                                       1.5345726 (max)
     3   6 C        4   6 C                                       1.5269568
     3   6 C        5   6 C                                       1.5270736
     5   6 C        6   8 O                                       1.4268465
     6   8 O        7   6 C                                       1.3363484
     7   6 C        8   8 O                                       1.2079920
     9   6 C       10   6 C                                       1.3242594
     1   6 C       11   1 H                                       1.0862114
     1   6 C       12   1 H                                       1.0864316
     1   6 C       13   1 H                                       1.0876004
     2   6 C       14   1 H                                       1.0922419
     2   6 C       15   1 H                                       1.0925642
     3   6 C       16   1 H                                       1.0960993
     4   6 C       17   1 H                                       1.0874041
     4   6 C       18   1 H                                       1.0868740
     4   6 C       19   1 H                                       1.0869923
     5   6 C       20   1 H                                       1.0963728
     5   6 C       21   1 H                                       1.0951338
     9   6 C       22   1 H                                       1.0805988
    10   6 C       23   1 H                                       1.0769217 (min)
    10   6 C       24   1 H                                       1.0770910

 * 3 distinct bonds (by element types)

   Z      Z             #   av. dist./Å        max./Å        min./Å
   1 H    6 C          14     1.0877527     1.0963728     1.0769217
   6 C    6 C           5     1.4875515     1.5345726     1.3242594
   6 C    8 O           3     1.3237289     1.4268465     1.2079920


optimized geometry written to: xtbopt.xyz


           -------------------------------------------------
          | TOTAL ENERGY              -32.384217031113 Eh   |
          | GRADIENT NORM               0.000406299269 Eh/α |
          | HOMO-LUMO GAP               3.691786315812 eV   |
           -------------------------------------------------

------------------------------------------------------------------------
 * finished run on 2025/12/01 at 14:17:51.565     
------------------------------------------------------------------------
 total:
 * wall-time:     0 d,  0 h,  0 min,  0.389 sec
 *  cpu-time:     0 d,  0 h,  0 min,  8.837 sec
 * ratio c/w:    22.709 speedup
 SCF:
 * wall-time:     0 d,  0 h,  0 min,  0.020 sec
 *  cpu-time:     0 d,  0 h,  0 min,  0.462 sec
 * ratio c/w:    22.569 speedup
 ANC optimizer:
 * wall-time:     0 d,  0 h,  0 min,  0.355 sec
 *  cpu-time:     0 d,  0 h,  0 min,  8.141 sec
 * ratio c/w:    22.956 speedup

normal termination of xtb
