      -----------------------------------------------------------      
     |                   =====================                   |     
     |                           x T B                           |     
     |                   =====================                   |     
     |                         S. Grimme                         |     
     |          Mulliken Center for Theoretical Chemistry        |     
     |                    University of Bonn                     |     
      -----------------------------------------------------------      

   * xtb version 6.7.1 (edcfbbe) compiled by 'albert@albert-system' on 2024-07-22

   xtb is free software: you can redistribute it and/or modify it under
   the terms of the GNU Lesser General Public License as published by
   the Free Software Foundation, either version 3 of the License, or
   (at your option) any later version.
   
   xtb is distributed in the hope that it will be useful,
   but WITHOUT ANY WARRANTY; without even the implied warranty of
   MERCHANTABILITY or FITNESS FOR A PARTICULAR PURPOSE.  See the
   GNU Lesser General Public License for more details.
   
   Cite this work as:
   * C. Bannwarth, E. Caldeweyher, S. Ehlert, A. Hansen, P. Pracht,
     J. Seibert, S. Spicher, S. Grimme, WIREs Comput. Mol. Sci., 2020, 11,
     e01493. DOI: 10.1002/wcms.1493
   
   for GFN2-xTB:
   * C. Bannwarth, S. Ehlert and S. Grimme., J. Chem. Theory Comput., 2019,
     15, 1652-1671. DOI: 10.1021/acs.jctc.8b01176
   for GFN1-xTB:
   * S. Grimme, C. Bannwarth, P. Shushkov, J. Chem. Theory Comput., 2017,
     13, 1989-2009. DOI: 10.1021/acs.jctc.7b00118
   for GFN0-xTB:
   * P. Pracht, E. Caldeweyher, S. Ehlert, S. Grimme, ChemRxiv, 2019, preprint.
     DOI: 10.26434/chemrxiv.8326202.v1
   for GFN-FF:
   * S. Spicher and S. Grimme, Angew. Chem. Int. Ed., 2020, 59, 15665-15673.
     DOI: 10.1002/anie.202004239
   
   for ALPB and GBSA implicit solvation:
   * S. Ehlert, M. Stahn, S. Spicher, S. Grimme, J. Chem. Theory Comput.,
     2021, 17, 4250-4261. DOI: 10.1021/acs.jctc.1c00471
   
   for ddCOSMO and CPCM-X implicit solvation:
   * M. Stahn, S. Ehlert, S. Grimme, J. Phys. Chem. A,
     2023, XX, XXXX-XXXX. DOI: 10.1021/acs.jpca.3c04382
   
   for DFT-D4:
   * E. Caldeweyher, C. Bannwarth and S. Grimme, J. Chem. Phys., 2017,
     147, 034112. DOI: 10.1063/1.4993215
   * E. Caldeweyher, S. Ehlert, A. Hansen, H. Neugebauer, S. Spicher,
     C. Bannwarth and S. Grimme, J. Chem. Phys., 2019, 150, 154122.
     DOI: 10.1063/1.5090222
   * E. Caldeweyher, J.-M. Mewes, S. Ehlert and S. Grimme, Phys. Chem. Chem. Phys.
     2020, 22, 8499-8512. DOI: 10.1039/D0CP00502A
   
   for sTDA-xTB:
   * S. Grimme and C. Bannwarth, J. Chem. Phys., 2016, 145, 054103.
     DOI: 10.1063/1.4959605
   
   in the mass-spec context:
   * V. Asgeirsson, C. Bauer and S. Grimme, Chem. Sci., 2017, 8, 4879.
     DOI: 10.1039/c7sc00601b
   * J. Koopman and S. Grimme, ACS Omega 2019, 4, 12, 15120-15133.
     DOI: 10.1021/acsomega.9b02011
   
   for metadynamics refer to:
   * S. Grimme, J. Chem. Theory Comput., 2019, 155, 2847-2862
     DOI: 10.1021/acs.jctc.9b00143
   
   for SPH calculations refer to:
   * S. Spicher and S. Grimme, J. Chem. Theory Comput., 2021, 17, 1701-1714
     DOI: 10.1021/acs.jctc.0c01306
   
   for ONIOM refer to:
   * C. Plett, A. Katbashev, S. Ehlert, S. Grimme, M. Bursch,
     Phys. Chem. Chem. Phys., 2023, 25, 17860-17868. DOI: 10.1039/D3CP02178E
   
   for DIPRO refer to:
   * J. Kohn, N. Gildemeister, S. Grimme, D. Fazzi, A. Hansen,
     J. Chem. Phys., 2023, just accepted.
   
   for PTB refer to:
   * S. Grimme, M. Mueller, A. Hansen, J. Chem. Phys., 2023, 158, 124111.
     DOI: 10.1063/5.0137838
   
   with help from (in alphabetical order)
   P. Atkinson, C. Bannwarth, F. Bohle, G. Brandenburg, E. Caldeweyher
   M. Checinski, S. Dohm, S. Ehlert, S. Ehrlich, I. Gerasimov, C. Hölzer
   A. Katbashev, J. Kohn, J. Koopman, C. Lavigne, S. Lehtola, F. März, M. Müller,
   F. Musil, H. Neugebauer, J. Pisarek, C. Plett, P. Pracht, F. Pultar,
   J. Seibert, P. Shushkov, S. Spicher, M. Stahn, M. Steiner, T. Strunk,
   J. Stückrath, T. Rose, and J. Unsleber
   
 * started run on 2025/12/01 at 14:17:51.781     
   ID    Z sym.   atoms
    1    6 C      1-5, 7, 9, 10
    2    8 O      6, 8
    3    1 H      11-24

           -------------------------------------------------
          |                Calculation Setup                |
           -------------------------------------------------

          program call               : xtb pipeline_data/3_conformer_xyz/acrylates/rdkit/NCTBYWFEJFTVEL-ZETCQYMHSA-N_conf49.xyz --opt --gfn 2-xTB --iterations 250
          coordinate file            : pipeline_data/3_conformer_xyz/acrylates/rdkit/NCTBYWFEJFTVEL-ZETCQYMHSA-N_conf49.xyz
          omp threads                :                    24

########################################################################
[WARNING] Please study the warnings concerning your input carefully
-1- readin_getIntValue: could not parse '2-xTB'
########################################################################

           -------------------------------------------------
          |                 G F N 2 - x T B                 |
           -------------------------------------------------

        Reference                      10.1021/acs.jctc.8b01176
      * Hamiltonian:
        H0-scaling (s, p, d)           1.850000    2.230000    2.230000
        zeta-weighting                 0.500000
      * Dispersion:
        s8                             2.700000
        a1                             0.520000
        a2                             5.000000
        s9                             5.000000
      * Repulsion:
        kExp                           1.500000    1.000000
        rExp                           1.000000
      * Coulomb:
        alpha                          2.000000
        third order                    shell-resolved
        anisotropic                    true
        a3                             3.000000
        a5                             4.000000
        cn-shift                       1.200000
        cn-exp                         4.000000
        max-rad                        5.000000

q/qsh data taken from xtbrestart
CAMM data taken from xtbrestart

          ...................................................
          :                      SETUP                      :
          :.................................................:
          :  # basis functions                  54          :
          :  # atomic orbitals                  54          :
          :  # shells                           34          :
          :  # electrons                        58          :
          :  max. iterations                   250          :
          :  Hamiltonian                  GFN2-xTB          :
          :  restarted?                       true          :
          :  GBSA solvation                  false          :
          :  PC potential                    false          :
          :  electronic temp.          300.0000000     K    :
          :  accuracy                    1.0000000          :
          :  -> integral cutoff          0.2500000E+02      :
          :  -> integral neglect         0.1000000E-07      :
          :  -> SCF convergence          0.1000000E-05 Eh   :
          :  -> wf. convergence          0.1000000E-03 e    :
          :  Broyden damping             0.4000000          :
          :  net charge                          0          :
          :  unpaired electrons                  0          :
          ...................................................

 iter      E             dE          RMSdq      gap      omega  full diag
   1    -32.7347270 -0.327347E+02  0.495E+00    3.62       0.0  T
   2    -32.7422421 -0.751519E-02  0.292E+00    3.19       1.0  T
   3    -32.7332327  0.900941E-02  0.838E-01    3.55       1.0  T
   4    -32.7443038 -0.110711E-01  0.211E-01    3.32       1.0  T
   5    -32.7447647 -0.460852E-03  0.110E-01    3.32       1.0  T
   6    -32.7447903 -0.256238E-04  0.440E-02    3.34       1.0  T
   7    -32.7448084 -0.180496E-04  0.910E-03    3.33       2.2  T
   8    -32.7448086 -0.276437E-06  0.499E-03    3.33       4.1  T
   9    -32.7448087 -0.638476E-07  0.150E-03    3.33      13.6  T
  10    -32.7448087 -0.481488E-08  0.508E-04    3.33      40.2  T
  11    -32.7448087 -0.929063E-09  0.145E-04    3.33     140.9  T

   *** convergence criteria satisfied after 11 iterations ***

         #    Occupation            Energy/Eh            Energy/eV
      -------------------------------------------------------------
         1        2.0000           -0.7301049             -19.8672
       ...           ...                  ...                  ...
        23        2.0000           -0.4501003             -12.2479
        24        2.0000           -0.4451253             -12.1125
        25        2.0000           -0.4393411             -11.9551
        26        2.0000           -0.4358323             -11.8596
        27        2.0000           -0.4271975             -11.6246
        28        2.0000           -0.4186475             -11.3920
        29        2.0000           -0.4090549             -11.1310 (HOMO)
        30                         -0.2866886              -7.8012 (LUMO)
        31                         -0.1700849              -4.6282
        32                         -0.0176629              -0.4806
        33                          0.0677701               1.8441
        34                          0.0708182               1.9271
       ...                                ...                  ...
        54                          0.6168038              16.7841
      -------------------------------------------------------------
                  HL-Gap            0.1223663 Eh            3.3298 eV
             Fermi-level           -0.3478718 Eh           -9.4661 eV

 SCC (total)                   0 d,  0 h,  0 min,  0.020 sec
 SCC setup                      ...        0 min,  0.000 sec (  1.733%)
 Dispersion                     ...        0 min,  0.000 sec (  1.482%)
 classical contributions        ...        0 min,  0.000 sec (  0.412%)
 integral evaluation            ...        0 min,  0.001 sec (  4.326%)
 iterations                     ...        0 min,  0.016 sec ( 81.731%)
 molecular gradient             ...        0 min,  0.002 sec (  9.411%)
 printout                       ...        0 min,  0.000 sec (  0.733%)

         :::::::::::::::::::::::::::::::::::::::::::::::::::::
         ::                     SUMMARY                     ::
         :::::::::::::::::::::::::::::::::::::::::::::::::::::
         :: total energy             -32.356055635952 Eh    ::
         :: gradient norm              0.151879824890 Eh/a0 ::
         :: HOMO-LUMO gap              3.329755810012 eV    ::
         ::.................................................::
         :: SCC energy               -32.744775258809 Eh    ::
         :: -> isotropic ES            0.049826983392 Eh    ::
         :: -> anisotropic ES          0.003426109449 Eh    ::
         :: -> anisotropic XC          0.013577229063 Eh    ::
         :: -> dispersion             -0.016249528536 Eh    ::
         :: repulsion energy           0.388719622857 Eh    ::
         :: add. restraining           0.000000000000 Eh    ::
         :: total charge              -0.000000000000 e     ::
         :::::::::::::::::::::::::::::::::::::::::::::::::::::

      ----------------------------------------------------------- 
     |                   =====================                   |
     |                        A N C O P T                        |
     |                   =====================                   |
     |               Approximate Normal Coordinate               |
     |                Rational Function Optimizer                |
      ----------------------------------------------------------- 
      ----------------------------------------------------------- 
     |                   =====================                   |
     |                        A N C O P T                        |
     |                   =====================                   |
     |               Approximate Normal Coordinate               |
     |                Rational Function Optimizer                |
      ----------------------------------------------------------- 

          ...................................................
          :                      SETUP                      :
          :.................................................:
          :   optimization level            normal          :
          :   max. optcycles                   200          :
          :   ANC micro-cycles                  20          :
          :   degrees of freedom                66          :
          :.................................................:
          :   RF solver                   davidson          :
          :   write xtbopt.log                true          :
          :   linear?                        false          :
          :   energy convergence         0.5000000E-05 Eh   :
          :   grad. convergence          0.1000000E-02 Eh/α :
          :   maxmium RF displ.          1.0000000          :
          :   Hlow (freq-cutoff)         0.1000000E-01      :
          :   Hmax (freq-cutoff)         5.0000000          :
          :   S6 in model hess.         20.0000000          :
          ...................................................

generating ANC from exact Hessian ...
Using Lindh-Hessian (1995)
 Shifting diagonal of input Hessian by   8.983125340668327E-003
 Lowest  eigenvalues of input Hessian
    0.000000    0.000000    0.000000    0.000000    0.000000    0.000000
    0.010000    0.010421    0.010970    0.013088    0.014637    0.016402
    0.017391    0.018818    0.019936    0.021343    0.024316    0.028832
 Highest eigenvalues
    1.308922    1.375773    1.467816    1.763024    2.006320    2.112383
 

........................................................................
.............................. CYCLE    1 ..............................
........................................................................

 iter      E             dE          RMSdq      gap      omega  full diag
   1    -32.7448087 -0.327448E+02  0.332E-05    3.33       0.0  T
   2    -32.7448087 -0.277112E-11  0.206E-05    3.33     989.0  T
   3    -32.7448087  0.746070E-12  0.137E-05    3.33    1493.1  T
     SCC iter.                  ...        0 min,  0.003 sec
     gradient                   ...        0 min,  0.002 sec
 * total energy  :   -32.3560556 Eh     change       -0.3008438E-10 Eh
   gradient norm :     0.1518798 Eh/α   predicted     0.0000000E+00 (-100.00%)
   displ. norm   :     0.3583975 α      lambda       -0.2808599E-01
   maximum displ.:     0.1414162 α      in ANC's #18, #15, #42, ...

........................................................................
.............................. CYCLE    2 ..............................
........................................................................

 iter      E             dE          RMSdq      gap      omega  full diag
   1    -32.7827491 -0.327827E+02  0.350E-01    3.52       0.0  T
   2    -32.7830494 -0.300334E-03  0.213E-01    3.58       1.0  T
   3    -32.7829059  0.143486E-03  0.125E-01    3.58       1.0  T
   4    -32.7830964 -0.190499E-03  0.374E-02    3.59       1.0  T
   5    -32.7831205 -0.240307E-04  0.927E-03    3.58       2.2  T
   6    -32.7831210 -0.573418E-06  0.514E-03    3.59       4.0  T
   7    -32.7831211 -0.751974E-07  0.135E-03    3.58      15.1  T
   8    -32.7831211 -0.463062E-08  0.565E-04    3.58      36.1  T
   9    -32.7831211 -0.798927E-09  0.181E-04    3.58     112.8  T
     SCC iter.                  ...        0 min,  0.009 sec
     gradient                   ...        0 min,  0.002 sec
 * total energy  :   -32.3752956 Eh     change       -0.1924001E-01 Eh
   gradient norm :     0.0635466 Eh/α   predicted    -0.1586249E-01 ( -17.55%)
   displ. norm   :     0.3310720 α      lambda       -0.8166937E-02
   maximum displ.:     0.1600955 α      in ANC's #15, #9, #8, ...

........................................................................
.............................. CYCLE    3 ..............................
........................................................................

 iter      E             dE          RMSdq      gap      omega  full diag
   1    -32.8001690 -0.328002E+02  0.190E-01    3.70       0.0  T
   2    -32.8003053 -0.136372E-03  0.115E-01    3.76       1.0  T
   3    -32.8002772  0.281185E-04  0.720E-02    3.75       1.0  T
   4    -32.8003228 -0.456144E-04  0.251E-02    3.76       1.0  T
   5    -32.8003326 -0.975155E-05  0.466E-03    3.76       4.4  T
   6    -32.8003327 -0.118915E-06  0.248E-03    3.76       8.2  T
   7    -32.8003327 -0.242466E-07  0.765E-04    3.76      26.7  T
   8    -32.8003327 -0.152091E-08  0.321E-04    3.76      63.6  T
     SCC iter.                  ...        0 min,  0.008 sec
     gradient                   ...        0 min,  0.002 sec
 * total energy  :   -32.3802125 Eh     change       -0.4916865E-02 Eh
   gradient norm :     0.0166758 Eh/α   predicted    -0.4534845E-02 (  -7.77%)
   displ. norm   :     0.3004782 α      lambda       -0.1852242E-02
   maximum displ.:     0.1543785 α      in ANC's #8, #4, #7, ...

........................................................................
.............................. CYCLE    4 ..............................
........................................................................

 iter      E             dE          RMSdq      gap      omega  full diag
   1    -32.7994595 -0.327995E+02  0.883E-02    3.77       0.0  T
   2    -32.7994649 -0.538570E-05  0.525E-02    3.79       1.0  T
   3    -32.7994555  0.942353E-05  0.265E-02    3.78       1.0  T
   4    -32.7994664 -0.109087E-04  0.578E-03    3.78       3.5  T
   5    -32.7994669 -0.529082E-06  0.150E-03    3.78      13.6  T
   6    -32.7994669 -0.816178E-08  0.720E-04    3.78      28.4  T
   7    -32.7994669 -0.173326E-08  0.211E-04    3.78      96.9  T
     SCC iter.                  ...        0 min,  0.006 sec
     gradient                   ...        0 min,  0.002 sec
 * total energy  :   -32.3816049 Eh     change       -0.1392409E-02 Eh
   gradient norm :     0.0113987 Eh/α   predicted    -0.1009810E-02 ( -27.48%)
   displ. norm   :     0.4325566 α      lambda       -0.1635575E-02
   maximum displ.:     0.2477956 α      in ANC's #8, #4, #7, ...

........................................................................
.............................. CYCLE    5 ..............................
........................................................................

 iter      E             dE          RMSdq      gap      omega  full diag
   1    -32.7969978 -0.327970E+02  0.115E-01    3.78       0.0  T
   2    -32.7970029 -0.517857E-05  0.684E-02    3.79       1.0  T
   3    -32.7969946  0.830765E-05  0.231E-02    3.78       1.0  T
   4    -32.7970038 -0.914547E-05  0.610E-03    3.79       3.3  T
   5    -32.7970044 -0.584861E-06  0.169E-03    3.79      12.1  T
   6    -32.7970044 -0.428331E-08  0.820E-04    3.79      24.9  T
   7    -32.7970044 -0.308449E-08  0.175E-04    3.79     116.7  T
     SCC iter.                  ...        0 min,  0.006 sec
     gradient                   ...        0 min,  0.002 sec
 * total energy  :   -32.3827329 Eh     change       -0.1128014E-02 Eh
   gradient norm :     0.0126601 Eh/α   predicted    -0.9708172E-03 ( -13.94%)
   displ. norm   :     0.3730232 α      lambda       -0.1001388E-02
   maximum displ.:     0.2079481 α      in ANC's #8, #4, #7, ...

........................................................................
.............................. CYCLE    6 ..............................
........................................................................

 iter      E             dE          RMSdq      gap      omega  full diag
   1    -32.7977725 -0.327978E+02  0.102E-01    3.78       0.0  T
   2    -32.7977736 -0.108507E-05  0.607E-02    3.78       1.0  T
   3    -32.7977720  0.166138E-05  0.985E-03    3.78       2.1  T
   4    -32.7977739 -0.192946E-05  0.300E-03    3.78       6.8  T
   5    -32.7977740 -0.110631E-06  0.108E-03    3.78      19.0  T
   6    -32.7977740 -0.170519E-08  0.354E-04    3.78      57.7  T
   7    -32.7977740 -0.510667E-09  0.101E-04    3.78     202.4  T
     SCC iter.                  ...        0 min,  0.007 sec
     gradient                   ...        0 min,  0.002 sec
 * total energy  :   -32.3834361 Eh     change       -0.7032101E-03 Eh
   gradient norm :     0.0143987 Eh/α   predicted    -0.5703653E-03 ( -18.89%)
   displ. norm   :     0.3923320 α      lambda       -0.1030456E-02
   maximum displ.:     0.2057826 α      in ANC's #4, #8, #7, ...

........................................................................
.............................. CYCLE    7 ..............................
........................................................................

 iter      E             dE          RMSdq      gap      omega  full diag
   1    -32.8014529 -0.328015E+02  0.106E-01    3.77       0.0  T
   2    -32.8014544 -0.155756E-05  0.634E-02    3.76       1.0  T
   3    -32.8014545 -0.102035E-06  0.393E-03    3.76       5.2  T
   4    -32.8014547 -0.148910E-06  0.166E-03    3.76      12.3  T
   5    -32.8014547 -0.259551E-08  0.120E-03    3.76      17.0  T
   6    -32.8014547 -0.120754E-07  0.384E-04    3.76      53.1  T
   7    -32.8014547 -0.158231E-08  0.113E-04    3.76     181.1  T
     SCC iter.                  ...        0 min,  0.007 sec
     gradient                   ...        0 min,  0.002 sec
 * total energy  :   -32.3841658 Eh     change       -0.7296681E-03 Eh
   gradient norm :     0.0123858 Eh/α   predicted    -0.5945417E-03 ( -18.52%)
   displ. norm   :     0.3842494 α      lambda       -0.8276034E-03
   maximum displ.:     0.1882274 α      in ANC's #4, #8, #7, ...

........................................................................
.............................. CYCLE    8 ..............................
........................................................................

 iter      E             dE          RMSdq      gap      omega  full diag
   1    -32.8052944 -0.328053E+02  0.109E-01    3.75       0.0  T
   2    -32.8052966 -0.219820E-05  0.649E-02    3.75       1.0  T
   3    -32.8052964  0.179939E-06  0.524E-03    3.75       3.9  T
   4    -32.8052966 -0.218445E-06  0.322E-03    3.75       6.3  T
   5    -32.8052968 -0.196467E-06  0.105E-03    3.75      19.4  T
   6    -32.8052968 -0.256352E-08  0.334E-04    3.75      61.1  T
   7    -32.8052968 -0.560576E-09  0.969E-05    3.75     210.7  T
     SCC iter.                  ...        0 min,  0.006 sec
     gradient                   ...        0 min,  0.002 sec
 * total energy  :   -32.3847452 Eh     change       -0.5793976E-03 Eh
   gradient norm :     0.0091090 Eh/α   predicted    -0.4749014E-03 ( -18.04%)
   displ. norm   :     0.3894722 α      lambda       -0.5128674E-03
   maximum displ.:     0.1983138 α      in ANC's #8, #4, #7, ...

........................................................................
.............................. CYCLE    9 ..............................
........................................................................

 iter      E             dE          RMSdq      gap      omega  full diag
   1    -32.8036019 -0.328036E+02  0.119E-01    3.75       0.0  T
   2    -32.8036044 -0.248174E-05  0.701E-02    3.75       1.0  T
   3    -32.8036043  0.640939E-07  0.574E-03    3.75       3.6  T
   4    -32.8036046 -0.280511E-06  0.245E-03    3.75       8.3  T
   5    -32.8036047 -0.700919E-07  0.120E-03    3.75      17.0  T
   6    -32.8036047 -0.777474E-08  0.491E-04    3.75      41.6  T
   7    -32.8036047 -0.209970E-08  0.123E-04    3.75     166.5  T
     SCC iter.                  ...        0 min,  0.007 sec
     gradient                   ...        0 min,  0.002 sec
 * total energy  :   -32.3850749 Eh     change       -0.3296829E-03 Eh
   gradient norm :     0.0076616 Eh/α   predicted    -0.2953354E-03 ( -10.42%)
   displ. norm   :     0.2315135 α      lambda       -0.4013723E-03
   maximum displ.:     0.1492420 α      in ANC's #1, #2, #8, ...

........................................................................
.............................. CYCLE   10 ..............................
........................................................................

 iter      E             dE          RMSdq      gap      omega  full diag
   1    -32.8095426 -0.328095E+02  0.113E-01    3.75       0.0  T
   2    -32.8095490 -0.630887E-05  0.661E-02    3.76       1.0  T
   3    -32.8095492 -0.249861E-06  0.709E-03    3.75       2.9  T
   4    -32.8095493 -0.922684E-07  0.223E-03    3.76       9.1  T
   5    -32.8095493 -0.227873E-07  0.147E-03    3.76      13.9  T
   6    -32.8095493 -0.950672E-08  0.606E-04    3.76      33.7  T
   7    -32.8095493 -0.478726E-08  0.102E-04    3.76     199.3  T
     SCC iter.                  ...        0 min,  0.007 sec
     gradient                   ...        0 min,  0.004 sec
 * total energy  :   -32.3851691 Eh     change       -0.9419807E-04 Eh
   gradient norm :     0.0088128 Eh/α   predicted    -0.2114431E-03 ( 124.47%)
   displ. norm   :     0.1704956 α      lambda       -0.2642606E-03
   maximum displ.:     0.0957858 α      in ANC's #8, #7, #4, ...

........................................................................
.............................. CYCLE   11 ..............................
........................................................................

 iter      E             dE          RMSdq      gap      omega  full diag
   1    -32.8051231 -0.328051E+02  0.723E-02    3.75       0.0  T
   2    -32.8051255 -0.245749E-05  0.422E-02    3.76       1.0  T
   3    -32.8051255  0.977396E-08  0.551E-03    3.75       3.7  T
   4    -32.8051256 -0.835730E-07  0.271E-03    3.76       7.5  T
   5    -32.8051257 -0.117528E-06  0.107E-03    3.75      19.0  T
   6    -32.8051257 -0.308343E-08  0.352E-04    3.76      58.0  T
   7    -32.8051257 -0.331028E-09  0.547E-05    3.76     373.4  T
     SCC iter.                  ...        0 min,  0.007 sec
     gradient                   ...        0 min,  0.002 sec
 * total energy  :   -32.3853024 Eh     change       -0.1333299E-03 Eh
   gradient norm :     0.0045285 Eh/α   predicted    -0.1359779E-03 (   1.99%)
   displ. norm   :     0.0749748 α      lambda       -0.8741176E-04
   maximum displ.:     0.0376004 α      in ANC's #1, #5, #3, ...

........................................................................
.............................. CYCLE   12 ..............................
........................................................................

 iter      E             dE          RMSdq      gap      omega  full diag
   1    -32.8056250 -0.328056E+02  0.213E-02    3.76       0.0  T
   2    -32.8056252 -0.245941E-06  0.128E-02    3.76       1.6  T
   3    -32.8056251  0.139093E-06  0.321E-03    3.76       6.4  T
   4    -32.8056253 -0.165414E-06  0.113E-03    3.76      18.1  T
   5    -32.8056253 -0.221954E-07  0.432E-04    3.76      47.2  T
   6    -32.8056253 -0.109412E-08  0.194E-04    3.76     105.4  T
     SCC iter.                  ...        0 min,  0.006 sec
     gradient                   ...        0 min,  0.002 sec
 * total energy  :   -32.3853677 Eh     change       -0.6527343E-04 Eh
   gradient norm :     0.0032076 Eh/α   predicted    -0.4395235E-04 ( -32.66%)
   displ. norm   :     0.1776481 α      lambda       -0.1342003E-03
   maximum displ.:     0.1107154 α      in ANC's #1, #3, #5, ...

........................................................................
.............................. CYCLE   13 ..............................
........................................................................

 iter      E             dE          RMSdq      gap      omega  full diag
   1    -32.8064432 -0.328064E+02  0.649E-02    3.76       0.0  T
   2    -32.8064443 -0.112635E-05  0.381E-02    3.75       1.0  T
   3    -32.8064442  0.824558E-07  0.435E-03    3.76       4.7  T
   4    -32.8064444 -0.173229E-06  0.174E-03    3.75      11.7  T
   5    -32.8064444 -0.399793E-07  0.778E-04    3.75      26.2  T
   6    -32.8064444 -0.333689E-08  0.390E-04    3.75      52.4  T
     SCC iter.                  ...        0 min,  0.006 sec
     gradient                   ...        0 min,  0.002 sec
 * total energy  :   -32.3854608 Eh     change       -0.9309388E-04 Eh
   gradient norm :     0.0033839 Eh/α   predicted    -0.6921856E-04 ( -25.65%)
   displ. norm   :     0.2140491 α      lambda       -0.1143054E-03
   maximum displ.:     0.1572968 α      in ANC's #1, #3, #8, ...

........................................................................
.............................. CYCLE   14 ..............................
........................................................................

 iter      E             dE          RMSdq      gap      omega  full diag
   1    -32.8059364 -0.328059E+02  0.946E-02    3.75       0.0  T
   2    -32.8059379 -0.147420E-05  0.557E-02    3.75       1.0  T
   3    -32.8059373  0.592919E-06  0.683E-03    3.75       3.0  T
   4    -32.8059380 -0.652043E-06  0.326E-03    3.75       6.3  T
   5    -32.8059382 -0.189423E-06  0.101E-03    3.75      20.3  T
   6    -32.8059382 -0.753190E-09  0.254E-04    3.75      80.3  T
   7    -32.8059382 -0.606761E-09  0.872E-05    3.75     234.0  T
     SCC iter.                  ...        0 min,  0.007 sec
     gradient                   ...        0 min,  0.002 sec
 * total energy  :   -32.3855240 Eh     change       -0.6325828E-04 Eh
   gradient norm :     0.0051148 Eh/α   predicted    -0.5977350E-04 (  -5.51%)
   displ. norm   :     0.2033879 α      lambda       -0.1131681E-03
   maximum displ.:     0.1493857 α      in ANC's #1, #3, #8, ...

........................................................................
.............................. CYCLE   15 ..............................
........................................................................

 iter      E             dE          RMSdq      gap      omega  full diag
   1    -32.8055797 -0.328056E+02  0.873E-02    3.75       0.0  T
   2    -32.8055804 -0.699145E-06  0.515E-02    3.75       1.0  T
   3    -32.8055796  0.847706E-06  0.716E-03    3.75       2.8  T
   4    -32.8055806 -0.991978E-06  0.222E-03    3.75       9.2  T
   5    -32.8055806 -0.712228E-07  0.857E-04    3.75      23.8  T
   6    -32.8055806 -0.632838E-09  0.162E-04    3.75     126.2  T
     SCC iter.                  ...        0 min,  0.006 sec
     gradient                   ...        0 min,  0.002 sec
 * total energy  :   -32.3855945 Eh     change       -0.7047739E-04 Eh
   gradient norm :     0.0040740 Eh/α   predicted    -0.5892707E-04 ( -16.39%)
   displ. norm   :     0.1496795 α      lambda       -0.6531214E-04
   maximum displ.:     0.1165431 α      in ANC's #1, #3, #8, ...

........................................................................
.............................. CYCLE   16 ..............................
........................................................................

 iter      E             dE          RMSdq      gap      omega  full diag
   1    -32.8065810 -0.328066E+02  0.567E-02    3.76       0.0  T
   2    -32.8065815 -0.458611E-06  0.336E-02    3.76       1.0  T
   3    -32.8065809  0.592691E-06  0.567E-03    3.76       3.6  T
   4    -32.8065815 -0.646012E-06  0.187E-03    3.76      10.9  T
   5    -32.8065816 -0.598462E-07  0.568E-04    3.76      36.0  T
   6    -32.8065816 -0.249130E-09  0.189E-04    3.76     107.7  T
     SCC iter.                  ...        0 min,  0.006 sec
     gradient                   ...        0 min,  0.002 sec
 * total energy  :   -32.3856338 Eh     change       -0.3923977E-04 Eh
   gradient norm :     0.0025436 Eh/α   predicted    -0.3339275E-04 ( -14.90%)
   displ. norm   :     0.1288787 α      lambda       -0.4415532E-04
   maximum displ.:     0.0992369 α      in ANC's #1, #3, #8, ...

........................................................................
.............................. CYCLE   17 ..............................
........................................................................

 iter      E             dE          RMSdq      gap      omega  full diag
   1    -32.8062033 -0.328062E+02  0.543E-02    3.76       0.0  T
   2    -32.8062036 -0.259972E-06  0.322E-02    3.76       1.0  T
   3    -32.8062026  0.932070E-06  0.686E-03    3.76       3.0  T
   4    -32.8062037 -0.106374E-05  0.131E-03    3.76      15.6  T
   5    -32.8062037 -0.167445E-07  0.637E-04    3.76      32.0  T
   6    -32.8062037 -0.757069E-09  0.222E-04    3.76      92.0  T
     SCC iter.                  ...        0 min,  0.014 sec
     gradient                   ...        0 min,  0.002 sec
 * total energy  :   -32.3856591 Eh     change       -0.2532383E-04 Eh
   gradient norm :     0.0022025 Eh/α   predicted    -0.2244562E-04 ( -11.37%)
   displ. norm   :     0.0601869 α      lambda       -0.1556328E-04
   maximum displ.:     0.0472858 α      in ANC's #1, #3, #8, ...

........................................................................
.............................. CYCLE   18 ..............................
........................................................................

 iter      E             dE          RMSdq      gap      omega  full diag
   1    -32.8062049 -0.328062E+02  0.286E-02    3.76       0.0  T
   2    -32.8062050 -0.878361E-07  0.169E-02    3.76       1.2  T
   3    -32.8062049  0.940183E-07  0.239E-03    3.76       8.5  T
   4    -32.8062050 -0.110315E-06  0.831E-04    3.76      24.6  T
   5    -32.8062050 -0.109843E-07  0.326E-04    3.76      62.6  T
     SCC iter.                  ...        0 min,  0.004 sec
     gradient                   ...        0 min,  0.002 sec
 * total energy  :   -32.3856701 Eh     change       -0.1102855E-04 Eh
   gradient norm :     0.0015932 Eh/α   predicted    -0.7814485E-05 ( -29.14%)
   displ. norm   :     0.1010539 α      lambda       -0.1300960E-04
   maximum displ.:     0.0775454 α      in ANC's #1, #3, #6, ...

........................................................................
.............................. CYCLE   19 ..............................
........................................................................

 iter      E             dE          RMSdq      gap      omega  full diag
   1    -32.8065651 -0.328066E+02  0.436E-02    3.76       0.0  T
   2    -32.8065652 -0.108538E-06  0.257E-02    3.76       1.0  T
   3    -32.8065652  0.175286E-07  0.200E-03    3.76      10.2  T
   4    -32.8065652 -0.666506E-07  0.988E-04    3.76      20.7  T
   5    -32.8065652 -0.714327E-08  0.533E-04    3.76      38.3  T
     SCC iter.                  ...        0 min,  0.005 sec
     gradient                   ...        0 min,  0.002 sec
 * total energy  :   -32.3856804 Eh     change       -0.1026059E-04 Eh
   gradient norm :     0.0013411 Eh/α   predicted    -0.6537327E-05 ( -36.29%)
   displ. norm   :     0.0397305 α      lambda       -0.6616421E-05
   maximum displ.:     0.0281888 α      in ANC's #1, #6, #4, ...

........................................................................
.............................. CYCLE   20 ..............................
........................................................................

 iter      E             dE          RMSdq      gap      omega  full diag
   1    -32.8068180 -0.328068E+02  0.221E-02    3.76       0.0  T
   2    -32.8068181 -0.421121E-07  0.131E-02    3.76       1.6  T
   3    -32.8068180  0.238201E-07  0.153E-03    3.76      13.3  T
   4    -32.8068181 -0.366415E-07  0.456E-04    3.76      44.7  T
   5    -32.8068181 -0.176198E-08  0.294E-04    3.76      69.3  T
     SCC iter.                  ...        0 min,  0.005 sec
     gradient                   ...        0 min,  0.002 sec
 * total energy  :   -32.3856875 Eh     change       -0.7153247E-05 Eh
   gradient norm :     0.0013140 Eh/α   predicted    -0.3313829E-05 ( -53.67%)
   displ. norm   :     0.0952725 α      lambda       -0.1408643E-04
   maximum displ.:     0.0581882 α      in ANC's #1, #2, #4, ...
 * RMSD in coord.:     0.6822444 α      energy gain  -0.2963189E-01 Eh

generating ANC from exact Hessian ...
Using Lindh-Hessian (1995)
 Shifting diagonal of input Hessian by   9.157517096694927E-003
 Lowest  eigenvalues of input Hessian
    0.000000    0.000000    0.000000    0.000000    0.000000    0.000000
    0.010000    0.010754    0.011387    0.012837    0.014510    0.016399
    0.017228    0.018987    0.019380    0.022364    0.024529    0.028179
 Highest eigenvalues
    1.286995    1.297275    1.450367    1.759451    2.027316    2.390102
 

........................................................................
.............................. CYCLE   21 ..............................
........................................................................

 iter      E             dE          RMSdq      gap      omega  full diag
   1    -32.8064472 -0.328064E+02  0.506E-02    3.76       0.0  T
   2    -32.8064475 -0.283505E-06  0.298E-02    3.76       1.0  T
   3    -32.8064476 -0.650197E-07  0.149E-03    3.76      13.7  T
   4    -32.8064476 -0.885679E-08  0.867E-04    3.76      23.5  T
   5    -32.8064476  0.142899E-08  0.598E-04    3.76      34.1  T
     SCC iter.                  ...        0 min,  0.005 sec
     gradient                   ...        0 min,  0.002 sec
 * total energy  :   -32.3856995 Eh     change       -0.1194229E-04 Eh
   gradient norm :     0.0017812 Eh/α   predicted     0.0000000E+00 (-100.00%)
   displ. norm   :     0.0231378 α      lambda       -0.8333303E-05
   maximum displ.:     0.0126110 α      in ANC's #2, #7, #11, ...

........................................................................
.............................. CYCLE   22 ..............................
........................................................................

 iter      E             dE          RMSdq      gap      omega  full diag
   1    -32.8066789 -0.328067E+02  0.135E-02    3.76       0.0  T
   2    -32.8066791 -0.137819E-06  0.796E-03    3.76       2.6  T
   3    -32.8066791 -0.342560E-08  0.105E-03    3.76      19.5  T
   4    -32.8066791 -0.279432E-08  0.215E-04    3.76      95.0  T
   5    -32.8066791 -0.780602E-10  0.121E-04    3.76     168.2  T
     SCC iter.                  ...        0 min,  0.005 sec
     gradient                   ...        0 min,  0.002 sec
 * total energy  :   -32.3857071 Eh     change       -0.7594029E-05 Eh
   gradient norm :     0.0004499 Eh/α   predicted    -0.4383802E-05 ( -42.27%)
   displ. norm   :     0.0290025 α      lambda       -0.3595223E-05
   maximum displ.:     0.0191875 α      in ANC's #2, #7, #1, ...

........................................................................
.............................. CYCLE   23 ..............................
........................................................................

 iter      E             dE          RMSdq      gap      omega  full diag
   1    -32.8066408 -0.328066E+02  0.135E-02    3.76       0.0  T
   2    -32.8066408 -0.208879E-07  0.802E-03    3.76       2.5  T
   3    -32.8066408  0.478244E-08  0.802E-04    3.76      25.5  T
   4    -32.8066408 -0.861698E-08  0.336E-04    3.76      60.7  T
     SCC iter.                  ...        0 min,  0.004 sec
     gradient                   ...        0 min,  0.002 sec
 * total energy  :   -32.3857107 Eh     change       -0.3615005E-05 Eh
   gradient norm :     0.0006815 Eh/α   predicted    -0.1804300E-05 ( -50.09%)
   displ. norm   :     0.0550386 α      lambda       -0.5503535E-05
   maximum displ.:     0.0353870 α      in ANC's #2, #7, #1, ...

   *** GEOMETRY OPTIMIZATION CONVERGED AFTER 23 ITERATIONS ***

------------------------------------------------------------------------
 total energy gain   :        -0.0296550 Eh      -18.6088 kcal/mol
 total RMSD          :         0.6819534 a0        0.3609 Å
 total power (kW/mol):        -3.3851871 (step) -307.5231 (real)
------------------------------------------------------------------------

 ANCopt (total)                0 d,  0 h,  0 min,  0.253 sec
 optimizer setup                ...        0 min,  0.000 sec (  0.045%)
 model hessian                  ...        0 min,  0.022 sec (  8.649%)
 ANC generation                 ...        0 min,  0.004 sec (  1.438%)
 coordinate transformation      ...        0 min,  0.000 sec (  0.073%)
 single point calculation       ...        0 min,  0.211 sec ( 83.336%)
 optimization log               ...        0 min,  0.007 sec (  2.720%)
 hessian update                 ...        0 min,  0.003 sec (  1.299%)
 rational function              ...        0 min,  0.003 sec (  1.137%)

================
 final structure:
================
24
 xtb: 6.7.1 (edcfbbe)
C           -1.46871203410542        1.86768523596096        0.17296735997139
C           -2.14341297145545        0.56026167551542       -0.22301013749843
C           -1.44220570743078       -0.68426203950440        0.33290030749425
C           -2.29794312517415       -1.92537511865835        0.08105408638194
C           -0.06110377487588       -0.89732842203074       -0.28668644055913
O            0.88735755841170       -0.01458789444762        0.30826259729063
C            2.16738053531868       -0.20062263987812       -0.03250291916389
O            2.54083130672296       -1.05824590782363       -0.79482641444697
C            3.04047865087954        0.78294958969800        0.64610018523931
C            4.34968713132778        0.79044060961622        0.44530059035159
H           -2.03452034626585        2.71356354064949       -0.21134218468775
H           -0.45883854645804        1.91971335397743       -0.22194034437342
H           -1.41423546256625        1.95287180098717        1.25613837842014
H           -2.18807669830268        0.48666325913637       -1.31226214324520
H           -3.17089769555416        0.56836441327173        0.14822155950212
H           -1.30418552028771       -0.55707837229504        1.41159774812269
H           -2.40740765039465       -2.09833665978402       -0.98744115819126
H           -3.28799051676631       -1.79579045418439        0.51117467537553
H           -1.84364723018815       -2.80732484266055        0.52664735460141
H            0.28096839651317       -1.92640553528037       -0.12485063484734
H           -0.08209041846615       -0.72068796687591       -1.36856664821095
H            2.53682233562115        1.47845732373272        1.29988393537069
H            5.00438436712995        1.49600628316215        0.92689693038523
H            4.79735741636705        0.06906876771536       -0.21905368328221
 
 Bond Distances (Angstroems)
 ---------------------------
C1-C2=1.5236         C1-H11=1.0878        C1-H12=1.0856        C1-H13=1.0879        C2-C1=1.5236         C2-C3=1.5328         
C2-H14=1.0926        C2-H15=1.0925        C3-C2=1.5328         C3-C4=1.5284         C3-C5=1.5286         C3-H16=1.0949        
C4-C3=1.5284         C4-H17=1.0879        C4-H18=1.0872        C4-H19=1.0876        C5-C3=1.5286         C5-O6=1.4258         
C5-H20=1.0965        C5-H21=1.0964        O6-C5=1.4258         O6-C7=1.3376         C7-O6=1.3376         C7-O8=1.2067         
C7-C9=1.4799         O8-C7=1.2067         C9-C7=1.4799         C9-C10=1.3245        C9-H22=1.0793        C10-C9=1.3245        
C10-H23=1.0763       C10-H24=1.0780       H11-C1=1.0878        H12-C1=1.0856        H13-C1=1.0879        H14-C2=1.0926        
H15-C2=1.0925        H16-C3=1.0949        H17-C4=1.0879        H18-C4=1.0872        H19-C4=1.0876        H20-C5=1.0965        
H21-C5=1.0964        H22-C9=1.0793        H23-C10=1.0763       H24-C10=1.0780       
 C  H  Rav=1.0879 sigma=0.0063  Rmin=1.0763  Rmax=1.0965    14
 C  C  Rav=1.4863 sigma=0.0745  Rmin=1.3245  Rmax=1.5328     6
 O  C  Rav=1.3234 sigma=0.0900  Rmin=1.2067  Rmax=1.4258     3
 
 selected bond angles (degree)
 --------------------
H11-C1-C2=110.19               H12-C1-C2=111.01               H12-C1-H11=108.55              H13-C1-C2=110.37               
H13-C1-H11=108.48              H13-C1-H12=108.17              C3-C2-C1=113.57                H14-C2-C1=109.57               
H14-C2-C3=109.00               H15-C2-C1=108.77               H15-C2-C3=108.24               H15-C2-H14=107.51              
C4-C3-C2=110.08                C5-C3-C2=112.30                C5-C3-C4=109.02                H16-C3-C2=108.70               
H16-C3-C4=109.10               H16-C3-C5=107.55               H17-C4-C3=110.32               H18-C4-C3=110.36               
H18-C4-H17=108.41              H19-C4-C3=110.92               H19-C4-H17=108.39              H19-C4-H18=108.36              
O6-C5-C3=110.22                H20-C5-C3=110.66               H20-C5-O6=108.18               H21-C5-C3=111.11               
H21-C5-O6=108.95               H21-C5-H20=107.63              C7-O6-C5=116.37                O8-C7-O6=123.78                
C9-C7-O6=110.81                C9-C7-O8=125.41                C10-C9-C7=121.16               H22-C9-C7=115.51               
H22-C9-C10=123.33              H23-C10-C9=122.49              H24-C10-C9=120.01              H24-C10-H23=117.50             
 
 selected dihedral angles (degree)
 ---------------------------------
C3-C2-C1-H11=182.56           C3-C2-C1-H12= 62.27           C3-C2-C1-H13=302.34           H14-C2-C1-H11= 60.41          
H14-C2-C1-H12=300.13          H14-C2-C1-H13=180.19          H15-C2-C1-H11=303.15          H15-C2-C1-H12=182.87          
H15-C2-C1-H13= 62.94          C4-C3-C2-C1=171.01            C4-C3-C2-H14=293.47           C4-C3-C2-H15= 50.11           
C5-C3-C2-C1=292.67            C5-C3-C2-H14= 55.14           C5-C3-C2-H15=171.78           H16-C3-C2-C1= 51.56           
H16-C3-C2-H14=174.02          H16-C3-C2-H15=290.66          H17-C4-C3-C2= 63.54           H17-C4-C3-C5=299.94           
H17-C4-C3-H16=182.75          H18-C4-C3-C2=303.76           H18-C4-C3-C5=180.16           H18-C4-C3-H16= 62.97          
H19-C4-C3-C2=183.66           H19-C4-C3-C5= 60.06           H19-C4-C3-H16=302.87          O6-C5-C3-C2= 78.16            
O6-C5-C3-C4=200.43            O6-C5-C3-H16=318.60           H20-C5-C3-C2=197.77           H20-C5-C3-C4=320.05           
H20-C5-C3-H16= 78.22          H21-C5-C3-C2=317.28           H21-C5-C3-C4= 79.56           H21-C5-C3-H16=197.73          
C7-O6-C5-C3=172.60            C7-O6-C5-H20= 51.49           C7-O6-C5-H21=294.76           O8-C7-O6-C5=359.82            
C9-C7-O6-C5=179.65            C10-C9-C7-O6=180.56           C10-C9-C7-O8=  0.39           H22-C9-C7-O6=  0.41           
H22-C9-C7-O8=180.24           H23-C10-C9-C7=179.97          H23-C10-C9-H22=  0.13         H24-C10-C9-C7=359.75          
H24-C10-C9-H22=179.91         
           -------------------------------------------------
          |                Final Singlepoint                |
           -------------------------------------------------

          ...................................................
          :                      SETUP                      :
          :.................................................:
          :  # basis functions                  54          :
          :  # atomic orbitals                  54          :
          :  # shells                           34          :
          :  # electrons                        58          :
          :  max. iterations                   250          :
          :  Hamiltonian                  GFN2-xTB          :
          :  restarted?                      false          :
          :  GBSA solvation                  false          :
          :  PC potential                    false          :
          :  electronic temp.          300.0000000     K    :
          :  accuracy                    1.0000000          :
          :  -> integral cutoff          0.2500000E+02      :
          :  -> integral neglect         0.1000000E-07      :
          :  -> SCF convergence          0.1000000E-05 Eh   :
          :  -> wf. convergence          0.1000000E-03 e    :
          :  Broyden damping             0.4000000          :
          :  net charge                          0          :
          :  unpaired electrons                  0          :
          ...................................................

 iter      E             dE          RMSdq      gap      omega  full diag
   1    -32.8066408 -0.328066E+02  0.165E-04    3.76       0.0  T
   2    -32.8066408 -0.282085E-10  0.117E-04    3.76     175.1  T
   3    -32.8066408 -0.673239E-10  0.774E-05    3.76     263.7  T

   *** convergence criteria satisfied after 3 iterations ***

         #    Occupation            Energy/Eh            Energy/eV
      -------------------------------------------------------------
         1        2.0000           -0.7384263             -20.0936
       ...           ...                  ...                  ...
        23        2.0000           -0.4536140             -12.3435
        24        2.0000           -0.4447412             -12.1020
        25        2.0000           -0.4419882             -12.0271
        26        2.0000           -0.4378741             -11.9152
        27        2.0000           -0.4301922             -11.7061
        28        2.0000           -0.4257667             -11.5857
        29        2.0000           -0.4116412             -11.2013 (HOMO)
        30                         -0.2735743              -7.4443 (LUMO)
        31                         -0.1635760              -4.4511
        32                          0.0033820               0.0920
        33                          0.0720794               1.9614
        34                          0.0745903               2.0297
       ...                                ...                  ...
        54                          0.7082438              19.2723
      -------------------------------------------------------------
                  HL-Gap            0.1380669 Eh            3.7570 eV
             Fermi-level           -0.3426078 Eh           -9.3228 eV

 SCC (total)                   0 d,  0 h,  0 min,  0.007 sec
 SCC setup                      ...        0 min,  0.001 sec ( 14.015%)
 Dispersion                     ...        0 min,  0.000 sec (  1.564%)
 classical contributions        ...        0 min,  0.000 sec (  2.237%)
 integral evaluation            ...        0 min,  0.000 sec (  5.762%)
 iterations                     ...        0 min,  0.003 sec ( 41.287%)
 molecular gradient             ...        0 min,  0.002 sec ( 22.347%)
 printout                       ...        0 min,  0.001 sec ( 12.461%)

         :::::::::::::::::::::::::::::::::::::::::::::::::::::
         ::                     SUMMARY                     ::
         :::::::::::::::::::::::::::::::::::::::::::::::::::::
         :: total energy             -32.385710679566 Eh    ::
         :: gradient norm              0.000681967254 Eh/a0 ::
         :: HOMO-LUMO gap              3.756991269990 eV    ::
         ::.................................................::
         :: SCC energy               -32.806600631914 Eh    ::
         :: -> isotropic ES            0.046968059445 Eh    ::
         :: -> anisotropic ES          0.003378192138 Eh    ::
         :: -> anisotropic XC          0.012515293440 Eh    ::
         :: -> dispersion             -0.016119702962 Eh    ::
         :: repulsion energy           0.420889952348 Eh    ::
         :: add. restraining           0.000000000000 Eh    ::
         :: total charge               0.000000000000 e     ::
         :::::::::::::::::::::::::::::::::::::::::::::::::::::

           -------------------------------------------------
          |                Property Printout                |
           -------------------------------------------------

    * Orbital Energies and Occupations

         #    Occupation            Energy/Eh            Energy/eV
      -------------------------------------------------------------
         1        2.0000           -0.7384263             -20.0936
       ...           ...                  ...                  ...
        17        2.0000           -0.4964974             -13.5104
        18        2.0000           -0.4907751             -13.3547
        19        2.0000           -0.4875108             -13.2658
        20        2.0000           -0.4787522             -13.0275
        21        2.0000           -0.4651853             -12.6583
        22        2.0000           -0.4606179             -12.5341
        23        2.0000           -0.4536140             -12.3435
        24        2.0000           -0.4447412             -12.1020
        25        2.0000           -0.4419882             -12.0271
        26        2.0000           -0.4378741             -11.9152
        27        2.0000           -0.4301922             -11.7061
        28        2.0000           -0.4257667             -11.5857
        29        2.0000           -0.4116412             -11.2013 (HOMO)
        30                         -0.2735743              -7.4443 (LUMO)
        31                         -0.1635760              -4.4511
        32                          0.0033820               0.0920
        33                          0.0720794               1.9614
        34                          0.0745903               2.0297
        35                          0.1143926               3.1128
        36                          0.1212969               3.3007
        37                          0.1286813               3.5016
        38                          0.1311627               3.5691
        39                          0.1455174               3.9597
        40                          0.1760780               4.7913
       ...                                ...                  ...
        54                          0.7082438              19.2723
      -------------------------------------------------------------
                  HL-Gap            0.1380669 Eh            3.7570 eV
             Fermi-level           -0.3426078 Eh           -9.3228 eV

     #   Z          covCN         q      C6AA      α(0)
     1   6 C        3.751    -0.104    22.541     6.771
     2   6 C        3.803    -0.058    21.610     6.618
     3   6 C        3.850    -0.022    20.924     6.506
     4   6 C        3.757    -0.113    22.723     6.796
     5   6 C        3.709     0.080    19.387     6.293
     6   8 O        1.705    -0.263    18.355     5.784
     7   6 C        2.728     0.354    20.988     7.500
     8   8 O        0.856    -0.417    22.017     6.291
     9   6 C        2.887    -0.059    29.465     8.899
    10   6 C        2.842    -0.060    29.484     8.899
    11   1 H        0.925     0.034     2.532     2.488
    12   1 H        0.925     0.044     2.399     2.422
    13   1 H        0.925     0.036     2.506     2.476
    14   1 H        0.924     0.033     2.538     2.491
    15   1 H        0.924     0.036     2.499     2.472
    16   1 H        0.924     0.050     2.324     2.384
    17   1 H        0.925     0.040     2.445     2.445
    18   1 H        0.925     0.046     2.377     2.411
    19   1 H        0.925     0.040     2.443     2.444
    20   1 H        0.924     0.051     2.308     2.376
    21   1 H        0.924     0.048     2.349     2.397
    22   1 H        0.926     0.063     2.161     2.299
    23   1 H        0.926     0.062     2.176     2.307
    24   1 H        0.926     0.078     1.997     2.210

 Mol. C6AA /au·bohr⁶  :       4745.357358
 Mol. C8AA /au·bohr⁸  :     103557.422839
 Mol. α(0) /au        :        103.980524


Wiberg/Mayer (AO) data.
largest (>0.10) Wiberg bond orders for each atom

 ---------------------------------------------------------------------------
     #   Z sym  total        # sym  WBO       # sym  WBO       # sym  WBO
 ---------------------------------------------------------------------------
     1   6 C    3.996 --     2 C    1.020    13 H    0.988    11 H    0.987
                            12 H    0.985
     2   6 C    3.997 --     1 C    1.020     3 C    0.997    14 H    0.977
                            15 H    0.977
     3   6 C    3.992 --     4 C    1.007     2 C    0.997     5 C    0.993
                            16 H    0.965
     4   6 C    3.995 --     3 C    1.007    17 H    0.987    19 H    0.986
                            18 H    0.985
     5   6 C    3.926 --     3 C    0.993    21 H    0.966    20 H    0.966
                             6 O    0.940
     6   8 O    2.313 --     7 C    1.128     5 C    0.940     8 O    0.175
     7   6 C    3.921 --     8 O    1.721     6 O    1.128     9 C    1.010
     8   8 O    2.030 --     7 C    1.721     6 O    0.175
     9   6 C    3.988 --    10 C    1.933     7 C    1.010    22 H    0.965
    10   6 C    3.982 --     9 C    1.933    23 H    0.976    24 H    0.970
    11   1 H    0.999 --     1 C    0.987
    12   1 H    0.998 --     1 C    0.985
    13   1 H    0.999 --     1 C    0.988
    14   1 H    0.999 --     2 C    0.977
    15   1 H    0.998 --     2 C    0.977
    16   1 H    0.998 --     3 C    0.965
    17   1 H    0.998 --     4 C    0.987
    18   1 H    0.998 --     4 C    0.985
    19   1 H    0.998 --     4 C    0.986
    20   1 H    0.997 --     5 C    0.966
    21   1 H    0.998 --     5 C    0.966
    22   1 H    0.996 --     9 C    0.965
    23   1 H    0.995 --    10 C    0.976
    24   1 H    0.994 --    10 C    0.970
 ---------------------------------------------------------------------------

Topologies differ in total number of bonds
Writing topology from bond orders to xtbtopo.mol

molecular dipole:
                 x           y           z       tot (Debye)
 q only:       -0.491       0.473       0.463
   full:       -0.489       0.511       0.497       2.197
molecular quadrupole (traceless):
                xx          xy          yy          xz          yz          zz
 q only:        3.873       7.779      -1.301       4.738      -0.757      -2.572
  q+dip:        2.905       7.540      -1.916       5.035      -0.941      -0.989
   full:        2.426       7.951      -1.342       5.519      -1.886      -1.083

           -------------------------------------------------
          |                Geometry Summary                 |
           -------------------------------------------------

      molecular mass/u    :      142.1958675
   center of mass at/Å    :        0.5273390      -0.0903774       0.0528077
  moments of inertia/u·Å² :        0.2039514E+03   0.7738114E+03   0.9225066E+03
rotational constants/cm⁻¹ :        0.8265516E-01   0.2178519E-01   0.1827373E-01

 * 22 selected distances

     #   Z          #   Z                                           value/Å
     1   6 C        2   6 C                                       1.5236064
     2   6 C        3   6 C                                       1.5328300 (max)
     3   6 C        4   6 C                                       1.5284224
     3   6 C        5   6 C                                       1.5286360
     5   6 C        6   8 O                                       1.4257540
     6   8 O        7   6 C                                       1.3376058
     7   6 C        8   8 O                                       1.2066982
     9   6 C       10   6 C                                       1.3245391
     1   6 C       11   1 H                                       1.0878158
     1   6 C       12   1 H                                       1.0855891
     1   6 C       13   1 H                                       1.0878806
     2   6 C       14   1 H                                       1.0926490
     2   6 C       15   1 H                                       1.0925217
     3   6 C       16   1 H                                       1.0949035
     4   6 C       17   1 H                                       1.0879249
     4   6 C       18   1 H                                       1.0871936
     4   6 C       19   1 H                                       1.0875540
     5   6 C       20   1 H                                       1.0964507
     5   6 C       21   1 H                                       1.0964065
     9   6 C       22   1 H                                       1.0792748
    10   6 C       23   1 H                                       1.0762837 (min)
    10   6 C       24   1 H                                       1.0780319

 * 3 distinct bonds (by element types)

   Z      Z             #   av. dist./Å        max./Å        min./Å
   1 H    6 C          14     1.0878914     1.0964507     1.0762837
   6 C    6 C           5     1.4876068     1.5328300     1.3245391
   6 C    8 O           3     1.3233527     1.4257540     1.2066982


optimized geometry written to: xtbopt.xyz


           -------------------------------------------------
          | TOTAL ENERGY              -32.385710679566 Eh   |
          | GRADIENT NORM               0.000681967254 Eh/α |
          | HOMO-LUMO GAP               3.756991269990 eV   |
           -------------------------------------------------

------------------------------------------------------------------------
 * finished run on 2025/12/01 at 14:17:52.084     
------------------------------------------------------------------------
 total:
 * wall-time:     0 d,  0 h,  0 min,  0.303 sec
 *  cpu-time:     0 d,  0 h,  0 min,  6.551 sec
 * ratio c/w:    21.633 speedup
 SCF:
 * wall-time:     0 d,  0 h,  0 min,  0.020 sec
 *  cpu-time:     0 d,  0 h,  0 min,  0.451 sec
 * ratio c/w:    22.473 speedup
 ANC optimizer:
 * wall-time:     0 d,  0 h,  0 min,  0.262 sec
 *  cpu-time:     0 d,  0 h,  0 min,  5.939 sec
 * ratio c/w:    22.693 speedup

normal termination of xtb
