      -----------------------------------------------------------      
     |                   =====================                   |     
     |                           x T B                           |     
     |                   =====================                   |     
     |                         S. Grimme                         |     
     |          Mulliken Center for Theoretical Chemistry        |     
     |                    University of Bonn                     |     
      -----------------------------------------------------------      

   * xtb version 6.7.1 (edcfbbe) compiled by 'albert@albert-system' on 2024-07-22

   xtb is free software: you can redistribute it and/or modify it under
   the terms of the GNU Lesser General Public License as published by
   the Free Software Foundation, either version 3 of the License, or
   (at your option) any later version.
   
   xtb is distributed in the hope that it will be useful,
   but WITHOUT ANY WARRANTY; without even the implied warranty of
   MERCHANTABILITY or FITNESS FOR A PARTICULAR PURPOSE.  See the
   GNU Lesser General Public License for more details.
   
   Cite this work as:
   * C. Bannwarth, E. Caldeweyher, S. Ehlert, A. Hansen, P. Pracht,
     J. Seibert, S. Spicher, S. Grimme, WIREs Comput. Mol. Sci., 2020, 11,
     e01493. DOI: 10.1002/wcms.1493
   
   for GFN2-xTB:
   * C. Bannwarth, S. Ehlert and S. Grimme., J. Chem. Theory Comput., 2019,
     15, 1652-1671. DOI: 10.1021/acs.jctc.8b01176
   for GFN1-xTB:
   * S. Grimme, C. Bannwarth, P. Shushkov, J. Chem. Theory Comput., 2017,
     13, 1989-2009. DOI: 10.1021/acs.jctc.7b00118
   for GFN0-xTB:
   * P. Pracht, E. Caldeweyher, S. Ehlert, S. Grimme, ChemRxiv, 2019, preprint.
     DOI: 10.26434/chemrxiv.8326202.v1
   for GFN-FF:
   * S. Spicher and S. Grimme, Angew. Chem. Int. Ed., 2020, 59, 15665-15673.
     DOI: 10.1002/anie.202004239
   
   for ALPB and GBSA implicit solvation:
   * S. Ehlert, M. Stahn, S. Spicher, S. Grimme, J. Chem. Theory Comput.,
     2021, 17, 4250-4261. DOI: 10.1021/acs.jctc.1c00471
   
   for ddCOSMO and CPCM-X implicit solvation:
   * M. Stahn, S. Ehlert, S. Grimme, J. Phys. Chem. A,
     2023, XX, XXXX-XXXX. DOI: 10.1021/acs.jpca.3c04382
   
   for DFT-D4:
   * E. Caldeweyher, C. Bannwarth and S. Grimme, J. Chem. Phys., 2017,
     147, 034112. DOI: 10.1063/1.4993215
   * E. Caldeweyher, S. Ehlert, A. Hansen, H. Neugebauer, S. Spicher,
     C. Bannwarth and S. Grimme, J. Chem. Phys., 2019, 150, 154122.
     DOI: 10.1063/1.5090222
   * E. Caldeweyher, J.-M. Mewes, S. Ehlert and S. Grimme, Phys. Chem. Chem. Phys.
     2020, 22, 8499-8512. DOI: 10.1039/D0CP00502A
   
   for sTDA-xTB:
   * S. Grimme and C. Bannwarth, J. Chem. Phys., 2016, 145, 054103.
     DOI: 10.1063/1.4959605
   
   in the mass-spec context:
   * V. Asgeirsson, C. Bauer and S. Grimme, Chem. Sci., 2017, 8, 4879.
     DOI: 10.1039/c7sc00601b
   * J. Koopman and S. Grimme, ACS Omega 2019, 4, 12, 15120-15133.
     DOI: 10.1021/acsomega.9b02011
   
   for metadynamics refer to:
   * S. Grimme, J. Chem. Theory Comput., 2019, 155, 2847-2862
     DOI: 10.1021/acs.jctc.9b00143
   
   for SPH calculations refer to:
   * S. Spicher and S. Grimme, J. Chem. Theory Comput., 2021, 17, 1701-1714
     DOI: 10.1021/acs.jctc.0c01306
   
   for ONIOM refer to:
   * C. Plett, A. Katbashev, S. Ehlert, S. Grimme, M. Bursch,
     Phys. Chem. Chem. Phys., 2023, 25, 17860-17868. DOI: 10.1039/D3CP02178E
   
   for DIPRO refer to:
   * J. Kohn, N. Gildemeister, S. Grimme, D. Fazzi, A. Hansen,
     J. Chem. Phys., 2023, just accepted.
   
   for PTB refer to:
   * S. Grimme, M. Mueller, A. Hansen, J. Chem. Phys., 2023, 158, 124111.
     DOI: 10.1063/5.0137838
   
   with help from (in alphabetical order)
   P. Atkinson, C. Bannwarth, F. Bohle, G. Brandenburg, E. Caldeweyher
   M. Checinski, S. Dohm, S. Ehlert, S. Ehrlich, I. Gerasimov, C. Hölzer
   A. Katbashev, J. Kohn, J. Koopman, C. Lavigne, S. Lehtola, F. März, M. Müller,
   F. Musil, H. Neugebauer, J. Pisarek, C. Plett, P. Pracht, F. Pultar,
   J. Seibert, P. Shushkov, S. Spicher, M. Stahn, M. Steiner, T. Strunk,
   J. Stückrath, T. Rose, and J. Unsleber
   
 * started run on 2025/12/01 at 14:17:59.636     
   ID    Z sym.   atoms
    1    8 O      1, 7, 16, 18, 26
    2    6 C      2, 3, 5, 6, 8-15, 17, 19-25, 27, 28
    3    7 N      4
    4    1 H      29-55

           -------------------------------------------------
          |                Calculation Setup                |
           -------------------------------------------------

          program call               : xtb pipeline_data/3_conformer_xyz/acrylates/rdkit/NHBABHBJROJJJN-JLHYYAGUSA-N_conf187.xyz --opt --gfn 2-xTB --iterations 250
          coordinate file            : pipeline_data/3_conformer_xyz/acrylates/rdkit/NHBABHBJROJJJN-JLHYYAGUSA-N_conf187.xyz
          omp threads                :                    24

########################################################################
[WARNING] Please study the warnings concerning your input carefully
-1- readin_getIntValue: could not parse '2-xTB'
########################################################################

           -------------------------------------------------
          |                 G F N 2 - x T B                 |
           -------------------------------------------------

        Reference                      10.1021/acs.jctc.8b01176
      * Hamiltonian:
        H0-scaling (s, p, d)           1.850000    2.230000    2.230000
        zeta-weighting                 0.500000
      * Dispersion:
        s8                             2.700000
        a1                             0.520000
        a2                             5.000000
        s9                             5.000000
      * Repulsion:
        kExp                           1.500000    1.000000
        rExp                           1.000000
      * Coulomb:
        alpha                          2.000000
        third order                    shell-resolved
        anisotropic                    true
        a3                             3.000000
        a5                             4.000000
        cn-shift                       1.200000
        cn-exp                         4.000000
        max-rad                        5.000000

q/qsh data taken from xtbrestart
CAMM data taken from xtbrestart

          ...................................................
          :                      SETUP                      :
          :.................................................:
          :  # basis functions                 139          :
          :  # atomic orbitals                 139          :
          :  # shells                           83          :
          :  # electrons                       150          :
          :  max. iterations                   250          :
          :  Hamiltonian                  GFN2-xTB          :
          :  restarted?                       true          :
          :  GBSA solvation                  false          :
          :  PC potential                    false          :
          :  electronic temp.          300.0000000     K    :
          :  accuracy                    1.0000000          :
          :  -> integral cutoff          0.2500000E+02      :
          :  -> integral neglect         0.1000000E-07      :
          :  -> SCF convergence          0.1000000E-05 Eh   :
          :  -> wf. convergence          0.1000000E-03 e    :
          :  Broyden damping             0.4000000          :
          :  net charge                          0          :
          :  unpaired electrons                  0          :
          ...................................................

 iter      E             dE          RMSdq      gap      omega  full diag
   1    -85.1267803 -0.851268E+02  0.412E+00    2.00       0.0  T
   2    -85.1415904 -0.148101E-01  0.247E+00    1.86       1.0  T
   3    -85.1058352  0.357552E-01  0.877E-01    2.28       1.0  T
   4    -85.1476560 -0.418207E-01  0.181E-01    1.99       1.0  T
   5    -85.1484799 -0.823981E-03  0.879E-02    1.96       1.0  T
   6    -85.1485510 -0.711030E-04  0.463E-02    1.99       1.0  T
   7    -85.1485988 -0.477608E-04  0.155E-02    1.98       1.0  T
   8    -85.1486044 -0.561201E-05  0.675E-03    1.98       2.0  T
   9    -85.1486054 -0.961586E-06  0.286E-03    1.98       4.7  T
  10    -85.1486054 -0.676410E-07  0.120E-03    1.98      11.2  T
  11    -85.1486054 -0.120352E-07  0.352E-04    1.98      38.3  T
  12    -85.1486055 -0.179645E-08  0.172E-04    1.98      78.2  T

   *** convergence criteria satisfied after 12 iterations ***

         #    Occupation            Energy/Eh            Energy/eV
      -------------------------------------------------------------
         1        2.0000           -0.7199469             -19.5908
       ...           ...                  ...                  ...
        69        2.0000           -0.4071417             -11.0789
        70        2.0000           -0.4063622             -11.0577
        71        2.0000           -0.4061388             -11.0516
        72        2.0000           -0.4058590             -11.0440
        73        2.0000           -0.3993214             -10.8661
        74        2.0000           -0.3730131             -10.1502
        75        2.0000           -0.3608204              -9.8184 (HOMO)
        76                         -0.2879213              -7.8347 (LUMO)
        77                         -0.2305141              -6.2726
        78                         -0.2304251              -6.2702
        79                         -0.2226992              -6.0600
        80                         -0.2127800              -5.7900
       ...                                ...                  ...
       139                          0.7178091              19.5326
      -------------------------------------------------------------
                  HL-Gap            0.0728990 Eh            1.9837 eV
             Fermi-level           -0.3243709 Eh           -8.8266 eV

 SCC (total)                   0 d,  0 h,  0 min,  0.071 sec
 SCC setup                      ...        0 min,  0.000 sec (  0.568%)
 Dispersion                     ...        0 min,  0.001 sec (  1.781%)
 classical contributions        ...        0 min,  0.000 sec (  0.266%)
 integral evaluation            ...        0 min,  0.004 sec (  6.147%)
 iterations                     ...        0 min,  0.057 sec ( 80.299%)
 molecular gradient             ...        0 min,  0.007 sec ( 10.104%)
 printout                       ...        0 min,  0.001 sec (  0.775%)

         :::::::::::::::::::::::::::::::::::::::::::::::::::::
         ::                     SUMMARY                     ::
         :::::::::::::::::::::::::::::::::::::::::::::::::::::
         :: total energy             -84.024846049147 Eh    ::
         :: gradient norm              0.190350873917 Eh/a0 ::
         :: HOMO-LUMO gap              1.983683277372 eV    ::
         ::.................................................::
         :: SCC energy               -85.148591484042 Eh    ::
         :: -> isotropic ES            0.117306426818 Eh    ::
         :: -> anisotropic ES          0.007019411271 Eh    ::
         :: -> anisotropic XC          0.022738751443 Eh    ::
         :: -> dispersion             -0.057784031576 Eh    ::
         :: repulsion energy           1.123745434895 Eh    ::
         :: add. restraining           0.000000000000 Eh    ::
         :: total charge               0.000000000000 e     ::
         :::::::::::::::::::::::::::::::::::::::::::::::::::::

      ----------------------------------------------------------- 
     |                   =====================                   |
     |                        A N C O P T                        |
     |                   =====================                   |
     |               Approximate Normal Coordinate               |
     |                Rational Function Optimizer                |
      ----------------------------------------------------------- 
      ----------------------------------------------------------- 
     |                   =====================                   |
     |                        A N C O P T                        |
     |                   =====================                   |
     |               Approximate Normal Coordinate               |
     |                Rational Function Optimizer                |
      ----------------------------------------------------------- 

          ...................................................
          :                      SETUP                      :
          :.................................................:
          :   optimization level            normal          :
          :   max. optcycles                   200          :
          :   ANC micro-cycles                  20          :
          :   degrees of freedom               159          :
          :.................................................:
          :   RF solver                   davidson          :
          :   write xtbopt.log                true          :
          :   linear?                        false          :
          :   energy convergence         0.5000000E-05 Eh   :
          :   grad. convergence          0.1000000E-02 Eh/α :
          :   maxmium RF displ.          1.0000000          :
          :   Hlow (freq-cutoff)         0.1000000E-01      :
          :   Hmax (freq-cutoff)         5.0000000          :
          :   S6 in model hess.         20.0000000          :
          ...................................................

generating ANC from exact Hessian ...
Using Lindh-Hessian (1995)
 Shifting diagonal of input Hessian by   9.915113451601624E-003
 Lowest  eigenvalues of input Hessian
    0.000000    0.000000    0.000000    0.000000    0.000000    0.000000
    0.010000    0.010025    0.010159    0.010490    0.010876    0.011164
    0.011205    0.011424    0.011794    0.012011    0.012242    0.012882
 Highest eigenvalues
    2.005460    2.015846    2.041651    2.074945    2.081449    2.141905
 

........................................................................
.............................. CYCLE    1 ..............................
........................................................................

 iter      E             dE          RMSdq      gap      omega  full diag
   1    -85.1486055 -0.851486E+02  0.524E-05    1.98       0.0  T
   2    -85.1486055 -0.318607E-10  0.338E-05    1.98     399.1  T
   3    -85.1486055 -0.228368E-10  0.201E-05    1.98     670.3  T
     SCC iter.                  ...        0 min,  0.013 sec
     gradient                   ...        0 min,  0.007 sec
 * total energy  :   -84.0248460 Eh     change       -0.4251888E-09 Eh
   gradient norm :     0.1903505 Eh/α   predicted     0.0000000E+00 (-100.00%)
   displ. norm   :     0.3584270 α      lambda       -0.3762825E-01
   maximum displ.:     0.0909952 α      in ANC's #44, #57, #37, ...

........................................................................
.............................. CYCLE    2 ..............................
........................................................................

 iter      E             dE          RMSdq      gap      omega  full diag
   1    -85.1721583 -0.851722E+02  0.245E-01    1.97       0.0  T
   2    -85.1727488 -0.590482E-03  0.158E-01    2.06       1.0  T
   3    -85.1728088 -0.600430E-04  0.867E-02    2.02       1.0  T
   4    -85.1729084 -0.995624E-04  0.289E-02    2.05       1.0  T
   5    -85.1729459 -0.375369E-04  0.769E-03    2.05       1.8  T
   6    -85.1729472 -0.134666E-05  0.412E-03    2.05       3.3  T
   7    -85.1729477 -0.470436E-06  0.184E-03    2.05       7.3  T
   8    -85.1729478 -0.410613E-07  0.970E-04    2.05      13.9  T
   9    -85.1729478 -0.148379E-07  0.336E-04    2.05      40.1  T
     SCC iter.                  ...        0 min,  0.036 sec
     gradient                   ...        0 min,  0.007 sec
 * total energy  :   -84.0516628 Eh     change       -0.2681671E-01 Eh
   gradient norm :     0.0853313 Eh/α   predicted    -0.2125020E-01 ( -20.76%)
   displ. norm   :     0.3353035 α      lambda       -0.1378637E-01
   maximum displ.:     0.1072841 α      in ANC's #15, #44, #7, ...

........................................................................
.............................. CYCLE    3 ..............................
........................................................................

 iter      E             dE          RMSdq      gap      omega  full diag
   1    -85.1877718 -0.851878E+02  0.177E-01    2.01       0.0  T
   2    -85.1881750 -0.403246E-03  0.117E-01    2.09       1.0  T
   3    -85.1882907 -0.115675E-03  0.668E-02    2.06       1.0  T
   4    -85.1883298 -0.391355E-04  0.254E-02    2.08       1.0  T
   5    -85.1883536 -0.238218E-04  0.681E-03    2.07       2.0  T
   6    -85.1883550 -0.130771E-05  0.335E-03    2.07       4.0  T
   7    -85.1883554 -0.400105E-06  0.129E-03    2.07      10.4  T
   8    -85.1883554 -0.224100E-07  0.718E-04    2.07      18.8  T
   9    -85.1883554 -0.718956E-08  0.253E-04    2.07      53.2  T
     SCC iter.                  ...        0 min,  0.036 sec
     gradient                   ...        0 min,  0.007 sec
 * total energy  :   -84.0599055 Eh     change       -0.8242730E-02 Eh
   gradient norm :     0.0190934 Eh/α   predicted    -0.7668177E-02 (  -6.97%)
   displ. norm   :     0.3163109 α      lambda       -0.2254776E-02
   maximum displ.:     0.1600244 α      in ANC's #7, #15, #11, ...

........................................................................
.............................. CYCLE    4 ..............................
........................................................................

 iter      E             dE          RMSdq      gap      omega  full diag
   1    -85.1881701 -0.851882E+02  0.808E-02    2.06       0.0  T
   2    -85.1881949 -0.247341E-04  0.498E-02    2.08       1.0  T
   3    -85.1881770  0.178274E-04  0.288E-02    2.07       1.0  T
   4    -85.1882062 -0.291533E-04  0.679E-03    2.08       2.0  T
   5    -85.1882078 -0.164690E-05  0.226E-03    2.08       6.0  T
   6    -85.1882080 -0.138236E-06  0.108E-03    2.08      12.4  T
   7    -85.1882080 -0.322029E-07  0.469E-04    2.08      28.8  T
   8    -85.1882080 -0.188236E-08  0.228E-04    2.07      59.3  T
     SCC iter.                  ...        0 min,  0.063 sec
     gradient                   ...        0 min,  0.008 sec
 * total energy  :   -84.0615647 Eh     change       -0.1659203E-02 Eh
   gradient norm :     0.0117923 Eh/α   predicted    -0.1240279E-02 ( -25.25%)
   displ. norm   :     0.4304980 α      lambda       -0.1599403E-02
   maximum displ.:     0.2653003 α      in ANC's #7, #5, #15, ...

........................................................................
.............................. CYCLE    5 ..............................
........................................................................

 iter      E             dE          RMSdq      gap      omega  full diag
   1    -85.1876292 -0.851876E+02  0.918E-02    2.07       0.0  T
   2    -85.1876349 -0.568132E-05  0.543E-02    2.08       1.0  T
   3    -85.1876281  0.672703E-05  0.131E-02    2.08       1.0  T
   4    -85.1876361 -0.795354E-05  0.363E-03    2.08       3.7  T
   5    -85.1876365 -0.403823E-06  0.171E-03    2.08       7.9  T
   6    -85.1876366 -0.567292E-07  0.774E-04    2.08      17.4  T
   7    -85.1876366 -0.839977E-08  0.328E-04    2.08      41.2  T
     SCC iter.                  ...        0 min,  0.028 sec
     gradient                   ...        0 min,  0.007 sec
 * total energy  :   -84.0627429 Eh     change       -0.1178211E-02 Eh
   gradient norm :     0.0135255 Eh/α   predicted    -0.9479211E-03 ( -19.55%)
   displ. norm   :     0.4342659 α      lambda       -0.1095383E-02
   maximum displ.:     0.2906188 α      in ANC's #7, #5, #15, ...

........................................................................
.............................. CYCLE    6 ..............................
........................................................................

 iter      E             dE          RMSdq      gap      omega  full diag
   1    -85.1880741 -0.851881E+02  0.893E-02    2.09       0.0  T
   2    -85.1880777 -0.366783E-05  0.528E-02    2.08       1.0  T
   3    -85.1880659  0.118510E-04  0.151E-02    2.09       1.0  T
   4    -85.1880795 -0.135916E-04  0.273E-03    2.08       4.9  T
   5    -85.1880797 -0.217770E-06  0.130E-03    2.08      10.4  T
   6    -85.1880797 -0.662098E-08  0.769E-04    2.08      17.5  T
   7    -85.1880797 -0.167443E-07  0.221E-04    2.08      61.0  T
     SCC iter.                  ...        0 min,  0.029 sec
     gradient                   ...        0 min,  0.007 sec
 * total energy  :   -84.0636554 Eh     change       -0.9125438E-03 Eh
   gradient norm :     0.0134854 Eh/α   predicted    -0.6509798E-03 ( -28.66%)
   displ. norm   :     0.5155625 α      lambda       -0.1223875E-02
   maximum displ.:     0.3562737 α      in ANC's #7, #5, #10, ...

........................................................................
.............................. CYCLE    7 ..............................
........................................................................

 iter      E             dE          RMSdq      gap      omega  full diag
   1    -85.1891033 -0.851891E+02  0.108E-01    2.10       0.0  T
   2    -85.1891100 -0.676840E-05  0.641E-02    2.08       1.0  T
   3    -85.1890807  0.293125E-04  0.244E-02    2.09       1.0  T
   4    -85.1891141 -0.334396E-04  0.350E-03    2.09       3.9  T
   5    -85.1891145 -0.356512E-06  0.160E-03    2.09       8.4  T
   6    -85.1891145 -0.378139E-07  0.920E-04    2.09      14.7  T
   7    -85.1891146 -0.169300E-07  0.284E-04    2.09      47.5  T
     SCC iter.                  ...        0 min,  0.027 sec
     gradient                   ...        0 min,  0.007 sec
 * total energy  :   -84.0647342 Eh     change       -0.1078748E-02 Eh
   gradient norm :     0.0121829 Eh/α   predicted    -0.7745939E-03 ( -28.20%)
   displ. norm   :     0.6259017 α      lambda       -0.1455353E-02
   maximum displ.:     0.4377664 α      in ANC's #7, #5, #10, ...

........................................................................
.............................. CYCLE    8 ..............................
........................................................................

 iter      E             dE          RMSdq      gap      omega  full diag
   1    -85.1897553 -0.851898E+02  0.133E-01    2.10       0.0  T
   2    -85.1897627 -0.744669E-05  0.789E-02    2.09       1.0  T
   3    -85.1897278  0.348883E-04  0.262E-02    2.10       1.0  T
   4    -85.1897673 -0.394668E-04  0.372E-03    2.09       3.6  T
   5    -85.1897676 -0.319830E-06  0.186E-03    2.09       7.2  T
   6    -85.1897677 -0.569273E-07  0.100E-03    2.09      13.5  T
   7    -85.1897677 -0.205939E-07  0.333E-04    2.09      40.5  T
     SCC iter.                  ...        0 min,  0.027 sec
     gradient                   ...        0 min,  0.007 sec
 * total energy  :   -84.0660151 Eh     change       -0.1280870E-02 Eh
   gradient norm :     0.0121860 Eh/α   predicted    -0.1012748E-02 ( -20.93%)
   displ. norm   :     0.6777359 α      lambda       -0.1501112E-02
   maximum displ.:     0.4810953 α      in ANC's #7, #5, #10, ...

........................................................................
.............................. CYCLE    9 ..............................
........................................................................

 iter      E             dE          RMSdq      gap      omega  full diag
   1    -85.1912387 -0.851912E+02  0.145E-01    2.09       0.0  T
   2    -85.1912434 -0.466725E-05  0.858E-02    2.08       1.0  T
   3    -85.1912253  0.180610E-04  0.180E-02    2.09       1.0  T
   4    -85.1912460 -0.206964E-04  0.313E-03    2.09       4.3  T
   5    -85.1912461 -0.144158E-06  0.172E-03    2.09       7.8  T
   6    -85.1912462 -0.450054E-07  0.835E-04    2.09      16.1  T
   7    -85.1912462 -0.149773E-07  0.299E-04    2.09      45.0  T
     SCC iter.                  ...        0 min,  0.028 sec
     gradient                   ...        0 min,  0.006 sec
 * total energy  :   -84.0672753 Eh     change       -0.1260261E-02 Eh
   gradient norm :     0.0112781 Eh/α   predicted    -0.1095306E-02 ( -13.09%)
   displ. norm   :     0.6804489 α      lambda       -0.1271978E-02
   maximum displ.:     0.4813765 α      in ANC's #7, #5, #10, ...

........................................................................
.............................. CYCLE   10 ..............................
........................................................................

 iter      E             dE          RMSdq      gap      omega  full diag
   1    -85.1900654 -0.851901E+02  0.145E-01    2.08       0.0  T
   2    -85.1900704 -0.497413E-05  0.861E-02    2.08       1.0  T
   3    -85.1900681  0.230035E-05  0.856E-03    2.08       1.6  T
   4    -85.1900719 -0.384945E-05  0.327E-03    2.08       4.1  T
   5    -85.1900721 -0.186729E-06  0.179E-03    2.08       7.5  T
   6    -85.1900722 -0.703114E-07  0.589E-04    2.08      22.9  T
   7    -85.1900722 -0.427193E-08  0.249E-04    2.08      54.1  T
     SCC iter.                  ...        0 min,  0.029 sec
     gradient                   ...        0 min,  0.006 sec
 * total energy  :   -84.0681407 Eh     change       -0.8654194E-03 Eh
   gradient norm :     0.0188460 Eh/α   predicted    -0.9304594E-03 (   7.52%)
   displ. norm   :     0.5534878 α      lambda       -0.1377187E-02
   maximum displ.:     0.3914180 α      in ANC's #7, #5, #10, ...

........................................................................
.............................. CYCLE   11 ..............................
........................................................................

 iter      E             dE          RMSdq      gap      omega  full diag
   1    -85.2001027 -0.852001E+02  0.124E-01    2.07       0.0  T
   2    -85.2001104 -0.770130E-05  0.727E-02    2.08       1.0  T
   3    -85.2001054  0.497429E-05  0.122E-02    2.08       1.1  T
   4    -85.2001118 -0.645174E-05  0.436E-03    2.08       3.1  T
   5    -85.2001124 -0.566739E-06  0.189E-03    2.08       7.2  T
   6    -85.2001125 -0.809082E-07  0.870E-04    2.08      15.5  T
   7    -85.2001125 -0.602826E-08  0.433E-04    2.08      31.1  T
     SCC iter.                  ...        0 min,  0.029 sec
     gradient                   ...        0 min,  0.010 sec
 * total energy  :   -84.0686119 Eh     change       -0.4711928E-03 Eh
   gradient norm :     0.0207138 Eh/α   predicted    -0.8995431E-03 (  90.91%)
   displ. norm   :     0.2971868 α      lambda       -0.6859954E-03
   maximum displ.:     0.1988726 α      in ANC's #7, #5, #10, ...

........................................................................
.............................. CYCLE   12 ..............................
........................................................................

 iter      E             dE          RMSdq      gap      omega  full diag
   1    -85.1952101 -0.851952E+02  0.636E-02    2.07       0.0  T
   2    -85.1952134 -0.326587E-05  0.376E-02    2.07       1.0  T
   3    -85.1952122  0.114718E-05  0.689E-03    2.07       2.0  T
   4    -85.1952140 -0.176155E-05  0.300E-03    2.07       4.5  T
   5    -85.1952143 -0.260558E-06  0.143E-03    2.07       9.4  T
   6    -85.1952143 -0.306239E-07  0.616E-04    2.07      21.9  T
   7    -85.1952143 -0.286708E-08  0.278E-04    2.07      48.6  T
     SCC iter.                  ...        0 min,  0.029 sec
     gradient                   ...        0 min,  0.007 sec
 * total energy  :   -84.0690004 Eh     change       -0.3884617E-03 Eh
   gradient norm :     0.0091431 Eh/α   predicted    -0.3732922E-03 (  -3.91%)
   displ. norm   :     0.1105346 α      lambda       -0.2616621E-03
   maximum displ.:     0.0436656 α      in ANC's #11, #6, #5, ...

........................................................................
.............................. CYCLE   13 ..............................
........................................................................

 iter      E             dE          RMSdq      gap      omega  full diag
   1    -85.2009876 -0.852010E+02  0.307E-02    2.08       0.0  T
   2    -85.2009886 -0.998634E-06  0.184E-02    2.08       1.0  T
   3    -85.2009877  0.936866E-06  0.465E-03    2.08       2.9  T
   4    -85.2009888 -0.110676E-05  0.165E-03    2.08       8.2  T
   5    -85.2009889 -0.101126E-06  0.680E-04    2.08      19.8  T
   6    -85.2009889 -0.719898E-08  0.321E-04    2.08      41.9  T
     SCC iter.                  ...        0 min,  0.025 sec
     gradient                   ...        0 min,  0.007 sec
 * total energy  :   -84.0691576 Eh     change       -0.1571642E-03 Eh
   gradient norm :     0.0098528 Eh/α   predicted    -0.1324306E-03 ( -15.74%)
   displ. norm   :     0.2891107 α      lambda       -0.3323609E-03
   maximum displ.:     0.1647136 α      in ANC's #7, #5, #11, ...

........................................................................
.............................. CYCLE   14 ..............................
........................................................................

 iter      E             dE          RMSdq      gap      omega  full diag
   1    -85.2007608 -0.852008E+02  0.617E-02    2.08       0.0  T
   2    -85.2007628 -0.199679E-05  0.367E-02    2.08       1.0  T
   3    -85.2007617  0.109775E-05  0.537E-03    2.08       2.5  T
   4    -85.2007630 -0.133791E-05  0.231E-03    2.08       5.8  T
   5    -85.2007632 -0.220245E-06  0.962E-04    2.08      14.0  T
   6    -85.2007632 -0.110808E-07  0.451E-04    2.08      29.9  T
     SCC iter.                  ...        0 min,  0.023 sec
     gradient                   ...        0 min,  0.007 sec
 * total energy  :   -84.0693780 Eh     change       -0.2204364E-03 Eh
   gradient norm :     0.0070592 Eh/α   predicted    -0.1800788E-03 ( -18.31%)
   displ. norm   :     0.2402258 α      lambda       -0.2090959E-03
   maximum displ.:     0.1114259 α      in ANC's #11, #7, #5, ...

........................................................................
.............................. CYCLE   15 ..............................
........................................................................

 iter      E             dE          RMSdq      gap      omega  full diag
   1    -85.2007975 -0.852008E+02  0.544E-02    2.08       0.0  T
   2    -85.2007986 -0.114048E-05  0.324E-02    2.08       1.0  T
   3    -85.2007985  0.111484E-06  0.336E-03    2.07       4.0  T
   4    -85.2007989 -0.372499E-06  0.175E-03    2.08       7.7  T
   5    -85.2007989 -0.805387E-07  0.871E-04    2.07      15.5  T
   6    -85.2007989 -0.130698E-07  0.313E-04    2.07      43.1  T
     SCC iter.                  ...        0 min,  0.023 sec
     gradient                   ...        0 min,  0.007 sec
 * total energy  :   -84.0695311 Eh     change       -0.1531152E-03 Eh
   gradient norm :     0.0058274 Eh/α   predicted    -0.1105840E-03 ( -27.78%)
   displ. norm   :     0.2829581 α      lambda       -0.2196700E-03
   maximum displ.:     0.1667824 α      in ANC's #11, #18, #6, ...

........................................................................
.............................. CYCLE   16 ..............................
........................................................................

 iter      E             dE          RMSdq      gap      omega  full diag
   1    -85.2004201 -0.852004E+02  0.646E-02    2.07       0.0  T
   2    -85.2004217 -0.151277E-05  0.386E-02    2.07       1.0  T
   3    -85.2004189  0.277975E-05  0.704E-03    2.07       1.9  T
   4    -85.2004223 -0.342530E-05  0.204E-03    2.07       6.6  T
   5    -85.2004224 -0.736350E-07  0.103E-03    2.07      13.1  T
   6    -85.2004224 -0.149543E-07  0.464E-04    2.07      29.1  T
   7    -85.2004224 -0.586293E-08  0.177E-04    2.07      76.3  T
     SCC iter.                  ...        0 min,  0.026 sec
     gradient                   ...        0 min,  0.007 sec
 * total energy  :   -84.0696779 Eh     change       -0.1468039E-03 Eh
   gradient norm :     0.0063035 Eh/α   predicted    -0.1186300E-03 ( -19.19%)
   displ. norm   :     0.2168448 α      lambda       -0.1496122E-03
   maximum displ.:     0.1231272 α      in ANC's #11, #1, #18, ...

........................................................................
.............................. CYCLE   17 ..............................
........................................................................

 iter      E             dE          RMSdq      gap      omega  full diag
   1    -85.1984553 -0.851985E+02  0.496E-02    2.07       0.0  T
   2    -85.1984567 -0.133238E-05  0.298E-02    2.07       1.0  T
   3    -85.1984518  0.482745E-05  0.860E-03    2.07       1.6  T
   4    -85.1984576 -0.572213E-05  0.164E-03    2.07       8.2  T
   5    -85.1984576 -0.402529E-07  0.899E-04    2.07      15.0  T
   6    -85.1984576 -0.531789E-08  0.337E-04    2.07      40.0  T
     SCC iter.                  ...        0 min,  0.023 sec
     gradient                   ...        0 min,  0.008 sec
 * total energy  :   -84.0697747 Eh     change       -0.9680019E-04 Eh
   gradient norm :     0.0053517 Eh/α   predicted    -0.7832491E-04 ( -19.09%)
   displ. norm   :     0.1822491 α      lambda       -0.1270259E-03
   maximum displ.:     0.0969877 α      in ANC's #11, #6, #1, ...

........................................................................
.............................. CYCLE   18 ..............................
........................................................................

 iter      E             dE          RMSdq      gap      omega  full diag
   1    -85.1993442 -0.851993E+02  0.442E-02    2.07       0.0  T
   2    -85.1993454 -0.120463E-05  0.263E-02    2.07       1.0  T
   3    -85.1993398  0.562759E-05  0.921E-03    2.06       1.5  T
   4    -85.1993463 -0.651644E-05  0.116E-03    2.07      11.6  T
   5    -85.1993463 -0.458052E-07  0.586E-04    2.07      23.0  T
   6    -85.1993463 -0.640981E-09  0.285E-04    2.07      47.3  T
     SCC iter.                  ...        0 min,  0.023 sec
     gradient                   ...        0 min,  0.007 sec
 * total energy  :   -84.0698538 Eh     change       -0.7908388E-04 Eh
   gradient norm :     0.0041181 Eh/α   predicted    -0.6562285E-04 ( -17.02%)
   displ. norm   :     0.1416173 α      lambda       -0.8109265E-04
   maximum displ.:     0.0669376 α      in ANC's #6, #11, #1, ...

........................................................................
.............................. CYCLE   19 ..............................
........................................................................

 iter      E             dE          RMSdq      gap      omega  full diag
   1    -85.1989937 -0.851990E+02  0.335E-02    2.06       0.0  T
   2    -85.1989946 -0.901592E-06  0.200E-02    2.07       1.0  T
   3    -85.1989920  0.261833E-05  0.725E-03    2.06       1.9  T
   4    -85.1989951 -0.310534E-05  0.135E-03    2.07      10.0  T
   5    -85.1989952 -0.422289E-07  0.724E-04    2.07      18.6  T
   6    -85.1989952 -0.246504E-08  0.403E-04    2.07      33.5  T
     SCC iter.                  ...        0 min,  0.025 sec
     gradient                   ...        0 min,  0.006 sec
 * total energy  :   -84.0699097 Eh     change       -0.5584859E-04 Eh
   gradient norm :     0.0042213 Eh/α   predicted    -0.4136204E-04 ( -25.94%)
   displ. norm   :     0.1798902 α      lambda       -0.8508111E-04
   maximum displ.:     0.0797518 α      in ANC's #6, #1, #11, ...

........................................................................
.............................. CYCLE   20 ..............................
........................................................................

 iter      E             dE          RMSdq      gap      omega  full diag
   1    -85.1993030 -0.851993E+02  0.420E-02    2.06       0.0  T
   2    -85.1993041 -0.110146E-05  0.248E-02    2.06       1.0  T
   3    -85.1993011  0.304718E-05  0.824E-03    2.06       1.6  T
   4    -85.1993046 -0.354053E-05  0.150E-03    2.06       9.0  T
   5    -85.1993047 -0.661232E-07  0.745E-04    2.06      18.1  T
   6    -85.1993047 -0.495447E-08  0.418E-04    2.06      32.3  T
     SCC iter.                  ...        0 min,  0.025 sec
     gradient                   ...        0 min,  0.006 sec
 * total energy  :   -84.0699700 Eh     change       -0.6036505E-04 Eh
   gradient norm :     0.0043262 Eh/α   predicted    -0.4392087E-04 ( -27.24%)
   displ. norm   :     0.2522736 α      lambda       -0.9571102E-04
   maximum displ.:     0.1168511 α      in ANC's #6, #1, #11, ...
 * RMSD in coord.:     0.7042595 α      energy gain  -0.4512397E-01 Eh

generating ANC from exact Hessian ...
Using Lindh-Hessian (1995)
 Shifting diagonal of input Hessian by   9.925718531526689E-003
 Lowest  eigenvalues of input Hessian
    0.000000    0.000000    0.000000    0.000000    0.000000    0.000000
    0.010000    0.010023    0.010258    0.010484    0.011155    0.011352
    0.011372    0.011846    0.012000    0.012142    0.012514    0.013054
 Highest eigenvalues
    1.977781    2.006373    2.021061    2.023545    2.145237    2.175047
 

........................................................................
.............................. CYCLE   21 ..............................
........................................................................

 iter      E             dE          RMSdq      gap      omega  full diag
   1    -85.1994179 -0.851994E+02  0.518E-02    2.06       0.0  T
   2    -85.1994192 -0.126836E-05  0.307E-02    2.06       1.0  T
   3    -85.1994172  0.196469E-05  0.734E-03    2.06       1.8  T
   4    -85.1994196 -0.241481E-05  0.173E-03    2.06       7.8  T
   5    -85.1994197 -0.644456E-07  0.957E-04    2.06      14.1  T
   6    -85.1994197 -0.106847E-07  0.452E-04    2.06      29.9  T
     SCC iter.                  ...        0 min,  0.023 sec
     gradient                   ...        0 min,  0.006 sec
 * total energy  :   -84.0700386 Eh     change       -0.6858965E-04 Eh
   gradient norm :     0.0049737 Eh/α   predicted     0.0000000E+00 (-100.00%)
   displ. norm   :     0.0429378 α      lambda       -0.7145628E-04
   maximum displ.:     0.0203262 α      in ANC's #5, #1, #36, ...

........................................................................
.............................. CYCLE   22 ..............................
........................................................................

 iter      E             dE          RMSdq      gap      omega  full diag
   1    -85.2001968 -0.852002E+02  0.149E-02    2.07       0.0  T
   2    -85.2001971 -0.255901E-06  0.900E-03    2.06       1.5  T
   3    -85.2001963  0.736877E-06  0.391E-03    2.07       3.5  T
   4    -85.2001972 -0.853510E-06  0.692E-04    2.06      19.5  T
   5    -85.2001972 -0.139461E-07  0.296E-04    2.06      45.6  T
     SCC iter.                  ...        0 min,  0.018 sec
     gradient                   ...        0 min,  0.007 sec
 * total energy  :   -84.0700928 Eh     change       -0.5418840E-04 Eh
   gradient norm :     0.0021639 Eh/α   predicted    -0.3595842E-04 ( -33.64%)
   displ. norm   :     0.0866935 α      lambda       -0.6643494E-04
   maximum displ.:     0.0472242 α      in ANC's #5, #1, #7, ...

........................................................................
.............................. CYCLE   23 ..............................
........................................................................

 iter      E             dE          RMSdq      gap      omega  full diag
   1    -85.2006650 -0.852007E+02  0.227E-02    2.07       0.0  T
   2    -85.2006655 -0.486434E-06  0.138E-02    2.07       1.0  T
   3    -85.2006642  0.132620E-05  0.513E-03    2.07       2.6  T
   4    -85.2006657 -0.154148E-05  0.994E-04    2.07      13.6  T
   5    -85.2006657 -0.259123E-07  0.477E-04    2.07      28.3  T
   6    -85.2006657 -0.182222E-08  0.268E-04    2.07      50.3  T
     SCC iter.                  ...        0 min,  0.022 sec
     gradient                   ...        0 min,  0.007 sec
 * total energy  :   -84.0701369 Eh     change       -0.4407420E-04 Eh
   gradient norm :     0.0014937 Eh/α   predicted    -0.3346769E-04 ( -24.07%)
   displ. norm   :     0.1288506 α      lambda       -0.3297589E-04
   maximum displ.:     0.0753086 α      in ANC's #5, #1, #7, ...

........................................................................
.............................. CYCLE   24 ..............................
........................................................................

 iter      E             dE          RMSdq      gap      omega  full diag
   1    -85.2004701 -0.852005E+02  0.290E-02    2.07       0.0  T
   2    -85.2004705 -0.423053E-06  0.176E-02    2.07       1.0  T
   3    -85.2004697  0.777555E-06  0.406E-03    2.07       3.3  T
   4    -85.2004707 -0.968332E-06  0.101E-03    2.07      13.3  T
   5    -85.2004707 -0.167132E-07  0.565E-04    2.07      23.9  T
   6    -85.2004707 -0.220470E-08  0.264E-04    2.07      51.1  T
     SCC iter.                  ...        0 min,  0.023 sec
     gradient                   ...        0 min,  0.007 sec
 * total energy  :   -84.0701709 Eh     change       -0.3402473E-04 Eh
   gradient norm :     0.0026357 Eh/α   predicted    -0.1677386E-04 ( -50.70%)
   displ. norm   :     0.0841659 α      lambda       -0.3016089E-04
   maximum displ.:     0.0499293 α      in ANC's #5, #1, #7, ...

........................................................................
.............................. CYCLE   25 ..............................
........................................................................

 iter      E             dE          RMSdq      gap      omega  full diag
   1    -85.2002918 -0.852003E+02  0.187E-02    2.07       0.0  T
   2    -85.2002920 -0.161004E-06  0.113E-02    2.07       1.2  T
   3    -85.2002918  0.216278E-06  0.255E-03    2.07       5.3  T
   4    -85.2002920 -0.276367E-06  0.678E-04    2.07      19.9  T
   5    -85.2002920 -0.904015E-08  0.364E-04    2.07      37.1  T
     SCC iter.                  ...        0 min,  0.019 sec
     gradient                   ...        0 min,  0.007 sec
 * total energy  :   -84.0701961 Eh     change       -0.2524412E-04 Eh
   gradient norm :     0.0020471 Eh/α   predicted    -0.1518748E-04 ( -39.84%)
   displ. norm   :     0.1479052 α      lambda       -0.4319559E-04
   maximum displ.:     0.0875249 α      in ANC's #5, #1, #7, ...

........................................................................
.............................. CYCLE   26 ..............................
........................................................................

 iter      E             dE          RMSdq      gap      omega  full diag
   1    -85.2000485 -0.852000E+02  0.330E-02    2.07       0.0  T
   2    -85.2000491 -0.583699E-06  0.198E-02    2.07       1.0  T
   3    -85.2000479  0.125369E-05  0.568E-03    2.07       2.4  T
   4    -85.2000494 -0.147810E-05  0.123E-03    2.07      10.9  T
   5    -85.2000494 -0.387060E-07  0.616E-04    2.07      21.9  T
   6    -85.2000494 -0.336991E-08  0.293E-04    2.07      46.0  T
     SCC iter.                  ...        0 min,  0.019 sec
     gradient                   ...        0 min,  0.008 sec
 * total energy  :   -84.0702263 Eh     change       -0.3014557E-04 Eh
   gradient norm :     0.0014954 Eh/α   predicted    -0.2207701E-04 ( -26.77%)
   displ. norm   :     0.1614353 α      lambda       -0.2051562E-04
   maximum displ.:     0.0969159 α      in ANC's #5, #1, #7, ...

........................................................................
.............................. CYCLE   27 ..............................
........................................................................

 iter      E             dE          RMSdq      gap      omega  full diag
   1    -85.2001467 -0.852001E+02  0.350E-02    2.06       0.0  T
   2    -85.2001474 -0.603584E-06  0.208E-02    2.07       1.0  T
   3    -85.2001455  0.188461E-05  0.660E-03    2.07       2.0  T
   4    -85.2001476 -0.215725E-05  0.122E-03    2.07      11.0  T
   5    -85.2001477 -0.427594E-07  0.585E-04    2.07      23.1  T
   6    -85.2001477 -0.212637E-08  0.306E-04    2.07      44.0  T
     SCC iter.                  ...        0 min,  0.019 sec
     gradient                   ...        0 min,  0.009 sec
 * total energy  :   -84.0702476 Eh     change       -0.2132946E-04 Eh
   gradient norm :     0.0016522 Eh/α   predicted    -0.1037676E-04 ( -51.35%)
   displ. norm   :     0.1232465 α      lambda       -0.1785246E-04
   maximum displ.:     0.0723093 α      in ANC's #5, #1, #7, ...

........................................................................
.............................. CYCLE   28 ..............................
........................................................................

 iter      E             dE          RMSdq      gap      omega  full diag
   1    -85.2006910 -0.852007E+02  0.251E-02    2.06       0.0  T
   2    -85.2006912 -0.234304E-06  0.149E-02    2.07       1.0  T
   3    -85.2006904  0.849881E-06  0.422E-03    2.07       3.2  T
   4    -85.2006914 -0.968023E-06  0.703E-04    2.07      19.2  T
   5    -85.2006914 -0.137196E-07  0.349E-04    2.07      38.6  T
     SCC iter.                  ...        0 min,  0.016 sec
     gradient                   ...        0 min,  0.006 sec
 * total energy  :   -84.0702703 Eh     change       -0.2263990E-04 Eh
   gradient norm :     0.0017805 Eh/α   predicted    -0.9050507E-05 ( -60.02%)
   displ. norm   :     0.2491097 α      lambda       -0.3360355E-04
   maximum displ.:     0.1427760 α      in ANC's #5, #1, #7, ...

........................................................................
.............................. CYCLE   29 ..............................
........................................................................

 iter      E             dE          RMSdq      gap      omega  full diag
   1    -85.2008475 -0.852008E+02  0.496E-02    2.06       0.0  T
   2    -85.2008481 -0.617388E-06  0.293E-02    2.07       1.0  T
   3    -85.2008458  0.223942E-05  0.652E-03    2.06       2.1  T
   4    -85.2008484 -0.259571E-05  0.119E-03    2.07      11.4  T
   5    -85.2008485 -0.239590E-07  0.665E-04    2.07      20.3  T
   6    -85.2008485 -0.212533E-08  0.334E-04    2.07      40.4  T
     SCC iter.                  ...        0 min,  0.020 sec
     gradient                   ...        0 min,  0.008 sec
 * total energy  :   -84.0703097 Eh     change       -0.3944278E-04 Eh
   gradient norm :     0.0017181 Eh/α   predicted    -0.1726550E-04 ( -56.23%)
   displ. norm   :     0.3206571 α      lambda       -0.3354927E-04
   maximum displ.:     0.1813254 α      in ANC's #5, #1, #2, ...

........................................................................
.............................. CYCLE   30 ..............................
........................................................................

 iter      E             dE          RMSdq      gap      omega  full diag
   1    -85.2005134 -0.852005E+02  0.622E-02    2.06       0.0  T
   2    -85.2005142 -0.831573E-06  0.368E-02    2.06       1.0  T
   3    -85.2005114  0.287855E-05  0.730E-03    2.06       1.8  T
   4    -85.2005147 -0.336885E-05  0.137E-03    2.06       9.8  T
   5    -85.2005147 -0.266574E-07  0.788E-04    2.06      17.1  T
   6    -85.2005147 -0.358810E-08  0.365E-04    2.06      36.9  T
     SCC iter.                  ...        0 min,  0.020 sec
     gradient                   ...        0 min,  0.008 sec
 * total energy  :   -84.0703464 Eh     change       -0.3671262E-04 Eh
   gradient norm :     0.0016800 Eh/α   predicted    -0.1755034E-04 ( -52.20%)
   displ. norm   :     0.2668199 α      lambda       -0.2251021E-04
   maximum displ.:     0.1495957 α      in ANC's #1, #5, #2, ...

........................................................................
.............................. CYCLE   31 ..............................
........................................................................

 iter      E             dE          RMSdq      gap      omega  full diag
   1    -85.2008265 -0.852008E+02  0.503E-02    2.06       0.0  T
   2    -85.2008270 -0.427245E-06  0.297E-02    2.06       1.0  T
   3    -85.2008260  0.101028E-05  0.443E-03    2.06       3.0  T
   4    -85.2008272 -0.124389E-05  0.104E-03    2.06      13.0  T
   5    -85.2008272 -0.126918E-07  0.590E-04    2.06      22.9  T
   6    -85.2008272 -0.277571E-08  0.247E-04    2.06      54.6  T
     SCC iter.                  ...        0 min,  0.020 sec
     gradient                   ...        0 min,  0.008 sec
 * total energy  :   -84.0703705 Eh     change       -0.2412575E-04 Eh
   gradient norm :     0.0013600 Eh/α   predicted    -0.1161138E-04 ( -51.87%)
   displ. norm   :     0.1920891 α      lambda       -0.1386019E-04
   maximum displ.:     0.1122328 α      in ANC's #1, #5, #2, ...

........................................................................
.............................. CYCLE   32 ..............................
........................................................................

 iter      E             dE          RMSdq      gap      omega  full diag
   1    -85.2009310 -0.852009E+02  0.353E-02    2.06       0.0  T
   2    -85.2009313 -0.232957E-06  0.208E-02    2.06       1.0  T
   3    -85.2009311  0.196041E-06  0.234E-03    2.06       5.8  T
   4    -85.2009314 -0.296337E-06  0.723E-04    2.06      18.6  T
   5    -85.2009314 -0.494593E-08  0.398E-04    2.06      33.9  T
     SCC iter.                  ...        0 min,  0.026 sec
     gradient                   ...        0 min,  0.009 sec
 * total energy  :   -84.0703862 Eh     change       -0.1571584E-04 Eh
   gradient norm :     0.0008108 Eh/α   predicted    -0.7046281E-05 ( -55.16%)
   displ. norm   :     0.1476966 α      lambda       -0.1263768E-04
   maximum displ.:     0.0898831 α      in ANC's #1, #5, #2, ...

........................................................................
.............................. CYCLE   33 ..............................
........................................................................

 iter      E             dE          RMSdq      gap      omega  full diag
   1    -85.2016285 -0.852016E+02  0.266E-02    2.06       0.0  T
   2    -85.2016286 -0.135570E-06  0.156E-02    2.06       1.0  T
   3    -85.2016284  0.238773E-06  0.220E-03    2.06       6.1  T
   4    -85.2016287 -0.302478E-06  0.456E-04    2.06      29.6  T
   5    -85.2016287 -0.253847E-08  0.274E-04    2.06      49.3  T
     SCC iter.                  ...        0 min,  0.029 sec
     gradient                   ...        0 min,  0.013 sec
 * total energy  :   -84.0704008 Eh     change       -0.1451089E-04 Eh
   gradient norm :     0.0012010 Eh/α   predicted    -0.6382478E-05 ( -56.02%)
   displ. norm   :     0.1757614 α      lambda       -0.1486266E-04
   maximum displ.:     0.1092496 α      in ANC's #1, #2, #5, ...

........................................................................
.............................. CYCLE   34 ..............................
........................................................................

 iter      E             dE          RMSdq      gap      omega  full diag
   1    -85.2013251 -0.852013E+02  0.323E-02    2.06       0.0  T
   2    -85.2013253 -0.212762E-06  0.190E-02    2.06       1.0  T
   3    -85.2013249  0.444614E-06  0.286E-03    2.06       4.7  T
   4    -85.2013255 -0.557924E-06  0.573E-04    2.06      23.5  T
   5    -85.2013255 -0.241215E-08  0.338E-04    2.06      39.9  T
     SCC iter.                  ...        0 min,  0.017 sec
     gradient                   ...        0 min,  0.008 sec
 * total energy  :   -84.0704190 Eh     change       -0.1828554E-04 Eh
   gradient norm :     0.0009928 Eh/α   predicted    -0.7537601E-05 ( -58.78%)
   displ. norm   :     0.1929962 α      lambda       -0.1702889E-04
   maximum displ.:     0.1200259 α      in ANC's #1, #2, #5, ...

........................................................................
.............................. CYCLE   35 ..............................
........................................................................

 iter      E             dE          RMSdq      gap      omega  full diag
   1    -85.2012964 -0.852013E+02  0.365E-02    2.06       0.0  T
   2    -85.2012967 -0.266676E-06  0.215E-02    2.06       1.0  T
   3    -85.2012960  0.679896E-06  0.342E-03    2.07       3.9  T
   4    -85.2012968 -0.833763E-06  0.671E-04    2.06      20.1  T
   5    -85.2012968 -0.359519E-08  0.402E-04    2.06      33.6  T
     SCC iter.                  ...        0 min,  0.017 sec
     gradient                   ...        0 min,  0.007 sec
 * total energy  :   -84.0704409 Eh     change       -0.2181772E-04 Eh
   gradient norm :     0.0010213 Eh/α   predicted    -0.8655694E-05 ( -60.33%)
   displ. norm   :     0.2668226 α      lambda       -0.2333698E-04
   maximum displ.:     0.1655435 α      in ANC's #1, #2, #5, ...

........................................................................
.............................. CYCLE   36 ..............................
........................................................................

 iter      E             dE          RMSdq      gap      omega  full diag
   1    -85.2008975 -0.852009E+02  0.509E-02    2.06       0.0  T
   2    -85.2008980 -0.467308E-06  0.300E-02    2.06       1.0  T
   3    -85.2008970  0.104472E-05  0.427E-03    2.07       3.2  T
   4    -85.2008983 -0.129817E-05  0.911E-04    2.06      14.8  T
   5    -85.2008983 -0.800136E-08  0.525E-04    2.06      25.7  T
   6    -85.2008983 -0.442328E-08  0.186E-04    2.06      72.4  T
     SCC iter.                  ...        0 min,  0.020 sec
     gradient                   ...        0 min,  0.006 sec
 * total energy  :   -84.0704704 Eh     change       -0.2949360E-04 Eh
   gradient norm :     0.0009896 Eh/α   predicted    -0.1203850E-04 ( -59.18%)
   displ. norm   :     0.3333781 α      lambda       -0.2808408E-04
   maximum displ.:     0.2056499 α      in ANC's #1, #2, #7, ...

........................................................................
.............................. CYCLE   37 ..............................
........................................................................

 iter      E             dE          RMSdq      gap      omega  full diag
   1    -85.2005159 -0.852005E+02  0.633E-02    2.06       0.0  T
   2    -85.2005166 -0.643387E-06  0.373E-02    2.06       1.0  T
   3    -85.2005155  0.112563E-05  0.467E-03    2.07       2.9  T
   4    -85.2005169 -0.144445E-05  0.115E-03    2.06      11.8  T
   5    -85.2005169 -0.150826E-07  0.651E-04    2.06      20.7  T
   6    -85.2005169 -0.523907E-08  0.265E-04    2.06      50.9  T
     SCC iter.                  ...        0 min,  0.023 sec
     gradient                   ...        0 min,  0.008 sec
 * total energy  :   -84.0705053 Eh     change       -0.3490166E-04 Eh
   gradient norm :     0.0014814 Eh/α   predicted    -0.1473690E-04 ( -57.78%)
   displ. norm   :     0.3902958 α      lambda       -0.3204605E-04
   maximum displ.:     0.2410308 α      in ANC's #1, #2, #7, ...

........................................................................
.............................. CYCLE   38 ..............................
........................................................................

 iter      E             dE          RMSdq      gap      omega  full diag
   1    -85.2000608 -0.852001E+02  0.727E-02    2.06       0.0  T
   2    -85.2000616 -0.777509E-06  0.429E-02    2.06       1.0  T
   3    -85.2000606  0.942477E-06  0.463E-03    2.06       2.9  T
   4    -85.2000619 -0.128902E-05  0.125E-03    2.06      10.8  T
   5    -85.2000619 -0.194850E-07  0.698E-04    2.06      19.3  T
   6    -85.2000619 -0.526693E-08  0.298E-04    2.06      45.3  T
     SCC iter.                  ...        0 min,  0.020 sec
     gradient                   ...        0 min,  0.007 sec
 * total energy  :   -84.0705452 Eh     change       -0.3991001E-04 Eh
   gradient norm :     0.0018415 Eh/α   predicted    -0.1711099E-04 ( -57.13%)
   displ. norm   :     0.4530376 α      lambda       -0.3909998E-04
   maximum displ.:     0.2806474 α      in ANC's #1, #2, #7, ...

........................................................................
.............................. CYCLE   39 ..............................
........................................................................

 iter      E             dE          RMSdq      gap      omega  full diag
   1    -85.1998286 -0.851998E+02  0.822E-02    2.06       0.0  T
   2    -85.1998295 -0.921468E-06  0.485E-02    2.06       1.0  T
   3    -85.1998287  0.767336E-06  0.473E-03    2.06       2.9  T
   4    -85.1998299 -0.115225E-05  0.137E-03    2.06       9.8  T
   5    -85.1998299 -0.184351E-07  0.785E-04    2.06      17.2  T
   6    -85.1998299 -0.664679E-08  0.361E-04    2.06      37.4  T
     SCC iter.                  ...        0 min,  0.019 sec
     gradient                   ...        0 min,  0.012 sec
 * total energy  :   -84.0705931 Eh     change       -0.4794308E-04 Eh
   gradient norm :     0.0018996 Eh/α   predicted    -0.2133603E-04 ( -55.50%)
   displ. norm   :     0.5007215 α      lambda       -0.4466636E-04
   maximum displ.:     0.3140139 α      in ANC's #1, #2, #7, ...

........................................................................
.............................. CYCLE   40 ..............................
........................................................................

 iter      E             dE          RMSdq      gap      omega  full diag
   1    -85.1996342 -0.851996E+02  0.879E-02    2.06       0.0  T
   2    -85.1996352 -0.993895E-06  0.519E-02    2.06       1.0  T
   3    -85.1996343  0.895046E-06  0.498E-03    2.06       2.7  T
   4    -85.1996356 -0.134588E-05  0.137E-03    2.06       9.8  T
   5    -85.1996356 -0.128988E-07  0.701E-04    2.06      19.2  T
   6    -85.1996356 -0.443922E-08  0.230E-04    2.06      58.7  T
     SCC iter.                  ...        0 min,  0.025 sec
     gradient                   ...        0 min,  0.009 sec
 * total energy  :   -84.0706451 Eh     change       -0.5194438E-04 Eh
   gradient norm :     0.0019618 Eh/α   predicted    -0.2482451E-04 ( -52.21%)
   displ. norm   :     0.4535775 α      lambda       -0.4336408E-04
   maximum displ.:     0.2899624 α      in ANC's #1, #2, #7, ...

........................................................................
.............................. CYCLE   41 ..............................
........................................................................

 iter      E             dE          RMSdq      gap      omega  full diag
   1    -85.2007699 -0.852008E+02  0.754E-02    2.06       0.0  T
   2    -85.2007708 -0.890940E-06  0.445E-02    2.06       1.0  T
   3    -85.2007694  0.136289E-05  0.524E-03    2.06       2.6  T
   4    -85.2007712 -0.177264E-05  0.128E-03    2.06      10.5  T
   5    -85.2007712 -0.158877E-07  0.737E-04    2.06      18.3  T
   6    -85.2007712 -0.775974E-08  0.311E-04    2.06      43.4  T
     SCC iter.                  ...        0 min,  0.018 sec
     gradient                   ...        0 min,  0.009 sec
 * total energy  :   -84.0706907 Eh     change       -0.4559363E-04 Eh
   gradient norm :     0.0019856 Eh/α   predicted    -0.2366644E-04 ( -48.09%)
   displ. norm   :     0.5220157 α      lambda       -0.3905581E-04
   maximum displ.:     0.3432920 α      in ANC's #1, #2, #4, ...

........................................................................
.............................. CYCLE   42 ..............................
........................................................................

 iter      E             dE          RMSdq      gap      omega  full diag
   1    -85.1984983 -0.851985E+02  0.844E-02    2.05       0.0  T
   2    -85.1984992 -0.919695E-06  0.498E-02    2.05       1.0  T
   3    -85.1984978  0.143444E-05  0.560E-03    2.05       2.4  T
   4    -85.1984997 -0.191709E-05  0.145E-03    2.05       9.3  T
   5    -85.1984997 -0.781401E-08  0.875E-04    2.05      15.4  T
   6    -85.1984998 -0.150893E-07  0.318E-04    2.05      42.4  T
     SCC iter.                  ...        0 min,  0.019 sec
     gradient                   ...        0 min,  0.009 sec
 * total energy  :   -84.0707173 Eh     change       -0.2665278E-04 Eh
   gradient norm :     0.0031683 Eh/α   predicted    -0.2189686E-04 ( -17.84%)
   displ. norm   :     0.1300504 α      lambda       -0.4809180E-04
   maximum displ.:     0.0800754 α      in ANC's #1, #2, #11, ...
 * RMSD in coord.:     0.6142918 α      energy gain  -0.7472863E-03 Eh

generating ANC from exact Hessian ...
Using Lindh-Hessian (1995)
 Shifting diagonal of input Hessian by   9.916015178589107E-003
 Lowest  eigenvalues of input Hessian
    0.000000    0.000000    0.000000    0.000000    0.000000    0.000000
    0.010000    0.010016    0.010239    0.010491    0.011105    0.011337
    0.011375    0.011805    0.011931    0.012082    0.012459    0.013200
 Highest eigenvalues
    1.977523    2.008712    2.023552    2.025235    2.146187    2.178449
 

........................................................................
.............................. CYCLE   43 ..............................
........................................................................

 iter      E             dE          RMSdq      gap      omega  full diag
   1    -85.2018116 -0.852018E+02  0.206E-02    2.05       0.0  T
   2    -85.2018119 -0.267788E-06  0.123E-02    2.05       1.1  T
   3    -85.2018115  0.380304E-06  0.299E-03    2.05       4.5  T
   4    -85.2018120 -0.484069E-06  0.688E-04    2.05      19.6  T
   5    -85.2018120 -0.716837E-08  0.384E-04    2.05      35.1  T
     SCC iter.                  ...        0 min,  0.015 sec
     gradient                   ...        0 min,  0.009 sec
 * total energy  :   -84.0707425 Eh     change       -0.2519635E-04 Eh
   gradient norm :     0.0024306 Eh/α   predicted     0.0000000E+00 (-100.00%)
   displ. norm   :     0.0228598 α      lambda       -0.1862983E-04
   maximum displ.:     0.0098801 α      in ANC's #1, #10, #7, ...

........................................................................
.............................. CYCLE   44 ..............................
........................................................................

 iter      E             dE          RMSdq      gap      omega  full diag
   1    -85.2015732 -0.852016E+02  0.833E-03    2.05       0.0  T
   2    -85.2015733 -0.365016E-07  0.499E-03    2.05       2.7  T
   3    -85.2015733  0.279292E-07  0.881E-04    2.05      15.3  T
   4    -85.2015733 -0.363592E-07  0.221E-04    2.05      61.0  T
     SCC iter.                  ...        0 min,  0.012 sec
     gradient                   ...        0 min,  0.008 sec
 * total energy  :   -84.0707556 Eh     change       -0.1310468E-04 Eh
   gradient norm :     0.0008512 Eh/α   predicted    -0.9344400E-05 ( -28.69%)
   displ. norm   :     0.0624395 α      lambda       -0.1437761E-04
   maximum displ.:     0.0305459 α      in ANC's #1, #10, #7, ...

........................................................................
.............................. CYCLE   45 ..............................
........................................................................

 iter      E             dE          RMSdq      gap      omega  full diag
   1    -85.2012663 -0.852013E+02  0.132E-02    2.05       0.0  T
   2    -85.2012664 -0.133948E-06  0.794E-03    2.05       1.7  T
   3    -85.2012662  0.150394E-06  0.197E-03    2.05       6.8  T
   4    -85.2012664 -0.192170E-06  0.451E-04    2.05      29.9  T
   5    -85.2012664 -0.405787E-08  0.249E-04    2.05      54.2  T
     SCC iter.                  ...        0 min,  0.015 sec
     gradient                   ...        0 min,  0.009 sec
 * total energy  :   -84.0707682 Eh     change       -0.1254867E-04 Eh
   gradient norm :     0.0017752 Eh/α   predicted    -0.7204039E-05 ( -42.59%)
   displ. norm   :     0.0540116 α      lambda       -0.8003032E-05
   maximum displ.:     0.0293052 α      in ANC's #1, #7, #10, ...

........................................................................
.............................. CYCLE   46 ..............................
........................................................................

 iter      E             dE          RMSdq      gap      omega  full diag
   1    -85.2013647 -0.852014E+02  0.990E-03    2.05       0.0  T
   2    -85.2013647 -0.437726E-07  0.595E-03    2.05       2.3  T
   3    -85.2013646  0.149049E-06  0.168E-03    2.05       8.0  T
   4    -85.2013648 -0.175593E-06  0.332E-04    2.05      40.6  T
   5    -85.2013648 -0.161700E-08  0.195E-04    2.05      69.1  T
     SCC iter.                  ...        0 min,  0.015 sec
     gradient                   ...        0 min,  0.009 sec
 * total energy  :   -84.0707781 Eh     change       -0.9947466E-05 Eh
   gradient norm :     0.0013595 Eh/α   predicted    -0.4063250E-05 ( -59.15%)
   displ. norm   :     0.1022763 α      lambda       -0.1192578E-04
   maximum displ.:     0.0579561 α      in ANC's #1, #7, #10, ...

........................................................................
.............................. CYCLE   47 ..............................
........................................................................

 iter      E             dE          RMSdq      gap      omega  full diag
   1    -85.2015122 -0.852015E+02  0.183E-02    2.06       0.0  T
   2    -85.2015123 -0.108219E-06  0.110E-02    2.06       1.2  T
   3    -85.2015120  0.375372E-06  0.255E-03    2.06       5.3  T
   4    -85.2015124 -0.443166E-06  0.522E-04    2.06      25.8  T
   5    -85.2015124 -0.185382E-08  0.299E-04    2.06      45.0  T
     SCC iter.                  ...        0 min,  0.015 sec
     gradient                   ...        0 min,  0.009 sec
 * total energy  :   -84.0707907 Eh     change       -0.1258021E-04 Eh
   gradient norm :     0.0005075 Eh/α   predicted    -0.5991420E-05 ( -52.37%)
   displ. norm   :     0.0909861 α      lambda       -0.6943584E-05
   maximum displ.:     0.0542158 α      in ANC's #1, #7, #2, ...

........................................................................
.............................. CYCLE   48 ..............................
........................................................................

 iter      E             dE          RMSdq      gap      omega  full diag
   1    -85.2015949 -0.852016E+02  0.165E-02    2.06       0.0  T
   2    -85.2015950 -0.572912E-07  0.987E-03    2.06       1.4  T
   3    -85.2015949  0.706033E-07  0.127E-03    2.06      10.6  T
   4    -85.2015950 -0.991172E-07  0.415E-04    2.06      32.5  T
   5    -85.2015950 -0.173657E-08  0.207E-04    2.06      65.0  T
     SCC iter.                  ...        0 min,  0.021 sec
     gradient                   ...        0 min,  0.009 sec
 * total energy  :   -84.0707991 Eh     change       -0.8455990E-05 Eh
   gradient norm :     0.0007949 Eh/α   predicted    -0.3484694E-05 ( -58.79%)
   displ. norm   :     0.1004515 α      lambda       -0.8351090E-05
   maximum displ.:     0.0613412 α      in ANC's #1, #7, #2, ...

........................................................................
.............................. CYCLE   49 ..............................
........................................................................

 iter      E             dE          RMSdq      gap      omega  full diag
   1    -85.2016930 -0.852017E+02  0.189E-02    2.06       0.0  T
   2    -85.2016931 -0.728545E-07  0.113E-02    2.06       1.2  T
   3    -85.2016930  0.622954E-07  0.135E-03    2.06      10.0  T
   4    -85.2016931 -0.972732E-07  0.427E-04    2.06      31.6  T
   5    -85.2016931 -0.863835E-09  0.200E-04    2.06      67.3  T
     SCC iter.                  ...        0 min,  0.021 sec
     gradient                   ...        0 min,  0.007 sec
 * total energy  :   -84.0708100 Eh     change       -0.1089502E-04 Eh
   gradient norm :     0.0010113 Eh/α   predicted    -0.4197669E-05 ( -61.47%)
   displ. norm   :     0.1612221 α      lambda       -0.1384318E-04
   maximum displ.:     0.0982807 α      in ANC's #1, #7, #2, ...

........................................................................
.............................. CYCLE   50 ..............................
........................................................................

 iter      E             dE          RMSdq      gap      omega  full diag
   1    -85.2016361 -0.852016E+02  0.309E-02    2.06       0.0  T
   2    -85.2016363 -0.237282E-06  0.185E-02    2.06       1.0  T
   3    -85.2016358  0.570185E-06  0.334E-03    2.06       4.0  T
   4    -85.2016365 -0.701374E-06  0.766E-04    2.06      17.6  T
   5    -85.2016365 -0.498997E-08  0.451E-04    2.06      29.9  T
     SCC iter.                  ...        0 min,  0.020 sec
     gradient                   ...        0 min,  0.008 sec
 * total energy  :   -84.0708271 Eh     change       -0.1703704E-04 Eh
   gradient norm :     0.0009752 Eh/α   predicted    -0.7004765E-05 ( -58.89%)
   displ. norm   :     0.2135936 α      lambda       -0.1456174E-04
   maximum displ.:     0.1316756 α      in ANC's #1, #7, #2, ...

........................................................................
.............................. CYCLE   51 ..............................
........................................................................

 iter      E             dE          RMSdq      gap      omega  full diag
   1    -85.2014031 -0.852014E+02  0.392E-02    2.05       0.0  T
   2    -85.2014035 -0.451983E-06  0.234E-02    2.06       1.0  T
   3    -85.2014023  0.124864E-05  0.477E-03    2.05       2.8  T
   4    -85.2014038 -0.149552E-05  0.970E-04    2.06      13.9  T
   5    -85.2014038 -0.119935E-07  0.551E-04    2.06      24.5  T
   6    -85.2014038 -0.242134E-08  0.224E-04    2.06      60.3  T
     SCC iter.                  ...        0 min,  0.024 sec
     gradient                   ...        0 min,  0.008 sec
 * total energy  :   -84.0708437 Eh     change       -0.1663156E-04 Eh
   gradient norm :     0.0007548 Eh/α   predicted    -0.7431716E-05 ( -55.32%)
   displ. norm   :     0.1573123 α      lambda       -0.8505039E-05
   maximum displ.:     0.0996255 α      in ANC's #1, #7, #2, ...

........................................................................
.............................. CYCLE   52 ..............................
........................................................................

 iter      E             dE          RMSdq      gap      omega  full diag
   1    -85.2015970 -0.852016E+02  0.265E-02    2.05       0.0  T
   2    -85.2015972 -0.222554E-06  0.158E-02    2.06       1.0  T
   3    -85.2015966  0.616561E-06  0.340E-03    2.06       4.0  T
   4    -85.2015973 -0.731994E-06  0.686E-04    2.06      19.6  T
   5    -85.2015973 -0.790963E-08  0.387E-04    2.06      34.9  T
     SCC iter.                  ...        0 min,  0.020 sec
     gradient                   ...        0 min,  0.008 sec
 * total energy  :   -84.0708541 Eh     change       -0.1041221E-04 Eh
   gradient norm :     0.0005456 Eh/α   predicted    -0.4303178E-05 ( -58.67%)
   displ. norm   :     0.1229001 α      lambda       -0.7248073E-05
   maximum displ.:     0.0796080 α      in ANC's #1, #2, #7, ...

........................................................................
.............................. CYCLE   53 ..............................
........................................................................

 iter      E             dE          RMSdq      gap      omega  full diag
   1    -85.2018144 -0.852018E+02  0.183E-02    2.06       0.0  T
   2    -85.2018145 -0.104335E-06  0.109E-02    2.06       1.2  T
   3    -85.2018143  0.212813E-06  0.208E-03    2.06       6.5  T
   4    -85.2018145 -0.260859E-06  0.462E-04    2.06      29.2  T
   5    -85.2018145 -0.377707E-08  0.263E-04    2.06      51.2  T
     SCC iter.                  ...        0 min,  0.021 sec
     gradient                   ...        0 min,  0.008 sec
 * total energy  :   -84.0708637 Eh     change       -0.9602376E-05 Eh
   gradient norm :     0.0004023 Eh/α   predicted    -0.3650496E-05 ( -61.98%)
   displ. norm   :     0.1458842 α      lambda       -0.9569856E-05
   maximum displ.:     0.0948476 α      in ANC's #1, #2, #4, ...

........................................................................
.............................. CYCLE   54 ..............................
........................................................................

 iter      E             dE          RMSdq      gap      omega  full diag
   1    -85.2018580 -0.852019E+02  0.208E-02    2.06       0.0  T
   2    -85.2018581 -0.104708E-06  0.123E-02    2.06       1.1  T
   3    -85.2018580  0.133067E-06  0.194E-03    2.06       7.0  T
   4    -85.2018582 -0.181208E-06  0.475E-04    2.06      28.4  T
   5    -85.2018582 -0.165714E-08  0.268E-04    2.06      50.3  T
     SCC iter.                  ...        0 min,  0.021 sec
     gradient                   ...        0 min,  0.008 sec
 * total energy  :   -84.0708764 Eh     change       -0.1268133E-04 Eh
   gradient norm :     0.0005605 Eh/α   predicted    -0.4833437E-05 ( -61.89%)
   displ. norm   :     0.1815974 α      lambda       -0.1194387E-04
   maximum displ.:     0.1176247 α      in ANC's #1, #2, #4, ...

........................................................................
.............................. CYCLE   55 ..............................
........................................................................

 iter      E             dE          RMSdq      gap      omega  full diag
   1    -85.2018280 -0.852018E+02  0.265E-02    2.06       0.0  T
   2    -85.2018282 -0.131145E-06  0.157E-02    2.06       1.0  T
   3    -85.2018280  0.208934E-06  0.236E-03    2.06       5.7  T
   4    -85.2018282 -0.281625E-06  0.581E-04    2.06      23.2  T
   5    -85.2018282 -0.193666E-09  0.379E-04    2.06      35.5  T
     SCC iter.                  ...        0 min,  0.029 sec
     gradient                   ...        0 min,  0.007 sec
 * total energy  :   -84.0708919 Eh     change       -0.1552716E-04 Eh
   gradient norm :     0.0007165 Eh/α   predicted    -0.6061212E-05 ( -60.96%)
   displ. norm   :     0.2165921 α      lambda       -0.1281385E-04
   maximum displ.:     0.1406872 α      in ANC's #1, #2, #4, ...

........................................................................
.............................. CYCLE   56 ..............................
........................................................................

 iter      E             dE          RMSdq      gap      omega  full diag
   1    -85.2015933 -0.852016E+02  0.319E-02    2.06       0.0  T
   2    -85.2015934 -0.190090E-06  0.189E-02    2.06       1.0  T
   3    -85.2015930  0.473140E-06  0.327E-03    2.06       4.1  T
   4    -85.2015936 -0.591697E-06  0.706E-04    2.06      19.1  T
   5    -85.2015936 -0.189944E-08  0.472E-04    2.06      28.6  T
     SCC iter.                  ...        0 min,  0.033 sec
     gradient                   ...        0 min,  0.007 sec
 * total energy  :   -84.0709084 Eh     change       -0.1650670E-04 Eh
   gradient norm :     0.0007035 Eh/α   predicted    -0.6543487E-05 ( -60.36%)
   displ. norm   :     0.2164945 α      lambda       -0.1191552E-04
   maximum displ.:     0.1416384 α      in ANC's #1, #2, #4, ...

........................................................................
.............................. CYCLE   57 ..............................
........................................................................

 iter      E             dE          RMSdq      gap      omega  full diag
   1    -85.2015391 -0.852015E+02  0.317E-02    2.06       0.0  T
   2    -85.2015393 -0.191602E-06  0.187E-02    2.06       1.0  T
   3    -85.2015388  0.507334E-06  0.332E-03    2.06       4.1  T
   4    -85.2015394 -0.628879E-06  0.687E-04    2.06      19.6  T
   5    -85.2015394 -0.199960E-08  0.459E-04    2.06      29.4  T
     SCC iter.                  ...        0 min,  0.033 sec
     gradient                   ...        0 min,  0.007 sec
 * total energy  :   -84.0709240 Eh     change       -0.1559651E-04 Eh
   gradient norm :     0.0005686 Eh/α   predicted    -0.6085393E-05 ( -60.98%)
   displ. norm   :     0.2250814 α      lambda       -0.1242817E-04
   maximum displ.:     0.1483656 α      in ANC's #1, #2, #4, ...

........................................................................
.............................. CYCLE   58 ..............................
........................................................................

 iter      E             dE          RMSdq      gap      omega  full diag
   1    -85.2014966 -0.852015E+02  0.317E-02    2.06       0.0  T
   2    -85.2014968 -0.213223E-06  0.187E-02    2.06       1.0  T
   3    -85.2014962  0.576650E-06  0.350E-03    2.06       3.8  T
   4    -85.2014970 -0.711799E-06  0.695E-04    2.06      19.4  T
   5    -85.2014970 -0.187519E-08  0.467E-04    2.06      28.9  T
     SCC iter.                  ...        0 min,  0.027 sec
     gradient                   ...        0 min,  0.009 sec
 * total energy  :   -84.0709406 Eh     change       -0.1656402E-04 Eh
   gradient norm :     0.0005479 Eh/α   predicted    -0.6354687E-05 ( -61.64%)
   displ. norm   :     0.2650757 α      lambda       -0.1522532E-04
   maximum displ.:     0.1755949 α      in ANC's #1, #2, #4, ...

........................................................................
.............................. CYCLE   59 ..............................
........................................................................

 iter      E             dE          RMSdq      gap      omega  full diag
   1    -85.2014384 -0.852014E+02  0.357E-02    2.06       0.0  T
   2    -85.2014386 -0.262008E-06  0.210E-02    2.06       1.0  T
   3    -85.2014380  0.607377E-06  0.367E-03    2.06       3.7  T
   4    -85.2014388 -0.770123E-06  0.760E-04    2.06      17.8  T
   5    -85.2014388  0.383750E-09  0.509E-04    2.06      26.5  T
     SCC iter.                  ...        0 min,  0.021 sec
     gradient                   ...        0 min,  0.006 sec
 * total energy  :   -84.0709609 Eh     change       -0.2032862E-04 Eh
   gradient norm :     0.0006708 Eh/α   predicted    -0.7851684E-05 ( -61.38%)
   displ. norm   :     0.3312756 α      lambda       -0.1919728E-04
   maximum displ.:     0.2205295 α      in ANC's #1, #2, #4, ...

........................................................................
.............................. CYCLE   60 ..............................
........................................................................

 iter      E             dE          RMSdq      gap      omega  full diag
   1    -85.2013508 -0.852014E+02  0.422E-02    2.06       0.0  T
   2    -85.2013511 -0.378199E-06  0.249E-02    2.06       1.0  T
   3    -85.2013503  0.832807E-06  0.436E-03    2.06       3.1  T
   4    -85.2013514 -0.106540E-05  0.912E-04    2.06      14.8  T
[...]
          :  net charge                          0          :
          :  unpaired electrons                  0          :
          ...................................................

 iter      E             dE          RMSdq      gap      omega  full diag
   1    -85.2021768 -0.852022E+02  0.143E-04    2.06       0.0  T
   2    -85.2021768 -0.110830E-09  0.951E-05    2.06     141.8  T
   3    -85.2021768 -0.767244E-10  0.639E-05    2.06     211.2  T

   *** convergence criteria satisfied after 3 iterations ***

         #    Occupation            Energy/Eh            Energy/eV
      -------------------------------------------------------------
         1        2.0000           -0.7086037             -19.2821
       ...           ...                  ...                  ...
        69        2.0000           -0.4102995             -11.1648
        70        2.0000           -0.4081183             -11.1055
        71        2.0000           -0.3993455             -10.8667
        72        2.0000           -0.3969468             -10.8015
        73        2.0000           -0.3932489             -10.7008
        74        2.0000           -0.3718254             -10.1179
        75        2.0000           -0.3618376              -9.8461 (HOMO)
        76                         -0.2863008              -7.7906 (LUMO)
        77                         -0.2266891              -6.1685
        78                         -0.2188700              -5.9558
        79                         -0.2156737              -5.8688
        80                         -0.2117018              -5.7607
       ...                                ...                  ...
       139                          0.6997007              19.0398
      -------------------------------------------------------------
                  HL-Gap            0.0755368 Eh            2.0555 eV
             Fermi-level           -0.3240692 Eh           -8.8184 eV

 SCC (total)                   0 d,  0 h,  0 min,  0.018 sec
 SCC setup                      ...        0 min,  0.000 sec (  0.914%)
 Dispersion                     ...        0 min,  0.000 sec (  2.071%)
 classical contributions        ...        0 min,  0.000 sec (  0.294%)
 integral evaluation            ...        0 min,  0.001 sec (  8.154%)
 iterations                     ...        0 min,  0.009 sec ( 50.560%)
 molecular gradient             ...        0 min,  0.007 sec ( 36.680%)
 printout                       ...        0 min,  0.000 sec (  1.180%)

         :::::::::::::::::::::::::::::::::::::::::::::::::::::
         ::                     SUMMARY                     ::
         :::::::::::::::::::::::::::::::::::::::::::::::::::::
         :: total energy             -84.071218733629 Eh    ::
         :: gradient norm              0.000265040868 Eh/a0 ::
         :: HOMO-LUMO gap              2.055460522703 eV    ::
         ::.................................................::
         :: SCC energy               -85.202159378653 Eh    ::
         :: -> isotropic ES            0.118648742055 Eh    ::
         :: -> anisotropic ES          0.004544142818 Eh    ::
         :: -> anisotropic XC          0.024813171461 Eh    ::
         :: -> dispersion             -0.057657854907 Eh    ::
         :: repulsion energy           1.130940645024 Eh    ::
         :: add. restraining           0.000000000000 Eh    ::
         :: total charge              -0.000000000000 e     ::
         :::::::::::::::::::::::::::::::::::::::::::::::::::::

           -------------------------------------------------
          |                Property Printout                |
           -------------------------------------------------

    * Orbital Energies and Occupations

         #    Occupation            Energy/Eh            Energy/eV
      -------------------------------------------------------------
         1        2.0000           -0.7086037             -19.2821
       ...           ...                  ...                  ...
        63        2.0000           -0.4320358             -11.7563
        64        2.0000           -0.4304507             -11.7132
        65        2.0000           -0.4297709             -11.6947
        66        2.0000           -0.4197539             -11.4221
        67        2.0000           -0.4157523             -11.3132
        68        2.0000           -0.4120148             -11.2115
        69        2.0000           -0.4102995             -11.1648
        70        2.0000           -0.4081183             -11.1055
        71        2.0000           -0.3993455             -10.8667
        72        2.0000           -0.3969468             -10.8015
        73        2.0000           -0.3932489             -10.7008
        74        2.0000           -0.3718254             -10.1179
        75        2.0000           -0.3618376              -9.8461 (HOMO)
        76                         -0.2863008              -7.7906 (LUMO)
        77                         -0.2266891              -6.1685
        78                         -0.2188700              -5.9558
        79                         -0.2156737              -5.8688
        80                         -0.2117018              -5.7607
        81                         -0.1524941              -4.1496
        82                         -0.0892991              -2.4300
        83                         -0.0790307              -2.1505
        84                         -0.0364536              -0.9920
        85                          0.0259200               0.7053
        86                          0.0341109               0.9282
       ...                                ...                  ...
       139                          0.6997007              19.0398
      -------------------------------------------------------------
                  HL-Gap            0.0755368 Eh            2.0555 eV
             Fermi-level           -0.3240692 Eh           -8.8184 eV

     #   Z          covCN         q      C6AA      α(0)
     1   8 O        1.656    -0.440    21.634     6.279
     2   6 C        3.672     0.081    19.454     6.322
     3   6 C        3.748    -0.010    20.823     6.508
     4   7 N        2.736    -0.097    23.131     7.143
     5   6 C        3.745    -0.020    21.002     6.537
     6   6 C        3.673     0.073    19.580     6.341
     7   8 O        1.656    -0.436    21.554     6.267
     8   6 C        2.907     0.064    26.558     8.450
     9   6 C        2.920    -0.063    29.577     8.918
    10   6 C        2.922    -0.029    28.715     8.788
    11   6 C        2.968     0.000    28.019     8.683
    12   6 C        2.909    -0.008    28.223     8.711
    13   6 C        2.893    -0.067    29.675     8.931
    14   6 C        2.822     0.214    23.487     7.941
    15   6 C        3.692     0.244    16.990     5.898
    16   8 O        1.701    -0.320    19.342     5.938
    17   6 C        3.645     0.042    20.195     6.459
    18   8 O        1.699    -0.335    19.613     5.979
    19   6 C        3.638     0.049    20.117     6.452
    20   6 C        2.972    -0.008    28.219     8.714
    21   6 C        2.924    -0.023    28.581     8.767
    22   6 C        2.920    -0.027    28.680     8.782
    23   6 C        2.920    -0.030    28.740     8.791
    24   6 C        2.920    -0.031    28.762     8.795
    25   6 C        2.922    -0.030    28.751     8.793
    26   8 O        0.857    -0.381    21.309     6.189
    27   6 C        2.926    -0.030    28.758     8.794
    28   6 C        2.920    -0.067    29.663     8.931
    29   1 H        0.805     0.293     0.741     1.352
    30   1 H        0.923     0.027     2.628     2.535
    31   1 H        0.923     0.019     2.748     2.593
    32   1 H        0.924     0.061     2.191     2.315
    33   1 H        0.924     0.066     2.131     2.283
    34   1 H        0.924     0.064     2.150     2.293
    35   1 H        0.924     0.046     2.373     2.409
    36   1 H        0.924     0.056     2.248     2.345
    37   1 H        0.923     0.025     2.658     2.550
    38   1 H        0.805     0.297     0.730     1.342
    39   1 H        0.926     0.035     2.517     2.481
    40   1 H        0.926     0.042     2.416     2.430
    41   1 H        0.925     0.064     2.148     2.292
    42   1 H        0.926     0.063     2.159     2.297
    43   1 H        0.924     0.050     2.325     2.384
    44   1 H        0.925     0.058     2.222     2.331
    45   1 H        0.924     0.031     2.566     2.505
    46   1 H        0.924     0.042     2.425     2.435
    47   1 H        0.925     0.055     2.256     2.349
    48   1 H        0.924     0.028     2.608     2.526
    49   1 H        0.926     0.034     2.531     2.488
    50   1 H        0.926     0.034     2.533     2.489
    51   1 H        0.926     0.032     2.561     2.503
    52   1 H        0.926     0.031     2.565     2.505
    53   1 H        0.926     0.043     2.415     2.430
    54   1 H        0.926     0.040     2.454     2.450
    55   1 H        0.926     0.046     2.365     2.405

 Mol. C6AA /au·bohr⁶  :      31847.415662
 Mol. C8AA /au·bohr⁸  :     739077.136561
 Mol. α(0) /au        :        276.417182


Wiberg/Mayer (AO) data.
largest (>0.10) Wiberg bond orders for each atom

 ---------------------------------------------------------------------------
     #   Z sym  total        # sym  WBO       # sym  WBO       # sym  WBO
 ---------------------------------------------------------------------------
     1   8 O    1.952 --     2 C    1.000    29 H    0.900
     2   6 C    3.954 --     1 O    1.000     3 C    0.985    31 H    0.970
                            30 H    0.969
     3   6 C    3.975 --     4 N    1.003     2 C    0.985    32 H    0.968
                            33 H    0.964
     4   7 N    3.404 --     8 C    1.177     3 C    1.003     5 C    0.997
     5   6 C    3.976 --     4 N    0.997     6 C    0.980    35 H    0.967
                            34 H    0.964
     6   6 C    3.957 --     7 O    1.010     5 C    0.980    36 H    0.970
                            37 H    0.968
     7   8 O    1.968 --     6 C    1.010    38 H    0.894
     8   6 C    3.957 --    28 C    1.309     9 C    1.304     4 N    1.177
     9   6 C    3.983 --    10 C    1.513     8 C    1.304    39 H    0.963
    10   6 C    3.990 --     9 C    1.513    11 C    1.325    40 H    0.965
    11   6 C    3.984 --    27 C    1.328    10 C    1.325    12 C    1.160
    12   6 C    3.970 --    13 C    1.688    11 C    1.160    41 H    0.958
    13   6 C    3.967 --    12 C    1.688    14 C    1.116    42 H    0.959
    14   6 C    3.917 --    26 O    1.774    13 C    1.116    15 C    0.901
    15   6 C    3.915 --    16 O    0.974    20 C    0.959    18 O    0.941
                            14 C    0.901
    16   8 O    2.088 --    17 C    0.979    15 C    0.974
    17   6 C    3.945 --    44 H    0.980    43 H    0.980    16 O    0.979
                            45 H    0.978
    18   8 O    2.071 --    19 C    0.988    15 C    0.941
    19   6 C    3.948 --    18 O    0.988    47 H    0.980    46 H    0.978
                            48 H    0.977
    20   6 C    3.986 --    25 C    1.422    21 C    1.409    15 C    0.959
                            23 C    0.110
    21   6 C    3.992 --    22 C    1.449    20 C    1.409    49 H    0.969
                            24 C    0.113
    22   6 C    3.992 --    21 C    1.449    23 C    1.435    50 H    0.971
                            25 C    0.111
    23   6 C    3.992 --    24 C    1.444    22 C    1.435    51 H    0.971
                            20 C    0.110
    24   6 C    3.992 --    23 C    1.444    25 C    1.437    52 H    0.971
                            21 C    0.113
    25   6 C    3.991 --    24 C    1.437    20 C    1.422    53 H    0.967
                            22 C    0.111
    26   8 O    2.031 --    14 C    1.774
    27   6 C    3.989 --    28 C    1.507    11 C    1.328    54 H    0.968
    28   6 C    3.981 --    27 C    1.507     8 C    1.309    55 H    0.960
    29   1 H    0.914 --     1 O    0.900
    30   1 H    0.999 --     2 C    0.969
    31   1 H    1.000 --     2 C    0.970
    32   1 H    0.995 --     3 C    0.968
    33   1 H    0.995 --     3 C    0.964
    34   1 H    0.995 --     5 C    0.964
    35   1 H    0.996 --     5 C    0.967
    36   1 H    0.996 --     6 C    0.970
    37   1 H    0.999 --     6 C    0.968
    38   1 H    0.912 --     7 O    0.894
    39   1 H    0.998 --     9 C    0.963
    40   1 H    0.998 --    10 C    0.965
    41   1 H    0.995 --    12 C    0.958
    42   1 H    0.996 --    13 C    0.959
    43   1 H    0.998 --    17 C    0.980
    44   1 H    0.996 --    17 C    0.980
    45   1 H    0.999 --    17 C    0.978
    46   1 H    0.998 --    19 C    0.978
    47   1 H    0.997 --    19 C    0.980
    48   1 H    0.999 --    19 C    0.977
    49   1 H    0.999 --    21 C    0.969
    50   1 H    0.998 --    22 C    0.971
    51   1 H    0.998 --    23 C    0.971
    52   1 H    0.999 --    24 C    0.971
    53   1 H    0.998 --    25 C    0.967
    54   1 H    0.998 --    27 C    0.968
    55   1 H    0.997 --    28 C    0.960
 ---------------------------------------------------------------------------

Topologies differ in total number of bonds
Writing topology from bond orders to xtbtopo.mol

molecular dipole:
                 x           y           z       tot (Debye)
 q only:        2.237       0.749      -0.399
   full:        2.134       1.191      -0.478       6.329
molecular quadrupole (traceless):
                xx          xy          yy          xz          yz          zz
 q only:       16.655       5.667      -7.091       8.722       4.652      -9.564
  q+dip:       22.816      10.802      -7.049       8.936       5.731     -15.766
   full:       18.937      11.529      -5.957       9.025       7.324     -12.980

           -------------------------------------------------
          |                Geometry Summary                 |
           -------------------------------------------------

      molecular mass/u    :      385.4543179
   center of mass at/Å    :       -0.2454808      -0.0758045       0.0401215
  moments of inertia/u·Å² :        0.1227920E+04   0.9191532E+04   0.9772331E+04
rotational constants/cm⁻¹ :        0.1372861E-01   0.1834039E-02   0.1725037E-02

 * 52 selected distances

     #   Z          #   Z                                           value/Å
     1   8 O        2   6 C                                       1.4084967
     2   6 C        3   6 C                                       1.5370650
     3   6 C        4   7 N                                       1.4421102
     4   7 N        5   6 C                                       1.4481124
     5   6 C        6   6 C                                       1.5404907 (max)
     6   6 C        7   8 O                                       1.4023641
     4   7 N        8   6 C                                       1.3725240
     8   6 C        9   6 C                                       1.4067051
     9   6 C       10   6 C                                       1.3735372
    10   6 C       11   6 C                                       1.4004438
    12   6 C       13   6 C                                       1.3492695
    15   6 C       16   8 O                                       1.4056176
    16   8 O       17   6 C                                       1.4141025
    15   6 C       18   8 O                                       1.4261367
    18   8 O       19   6 C                                       1.4087981
    20   6 C       21   6 C                                       1.3894318
    21   6 C       22   6 C                                       1.3824802
    22   6 C       23   6 C                                       1.3851820
    23   6 C       24   6 C                                       1.3836394
    20   6 C       25   6 C                                       1.3869718
    24   6 C       25   6 C                                       1.3842873
    14   6 C       26   8 O                                       1.2167065
    11   6 C       27   6 C                                       1.4006385
     8   6 C       28   6 C                                       1.4064943
    27   6 C       28   6 C                                       1.3738125
     1   8 O       29   1 H                                       0.9624296 (min)
     2   6 C       30   1 H                                       1.0982721
     2   6 C       31   1 H                                       1.1000854
     3   6 C       32   1 H                                       1.0926267
     3   6 C       33   1 H                                       1.0915812
     5   6 C       34   1 H                                       1.0909537
     5   6 C       35   1 H                                       1.0933352
     6   6 C       36   1 H                                       1.0923758
     6   6 C       37   1 H                                       1.0996445
     7   8 O       38   1 H                                       0.9645668
     9   6 C       39   1 H                                       1.0772720
    10   6 C       40   1 H                                       1.0787127
    12   6 C       41   1 H                                       1.0847129
    13   6 C       42   1 H                                       1.0765360
    17   6 C       43   1 H                                       1.0919933
    17   6 C       44   1 H                                       1.0882441
    17   6 C       45   1 H                                       1.0949432
    19   6 C       46   1 H                                       1.0936487
    19   6 C       47   1 H                                       1.0896590
    19   6 C       48   1 H                                       1.0958085
    21   6 C       49   1 H                                       1.0800776
    22   6 C       50   1 H                                       1.0801346
    23   6 C       51   1 H                                       1.0803642
    24   6 C       52   1 H                                       1.0804865
    25   6 C       53   1 H                                       1.0798259
    27   6 C       54   1 H                                       1.0804730
    28   6 C       55   1 H                                       1.0779459

 * 5 distinct bonds (by element types)

   Z      Z             #   av. dist./Å        max./Å        min./Å
   1 H    6 C          25     1.0875885     1.1000854     1.0765360
   6 C    6 C          15     1.4066966     1.5404907     1.3492695
   6 C    7 N           3     1.4209155     1.4481124     1.3725240
   1 H    8 O           2     0.9634982     0.9645668     0.9624296
   6 C    8 O           7     1.3831746     1.4261367     1.2167065


optimized geometry written to: xtbopt.xyz


           -------------------------------------------------
          | TOTAL ENERGY              -84.071218733629 Eh   |
          | GRADIENT NORM               0.000265040868 Eh/α |
          | HOMO-LUMO GAP               2.055460522703 eV   |
           -------------------------------------------------

------------------------------------------------------------------------
 * finished run on 2025/12/01 at 14:18:02.755     
------------------------------------------------------------------------
 total:
 * wall-time:     0 d,  0 h,  0 min,  3.118 sec
 *  cpu-time:     0 d,  0 h,  1 min, 11.064 sec
 * ratio c/w:    22.795 speedup
 SCF:
 * wall-time:     0 d,  0 h,  0 min,  0.072 sec
 *  cpu-time:     0 d,  0 h,  0 min,  1.636 sec
 * ratio c/w:    22.777 speedup
 ANC optimizer:
 * wall-time:     0 d,  0 h,  0 min,  3.028 sec
 *  cpu-time:     0 d,  0 h,  1 min,  9.117 sec
 * ratio c/w:    22.830 speedup

normal termination of xtb
