      -----------------------------------------------------------      
     |                   =====================                   |     
     |                           x T B                           |     
     |                   =====================                   |     
     |                         S. Grimme                         |     
     |          Mulliken Center for Theoretical Chemistry        |     
     |                    University of Bonn                     |     
      -----------------------------------------------------------      

   * xtb version 6.7.1 (edcfbbe) compiled by 'albert@albert-system' on 2024-07-22

   xtb is free software: you can redistribute it and/or modify it under
   the terms of the GNU Lesser General Public License as published by
   the Free Software Foundation, either version 3 of the License, or
   (at your option) any later version.
   
   xtb is distributed in the hope that it will be useful,
   but WITHOUT ANY WARRANTY; without even the implied warranty of
   MERCHANTABILITY or FITNESS FOR A PARTICULAR PURPOSE.  See the
   GNU Lesser General Public License for more details.
   
   Cite this work as:
   * C. Bannwarth, E. Caldeweyher, S. Ehlert, A. Hansen, P. Pracht,
     J. Seibert, S. Spicher, S. Grimme, WIREs Comput. Mol. Sci., 2020, 11,
     e01493. DOI: 10.1002/wcms.1493
   
   for GFN2-xTB:
   * C. Bannwarth, S. Ehlert and S. Grimme., J. Chem. Theory Comput., 2019,
     15, 1652-1671. DOI: 10.1021/acs.jctc.8b01176
   for GFN1-xTB:
   * S. Grimme, C. Bannwarth, P. Shushkov, J. Chem. Theory Comput., 2017,
     13, 1989-2009. DOI: 10.1021/acs.jctc.7b00118
   for GFN0-xTB:
   * P. Pracht, E. Caldeweyher, S. Ehlert, S. Grimme, ChemRxiv, 2019, preprint.
     DOI: 10.26434/chemrxiv.8326202.v1
   for GFN-FF:
   * S. Spicher and S. Grimme, Angew. Chem. Int. Ed., 2020, 59, 15665-15673.
     DOI: 10.1002/anie.202004239
   
   for ALPB and GBSA implicit solvation:
   * S. Ehlert, M. Stahn, S. Spicher, S. Grimme, J. Chem. Theory Comput.,
     2021, 17, 4250-4261. DOI: 10.1021/acs.jctc.1c00471
   
   for ddCOSMO and CPCM-X implicit solvation:
   * M. Stahn, S. Ehlert, S. Grimme, J. Phys. Chem. A,
     2023, XX, XXXX-XXXX. DOI: 10.1021/acs.jpca.3c04382
   
   for DFT-D4:
   * E. Caldeweyher, C. Bannwarth and S. Grimme, J. Chem. Phys., 2017,
     147, 034112. DOI: 10.1063/1.4993215
   * E. Caldeweyher, S. Ehlert, A. Hansen, H. Neugebauer, S. Spicher,
     C. Bannwarth and S. Grimme, J. Chem. Phys., 2019, 150, 154122.
     DOI: 10.1063/1.5090222
   * E. Caldeweyher, J.-M. Mewes, S. Ehlert and S. Grimme, Phys. Chem. Chem. Phys.
     2020, 22, 8499-8512. DOI: 10.1039/D0CP00502A
   
   for sTDA-xTB:
   * S. Grimme and C. Bannwarth, J. Chem. Phys., 2016, 145, 054103.
     DOI: 10.1063/1.4959605
   
   in the mass-spec context:
   * V. Asgeirsson, C. Bauer and S. Grimme, Chem. Sci., 2017, 8, 4879.
     DOI: 10.1039/c7sc00601b
   * J. Koopman and S. Grimme, ACS Omega 2019, 4, 12, 15120-15133.
     DOI: 10.1021/acsomega.9b02011
   
   for metadynamics refer to:
   * S. Grimme, J. Chem. Theory Comput., 2019, 155, 2847-2862
     DOI: 10.1021/acs.jctc.9b00143
   
   for SPH calculations refer to:
   * S. Spicher and S. Grimme, J. Chem. Theory Comput., 2021, 17, 1701-1714
     DOI: 10.1021/acs.jctc.0c01306
   
   for ONIOM refer to:
   * C. Plett, A. Katbashev, S. Ehlert, S. Grimme, M. Bursch,
     Phys. Chem. Chem. Phys., 2023, 25, 17860-17868. DOI: 10.1039/D3CP02178E
   
   for DIPRO refer to:
   * J. Kohn, N. Gildemeister, S. Grimme, D. Fazzi, A. Hansen,
     J. Chem. Phys., 2023, just accepted.
   
   for PTB refer to:
   * S. Grimme, M. Mueller, A. Hansen, J. Chem. Phys., 2023, 158, 124111.
     DOI: 10.1063/5.0137838
   
   with help from (in alphabetical order)
   P. Atkinson, C. Bannwarth, F. Bohle, G. Brandenburg, E. Caldeweyher
   M. Checinski, S. Dohm, S. Ehlert, S. Ehrlich, I. Gerasimov, C. Hölzer
   A. Katbashev, J. Kohn, J. Koopman, C. Lavigne, S. Lehtola, F. März, M. Müller,
   F. Musil, H. Neugebauer, J. Pisarek, C. Plett, P. Pracht, F. Pultar,
   J. Seibert, P. Shushkov, S. Spicher, M. Stahn, M. Steiner, T. Strunk,
   J. Stückrath, T. Rose, and J. Unsleber
   
 * started run on 2025/12/01 at 14:18:02.776     
   ID    Z sym.   atoms
    1    8 O      1, 7, 16, 18, 26
    2    6 C      2, 3, 5, 6, 8-15, 17, 19-25, 27, 28
    3    7 N      4
    4    1 H      29-55

           -------------------------------------------------
          |                Calculation Setup                |
           -------------------------------------------------

          program call               : xtb pipeline_data/3_conformer_xyz/acrylates/rdkit/NHBABHBJROJJJN-JLHYYAGUSA-N_conf34.xyz --opt --gfn 2-xTB --iterations 250
          coordinate file            : pipeline_data/3_conformer_xyz/acrylates/rdkit/NHBABHBJROJJJN-JLHYYAGUSA-N_conf34.xyz
          omp threads                :                    24

########################################################################
[WARNING] Please study the warnings concerning your input carefully
-1- readin_getIntValue: could not parse '2-xTB'
########################################################################

           -------------------------------------------------
          |                 G F N 2 - x T B                 |
           -------------------------------------------------

        Reference                      10.1021/acs.jctc.8b01176
      * Hamiltonian:
        H0-scaling (s, p, d)           1.850000    2.230000    2.230000
        zeta-weighting                 0.500000
      * Dispersion:
        s8                             2.700000
        a1                             0.520000
        a2                             5.000000
        s9                             5.000000
      * Repulsion:
        kExp                           1.500000    1.000000
        rExp                           1.000000
      * Coulomb:
        alpha                          2.000000
        third order                    shell-resolved
        anisotropic                    true
        a3                             3.000000
        a5                             4.000000
        cn-shift                       1.200000
        cn-exp                         4.000000
        max-rad                        5.000000

q/qsh data taken from xtbrestart
CAMM data taken from xtbrestart

          ...................................................
          :                      SETUP                      :
          :.................................................:
          :  # basis functions                 139          :
          :  # atomic orbitals                 139          :
          :  # shells                           83          :
          :  # electrons                       150          :
          :  max. iterations                   250          :
          :  Hamiltonian                  GFN2-xTB          :
          :  restarted?                       true          :
          :  GBSA solvation                  false          :
          :  PC potential                    false          :
          :  electronic temp.          300.0000000     K    :
          :  accuracy                    1.0000000          :
          :  -> integral cutoff          0.2500000E+02      :
          :  -> integral neglect         0.1000000E-07      :
          :  -> SCF convergence          0.1000000E-05 Eh   :
          :  -> wf. convergence          0.1000000E-03 e    :
          :  Broyden damping             0.4000000          :
          :  net charge                          0          :
          :  unpaired electrons                  0          :
          ...................................................

 iter      E             dE          RMSdq      gap      omega  full diag
   1    -85.1254163 -0.851254E+02  0.506E+00    2.14       0.0  T
   2    -85.1383391 -0.129228E-01  0.300E+00    1.93       1.0  T
   3    -85.1318338  0.650533E-02  0.459E-01    2.16       1.0  T
   4    -85.1419994 -0.101656E-01  0.158E-01    1.92       1.0  T
   5    -85.1425018 -0.502491E-03  0.850E-02    1.96       1.0  T
   6    -85.1425396 -0.377965E-04  0.361E-02    1.96       1.0  T
   7    -85.1425767 -0.370847E-04  0.115E-02    1.95       1.2  T
   8    -85.1425787 -0.199052E-05  0.530E-03    1.95       2.5  T
   9    -85.1425792 -0.457440E-06  0.260E-03    1.95       5.2  T
  10    -85.1425793 -0.135304E-06  0.107E-03    1.95      12.6  T
  11    -85.1425793 -0.174770E-07  0.349E-04    1.95      38.7  T
  12    -85.1425793 -0.145550E-08  0.182E-04    1.95      74.3  T

   *** convergence criteria satisfied after 12 iterations ***

         #    Occupation            Energy/Eh            Energy/eV
      -------------------------------------------------------------
         1        2.0000           -0.7198977             -19.5894
       ...           ...                  ...                  ...
        69        2.0000           -0.4105704             -11.1722
        70        2.0000           -0.4075352             -11.0896
        71        2.0000           -0.4012339             -10.9181
        72        2.0000           -0.3944970             -10.7348
        73        2.0000           -0.3928875             -10.6910
        74        2.0000           -0.3730177             -10.1503
        75        2.0000           -0.3625271              -9.8649 (HOMO)
        76                         -0.2907530              -7.9118 (LUMO)
        77                         -0.2319685              -6.3122
        78                         -0.2193617              -5.9691
        79                         -0.2130419              -5.7972
        80                         -0.2097405              -5.7073
       ...                                ...                  ...
       139                          0.7423672              20.2008
      -------------------------------------------------------------
                  HL-Gap            0.0717741 Eh            1.9531 eV
             Fermi-level           -0.3266401 Eh           -8.8883 eV

 SCC (total)                   0 d,  0 h,  0 min,  0.072 sec
 SCC setup                      ...        0 min,  0.000 sec (  0.581%)
 Dispersion                     ...        0 min,  0.001 sec (  1.964%)
 classical contributions        ...        0 min,  0.000 sec (  0.146%)
 integral evaluation            ...        0 min,  0.004 sec (  5.177%)
 iterations                     ...        0 min,  0.059 sec ( 81.120%)
 molecular gradient             ...        0 min,  0.007 sec ( 10.174%)
 printout                       ...        0 min,  0.001 sec (  0.779%)

         :::::::::::::::::::::::::::::::::::::::::::::::::::::
         ::                     SUMMARY                     ::
         :::::::::::::::::::::::::::::::::::::::::::::::::::::
         :: total energy             -84.016538812464 Eh    ::
         :: gradient norm              0.202252055134 Eh/a0 ::
         :: HOMO-LUMO gap              1.953072559664 eV    ::
         ::.................................................::
         :: SCC energy               -85.142545935559 Eh    ::
         :: -> isotropic ES            0.120246757997 Eh    ::
         :: -> anisotropic ES          0.007626047804 Eh    ::
         :: -> anisotropic XC          0.024192186881 Eh    ::
         :: -> dispersion             -0.058317327742 Eh    ::
         :: repulsion energy           1.126007123095 Eh    ::
         :: add. restraining           0.000000000000 Eh    ::
         :: total charge              -0.000000000000 e     ::
         :::::::::::::::::::::::::::::::::::::::::::::::::::::

      ----------------------------------------------------------- 
     |                   =====================                   |
     |                        A N C O P T                        |
     |                   =====================                   |
     |               Approximate Normal Coordinate               |
     |                Rational Function Optimizer                |
      ----------------------------------------------------------- 
      ----------------------------------------------------------- 
     |                   =====================                   |
     |                        A N C O P T                        |
     |                   =====================                   |
     |               Approximate Normal Coordinate               |
     |                Rational Function Optimizer                |
      ----------------------------------------------------------- 

          ...................................................
          :                      SETUP                      :
          :.................................................:
          :   optimization level            normal          :
          :   max. optcycles                   200          :
          :   ANC micro-cycles                  20          :
          :   degrees of freedom               159          :
          :.................................................:
          :   RF solver                   davidson          :
          :   write xtbopt.log                true          :
          :   linear?                        false          :
          :   energy convergence         0.5000000E-05 Eh   :
          :   grad. convergence          0.1000000E-02 Eh/α :
          :   maxmium RF displ.          1.0000000          :
          :   Hlow (freq-cutoff)         0.1000000E-01      :
          :   Hmax (freq-cutoff)         5.0000000          :
          :   S6 in model hess.         20.0000000          :
          ...................................................

generating ANC from exact Hessian ...
Using Lindh-Hessian (1995)
 Shifting diagonal of input Hessian by   9.914339792201184E-003
 Lowest  eigenvalues of input Hessian
    0.000000    0.000000    0.000000    0.000000    0.000000    0.000000
    0.010000    0.010024    0.010182    0.010537    0.011023    0.011061
    0.011260    0.011680    0.011847    0.012161    0.012318    0.012728
 Highest eigenvalues
    2.000771    2.033393    2.050281    2.076847    2.101810    2.166550
 

........................................................................
.............................. CYCLE    1 ..............................
........................................................................

 iter      E             dE          RMSdq      gap      omega  full diag
   1    -85.1425793 -0.851426E+02  0.555E-05    1.95       0.0  T
   2    -85.1425793 -0.281943E-10  0.355E-05    1.95     379.9  T
   3    -85.1425793 -0.147793E-10  0.230E-05    1.95     586.0  T
     SCC iter.                  ...        0 min,  0.012 sec
     gradient                   ...        0 min,  0.007 sec
 * total energy  :   -84.0165388 Eh     change       -0.6906902E-09 Eh
   gradient norm :     0.2022522 Eh/α   predicted     0.0000000E+00 (-100.00%)
   displ. norm   :     0.3627433 α      lambda       -0.3965736E-01
   maximum displ.:     0.1002002 α      in ANC's #27, #44, #30, ...

........................................................................
.............................. CYCLE    2 ..............................
........................................................................

 iter      E             dE          RMSdq      gap      omega  full diag
   1    -85.1703446 -0.851703E+02  0.250E-01    1.94       0.0  T
   2    -85.1711385 -0.793932E-03  0.166E-01    2.06       1.0  T
   3    -85.1713386 -0.200129E-03  0.918E-02    2.00       1.0  T
   4    -85.1714094 -0.707888E-04  0.338E-02    2.03       1.0  T
   5    -85.1714565 -0.470921E-04  0.811E-03    2.03       1.7  T
   6    -85.1714581 -0.162071E-05  0.400E-03    2.03       3.4  T
   7    -85.1714586 -0.495864E-06  0.156E-03    2.03       8.6  T
   8    -85.1714587 -0.341479E-07  0.849E-04    2.03      15.9  T
   9    -85.1714587 -0.144738E-07  0.300E-04    2.03      44.9  T
     SCC iter.                  ...        0 min,  0.034 sec
     gradient                   ...        0 min,  0.007 sec
 * total energy  :   -84.0445204 Eh     change       -0.2798161E-01 Eh
   gradient norm :     0.0877342 Eh/α   predicted    -0.2246516E-01 ( -19.71%)
   displ. norm   :     0.3491433 α      lambda       -0.1363662E-01
   maximum displ.:     0.1072583 α      in ANC's #27, #44, #30, ...

........................................................................
.............................. CYCLE    3 ..............................
........................................................................

 iter      E             dE          RMSdq      gap      omega  full diag
   1    -85.1855747 -0.851856E+02  0.180E-01    2.01       0.0  T
   2    -85.1860819 -0.507143E-03  0.122E-01    2.09       1.0  T
   3    -85.1862657 -0.183831E-03  0.683E-02    2.05       1.0  T
   4    -85.1862882 -0.224973E-04  0.290E-02    2.07       1.0  T
   5    -85.1863187 -0.305289E-04  0.683E-03    2.07       2.0  T
   6    -85.1863201 -0.135240E-05  0.337E-03    2.07       4.0  T
   7    -85.1863205 -0.413306E-06  0.123E-03    2.07      11.0  T
   8    -85.1863205 -0.220229E-07  0.685E-04    2.06      19.7  T
   9    -85.1863205 -0.747598E-08  0.251E-04    2.07      53.8  T
     SCC iter.                  ...        0 min,  0.046 sec
     gradient                   ...        0 min,  0.007 sec
 * total energy  :   -84.0526342 Eh     change       -0.8113797E-02 Eh
   gradient norm :     0.0198076 Eh/α   predicted    -0.7649474E-02 (  -5.72%)
   displ. norm   :     0.3150170 α      lambda       -0.2367121E-02
   maximum displ.:     0.0912782 α      in ANC's #27, #8, #6, ...

........................................................................
.............................. CYCLE    4 ..............................
........................................................................

 iter      E             dE          RMSdq      gap      omega  full diag
   1    -85.1836045 -0.851836E+02  0.893E-02    2.05       0.0  T
   2    -85.1836252 -0.207096E-04  0.548E-02    2.07       1.0  T
   3    -85.1835915  0.336924E-04  0.334E-02    2.06       1.0  T
   4    -85.1836393 -0.477299E-04  0.642E-03    2.07       2.1  T
   5    -85.1836406 -0.129513E-05  0.236E-03    2.07       5.7  T
   6    -85.1836407 -0.124327E-06  0.117E-03    2.07      11.5  T
   7    -85.1836407 -0.288136E-07  0.541E-04    2.07      24.9  T
   8    -85.1836407 -0.370549E-08  0.242E-04    2.07      55.8  T
     SCC iter.                  ...        0 min,  0.030 sec
     gradient                   ...        0 min,  0.010 sec
 * total energy  :   -84.0543946 Eh     change       -0.1760434E-02 Eh
   gradient norm :     0.0151325 Eh/α   predicted    -0.1301046E-02 ( -26.10%)
   displ. norm   :     0.4338907 α      lambda       -0.1848993E-02
   maximum displ.:     0.1680970 α      in ANC's #8, #5, #6, ...

........................................................................
.............................. CYCLE    5 ..............................
........................................................................

 iter      E             dE          RMSdq      gap      omega  full diag
   1    -85.1803376 -0.851803E+02  0.114E-01    2.06       0.0  T
   2    -85.1803442 -0.663343E-05  0.678E-02    2.07       1.0  T
   3    -85.1803260  0.182217E-04  0.185E-02    2.07       1.0  T
   4    -85.1803471 -0.211552E-04  0.422E-03    2.07       3.2  T
   5    -85.1803475 -0.359089E-06  0.221E-03    2.07       6.1  T
   6    -85.1803476 -0.932651E-07  0.872E-04    2.07      15.5  T
   7    -85.1803476 -0.310339E-08  0.363E-04    2.07      37.2  T
     SCC iter.                  ...        0 min,  0.028 sec
     gradient                   ...        0 min,  0.014 sec
 * total energy  :   -84.0557404 Eh     change       -0.1345775E-02 Eh
   gradient norm :     0.0193102 Eh/α   predicted    -0.1098850E-02 ( -18.35%)
   displ. norm   :     0.4568741 α      lambda       -0.1405588E-02
   maximum displ.:     0.2082736 α      in ANC's #8, #5, #6, ...

........................................................................
.............................. CYCLE    6 ..............................
........................................................................

 iter      E             dE          RMSdq      gap      omega  full diag
   1    -85.1795296 -0.851795E+02  0.116E-01    2.07       0.0  T
   2    -85.1795359 -0.639037E-05  0.689E-02    2.06       1.0  T
   3    -85.1795179  0.180383E-04  0.185E-02    2.07       1.0  T
   4    -85.1795391 -0.212193E-04  0.340E-03    2.07       4.0  T
   5    -85.1795394 -0.306035E-06  0.184E-03    2.07       7.3  T
   6    -85.1795395 -0.225660E-07  0.923E-04    2.07      14.6  T
   7    -85.1795395 -0.193661E-07  0.286E-04    2.07      47.2  T
     SCC iter.                  ...        0 min,  0.034 sec
     gradient                   ...        0 min,  0.013 sec
 * total energy  :   -84.0568568 Eh     change       -0.1116395E-02 Eh
   gradient norm :     0.0165758 Eh/α   predicted    -0.8494999E-03 ( -23.91%)
   displ. norm   :     0.5766302 α      lambda       -0.1575356E-02
   maximum displ.:     0.2766172 α      in ANC's #8, #6, #5, ...

........................................................................
.............................. CYCLE    7 ..............................
........................................................................

 iter      E             dE          RMSdq      gap      omega  full diag
   1    -85.1793701 -0.851794E+02  0.147E-01    2.07       0.0  T
   2    -85.1793827 -0.125764E-04  0.874E-02    2.06       1.0  T
   3    -85.1793373  0.453537E-04  0.308E-02    2.07       1.0  T
   4    -85.1793897 -0.523123E-04  0.510E-03    2.07       2.6  T
   5    -85.1793904 -0.706776E-06  0.251E-03    2.07       5.4  T
   6    -85.1793904 -0.604043E-07  0.139E-03    2.07       9.7  T
   7    -85.1793905 -0.380876E-07  0.394E-04    2.07      34.2  T
   8    -85.1793905 -0.453605E-08  0.184E-04    2.07      73.5  T
     SCC iter.                  ...        0 min,  0.033 sec
     gradient                   ...        0 min,  0.006 sec
 * total energy  :   -84.0581428 Eh     change       -0.1286022E-02 Eh
   gradient norm :     0.0185775 Eh/α   predicted    -0.1049587E-02 ( -18.39%)
   displ. norm   :     0.6080764 α      lambda       -0.1850867E-02
   maximum displ.:     0.2887585 α      in ANC's #8, #6, #5, ...

........................................................................
.............................. CYCLE    8 ..............................
........................................................................

 iter      E             dE          RMSdq      gap      omega  full diag
   1    -85.1849405 -0.851849E+02  0.153E-01    2.08       0.0  T
   2    -85.1849577 -0.171637E-04  0.903E-02    2.06       1.0  T
   3    -85.1849008  0.569070E-04  0.356E-02    2.07       1.0  T
   4    -85.1849671 -0.663074E-04  0.597E-03    2.07       2.3  T
   5    -85.1849680 -0.872836E-06  0.297E-03    2.06       4.5  T
   6    -85.1849681 -0.125159E-06  0.160E-03    2.06       8.4  T
   7    -85.1849682 -0.412292E-07  0.586E-04    2.06      23.0  T
   8    -85.1849682 -0.542114E-08  0.263E-04    2.06      51.2  T
     SCC iter.                  ...        0 min,  0.032 sec
     gradient                   ...        0 min,  0.008 sec
 * total energy  :   -84.0593697 Eh     change       -0.1226902E-02 Eh
   gradient norm :     0.0173352 Eh/α   predicted    -0.1267627E-02 (   3.32%)
   displ. norm   :     0.6318753 α      lambda       -0.1784803E-02
   maximum displ.:     0.3197263 α      in ANC's #6, #8, #5, ...

........................................................................
.............................. CYCLE    9 ..............................
........................................................................

 iter      E             dE          RMSdq      gap      omega  full diag
   1    -85.1809967 -0.851810E+02  0.158E-01    2.07       0.0  T
   2    -85.1810121 -0.153993E-04  0.936E-02    2.06       1.0  T
   3    -85.1809904  0.216367E-04  0.239E-02    2.06       1.0  T
   4    -85.1810171 -0.266823E-04  0.634E-03    2.06       2.1  T
   5    -85.1810180 -0.863053E-06  0.317E-03    2.06       4.3  T
   6    -85.1810181 -0.145471E-06  0.153E-03    2.06       8.8  T
   7    -85.1810182 -0.362029E-07  0.605E-04    2.06      22.3  T
   8    -85.1810182 -0.530559E-08  0.221E-04    2.06      61.0  T
     SCC iter.                  ...        0 min,  0.045 sec
     gradient                   ...        0 min,  0.022 sec
 * total energy  :   -84.0602606 Eh     change       -0.8908488E-03 Eh
   gradient norm :     0.0265659 Eh/α   predicted    -0.1248713E-02 (  40.17%)
   displ. norm   :     0.2512578 α      lambda       -0.1067643E-02
   maximum displ.:     0.1373864 α      in ANC's #6, #5, #8, ...

........................................................................
.............................. CYCLE   10 ..............................
........................................................................

 iter      E             dE          RMSdq      gap      omega  full diag
   1    -85.1871757 -0.851872E+02  0.583E-02    2.06       0.0  T
   2    -85.1871779 -0.218163E-05  0.344E-02    2.06       1.0  T
   3    -85.1871776  0.291986E-06  0.504E-03    2.06       2.7  T
   4    -85.1871785 -0.856621E-06  0.242E-03    2.06       5.6  T
   5    -85.1871786 -0.116782E-06  0.116E-03    2.06      11.6  T
   6    -85.1871786 -0.288087E-07  0.550E-04    2.06      24.5  T
   7    -85.1871786 -0.307818E-08  0.219E-04    2.06      61.6  T
     SCC iter.                  ...        0 min,  0.022 sec
     gradient                   ...        0 min,  0.008 sec
 * total energy  :   -84.0610740 Eh     change       -0.8134572E-03 Eh
   gradient norm :     0.0124931 Eh/α   predicted    -0.5675227E-03 ( -30.23%)
   displ. norm   :     0.5425881 α      lambda       -0.1004469E-02
   maximum displ.:     0.3276012 α      in ANC's #6, #5, #8, ...

........................................................................
.............................. CYCLE   11 ..............................
........................................................................

 iter      E             dE          RMSdq      gap      omega  full diag
   1    -85.1876802 -0.851877E+02  0.119E-01    2.05       0.0  T
   2    -85.1876847 -0.448172E-05  0.704E-02    2.05       1.0  T
   3    -85.1876795  0.524945E-05  0.114E-02    2.05       1.2  T
   4    -85.1876864 -0.688569E-05  0.353E-03    2.05       3.8  T
   5    -85.1876866 -0.240729E-06  0.195E-03    2.05       6.9  T
   6    -85.1876867 -0.585666E-07  0.797E-04    2.05      16.9  T
   7    -85.1876867 -0.126113E-07  0.306E-04    2.05      44.0  T
     SCC iter.                  ...        0 min,  0.022 sec
     gradient                   ...        0 min,  0.006 sec
 * total energy  :   -84.0617958 Eh     change       -0.7217446E-03 Eh
   gradient norm :     0.0076940 Eh/α   predicted    -0.6500944E-03 (  -9.93%)
   displ. norm   :     0.4190206 α      lambda       -0.6237096E-03
   maximum displ.:     0.2611113 α      in ANC's #6, #9, #7, ...

........................................................................
.............................. CYCLE   12 ..............................
........................................................................

 iter      E             dE          RMSdq      gap      omega  full diag
   1    -85.1944222 -0.851944E+02  0.881E-02    2.05       0.0  T
   2    -85.1944251 -0.290686E-05  0.522E-02    2.05       1.0  T
   3    -85.1944172  0.799639E-05  0.118E-02    2.05       1.1  T
   4    -85.1944266 -0.942240E-05  0.253E-03    2.05       5.3  T
   5    -85.1944267 -0.133015E-06  0.139E-03    2.05       9.7  T
   6    -85.1944267 -0.326823E-07  0.625E-04    2.05      21.6  T
   7    -85.1944267 -0.861093E-08  0.252E-04    2.05      53.6  T
     SCC iter.                  ...        0 min,  0.022 sec
     gradient                   ...        0 min,  0.007 sec
 * total energy  :   -84.0621847 Eh     change       -0.3888801E-03 Eh
   gradient norm :     0.0089574 Eh/α   predicted    -0.3666136E-03 (  -5.73%)
   displ. norm   :     0.4781834 α      lambda       -0.4777334E-03
   maximum displ.:     0.3027297 α      in ANC's #6, #5, #7, ...

........................................................................
.............................. CYCLE   13 ..............................
........................................................................

 iter      E             dE          RMSdq      gap      omega  full diag
   1    -85.1875016 -0.851875E+02  0.103E-01    2.05       0.0  T
   2    -85.1875069 -0.529314E-05  0.608E-02    2.04       1.0  T
   3    -85.1874948  0.121000E-04  0.144E-02    2.05       1.0  T
   4    -85.1875090 -0.142288E-04  0.317E-03    2.04       4.3  T
   5    -85.1875093 -0.323761E-06  0.161E-03    2.04       8.4  T
   6    -85.1875093 -0.763555E-08  0.808E-04    2.04      16.7  T
   7    -85.1875094 -0.165917E-07  0.260E-04    2.04      51.9  T
     SCC iter.                  ...        0 min,  0.024 sec
     gradient                   ...        0 min,  0.008 sec
 * total energy  :   -84.0624167 Eh     change       -0.2320190E-03 Eh
   gradient norm :     0.0099170 Eh/α   predicted    -0.2934908E-03 (  26.49%)
   displ. norm   :     0.2179878 α      lambda       -0.3897420E-03
   maximum displ.:     0.1027073 α      in ANC's #6, #9, #8, ...

........................................................................
.............................. CYCLE   14 ..............................
........................................................................

 iter      E             dE          RMSdq      gap      omega  full diag
   1    -85.1926420 -0.851926E+02  0.580E-02    2.04       0.0  T
   2    -85.1926443 -0.234343E-05  0.345E-02    2.04       1.0  T
   3    -85.1926383  0.600115E-05  0.994E-03    2.05       1.4  T
   4    -85.1926451 -0.682989E-05  0.217E-03    2.04       6.2  T
   5    -85.1926453 -0.169299E-06  0.989E-04    2.04      13.6  T
   6    -85.1926453 -0.126053E-07  0.527E-04    2.04      25.6  T
     SCC iter.                  ...        0 min,  0.019 sec
     gradient                   ...        0 min,  0.008 sec
 * total energy  :   -84.0626463 Eh     change       -0.2296154E-03 Eh
   gradient norm :     0.0081960 Eh/α   predicted    -0.2041365E-03 ( -11.10%)
   displ. norm   :     0.2433703 α      lambda       -0.3210199E-03
   maximum displ.:     0.1108278 α      in ANC's #6, #12, #9, ...

........................................................................
.............................. CYCLE   15 ..............................
........................................................................

 iter      E             dE          RMSdq      gap      omega  full diag
   1    -85.1948408 -0.851948E+02  0.604E-02    2.05       0.0  T
   2    -85.1948419 -0.106353E-05  0.358E-02    2.04       1.0  T
   3    -85.1948387  0.320751E-05  0.762E-03    2.05       1.8  T
   4    -85.1948424 -0.378346E-05  0.149E-03    2.04       9.0  T
   5    -85.1948425 -0.341057E-07  0.836E-04    2.04      16.1  T
   6    -85.1948425 -0.677676E-08  0.407E-04    2.04      33.2  T
     SCC iter.                  ...        0 min,  0.020 sec
     gradient                   ...        0 min,  0.008 sec
 * total energy  :   -84.0628668 Eh     change       -0.2205400E-03 Eh
   gradient norm :     0.0061427 Eh/α   predicted    -0.1700233E-03 ( -22.91%)
   displ. norm   :     0.2916818 α      lambda       -0.2684835E-03
   maximum displ.:     0.1207952 α      in ANC's #6, #12, #13, ...

........................................................................
.............................. CYCLE   16 ..............................
........................................................................

 iter      E             dE          RMSdq      gap      omega  full diag
   1    -85.1947652 -0.851948E+02  0.728E-02    2.04       0.0  T
   2    -85.1947663 -0.110219E-05  0.432E-02    2.04       1.0  T
   3    -85.1947646  0.168552E-05  0.652E-03    2.04       2.1  T
   4    -85.1947667 -0.206958E-05  0.167E-03    2.04       8.1  T
   5    -85.1947668 -0.607091E-07  0.887E-04    2.04      15.2  T
   6    -85.1947668 -0.993960E-08  0.408E-04    2.04      33.1  T
     SCC iter.                  ...        0 min,  0.023 sec
     gradient                   ...        0 min,  0.008 sec
 * total energy  :   -84.0630608 Eh     change       -0.1939660E-03 Eh
   gradient norm :     0.0072908 Eh/α   predicted    -0.1456640E-03 ( -24.90%)
   displ. norm   :     0.3037859 α      lambda       -0.2943079E-03
   maximum displ.:     0.1263590 α      in ANC's #12, #8, #3, ...

........................................................................
.............................. CYCLE   17 ..............................
........................................................................

 iter      E             dE          RMSdq      gap      omega  full diag
   1    -85.1933523 -0.851934E+02  0.724E-02    2.04       0.0  T
   2    -85.1933543 -0.199028E-05  0.431E-02    2.05       1.0  T
   3    -85.1933485  0.584884E-05  0.996E-03    2.04       1.4  T
   4    -85.1933552 -0.669291E-05  0.181E-03    2.04       7.4  T
   5    -85.1933553 -0.116514E-06  0.884E-04    2.04      15.3  T
   6    -85.1933553 -0.941233E-08  0.439E-04    2.04      30.7  T
     SCC iter.                  ...        0 min,  0.021 sec
     gradient                   ...        0 min,  0.007 sec
 * total energy  :   -84.0632501 Eh     change       -0.1892843E-03 Eh
   gradient norm :     0.0065586 Eh/α   predicted    -0.1607362E-03 ( -15.08%)
   displ. norm   :     0.3365890 α      lambda       -0.2443419E-03
   maximum displ.:     0.1308139 α      in ANC's #6, #12, #13, ...

........................................................................
.............................. CYCLE   18 ..............................
........................................................................

 iter      E             dE          RMSdq      gap      omega  full diag
   1    -85.1905027 -0.851905E+02  0.776E-02    2.04       0.0  T
   2    -85.1905051 -0.238749E-05  0.463E-02    2.05       1.0  T
   3    -85.1905008  0.436936E-05  0.863E-03    2.04       1.6  T
   4    -85.1905059 -0.519129E-05  0.206E-03    2.04       6.5  T
   5    -85.1905061 -0.135601E-06  0.105E-03    2.04      12.9  T
   6    -85.1905061 -0.749296E-08  0.369E-04    2.04      36.5  T
   7    -85.1905061 -0.345919E-08  0.160E-04    2.04      84.1  T
     SCC iter.                  ...        0 min,  0.023 sec
     gradient                   ...        0 min,  0.007 sec
 * total energy  :   -84.0633756 Eh     change       -0.1255239E-03 Eh
   gradient norm :     0.0112622 Eh/α   predicted    -0.1360124E-03 (   8.36%)
   displ. norm   :     0.2238441 α      lambda       -0.2940214E-03
   maximum displ.:     0.0829790 α      in ANC's #10, #7, #3, ...

........................................................................
.............................. CYCLE   19 ..............................
........................................................................

 iter      E             dE          RMSdq      gap      omega  full diag
   1    -85.1926958 -0.851927E+02  0.517E-02    2.04       0.0  T
   2    -85.1926978 -0.202479E-05  0.305E-02    2.05       1.0  T
   3    -85.1926919  0.587563E-05  0.102E-02    2.04       1.3  T
   4    -85.1926988 -0.691042E-05  0.163E-03    2.05       8.3  T
   5    -85.1926989 -0.933793E-07  0.780E-04    2.05      17.3  T
   6    -85.1926989 -0.414624E-08  0.385E-04    2.05      35.1  T
     SCC iter.                  ...        0 min,  0.020 sec
     gradient                   ...        0 min,  0.007 sec
 * total energy  :   -84.0635500 Eh     change       -0.1744188E-03 Eh
   gradient norm :     0.0092969 Eh/α   predicted    -0.1543810E-03 ( -11.49%)
   displ. norm   :     0.2307203 α      lambda       -0.2831533E-03
   maximum displ.:     0.0854035 α      in ANC's #1, #3, #6, ...

........................................................................
.............................. CYCLE   20 ..............................
........................................................................

 iter      E             dE          RMSdq      gap      omega  full diag
   1    -85.1918778 -0.851919E+02  0.491E-02    2.05       0.0  T
   2    -85.1918789 -0.114801E-05  0.291E-02    2.05       1.0  T
   3    -85.1918780  0.940096E-06  0.533E-03    2.05       2.5  T
   4    -85.1918793 -0.127223E-05  0.158E-03    2.05       8.6  T
   5    -85.1918793 -0.472891E-07  0.869E-04    2.05      15.5  T
   6    -85.1918793 -0.939968E-08  0.421E-04    2.05      32.0  T
     SCC iter.                  ...        0 min,  0.020 sec
     gradient                   ...        0 min,  0.007 sec
 * total energy  :   -84.0637273 Eh     change       -0.1772202E-03 Eh
   gradient norm :     0.0058162 Eh/α   predicted    -0.1491134E-03 ( -15.86%)
   displ. norm   :     0.3497540 α      lambda       -0.2823650E-03
   maximum displ.:     0.1315084 α      in ANC's #3, #1, #6, ...
 * RMSD in coord.:     0.7242627 α      energy gain  -0.4718845E-01 Eh

generating ANC from exact Hessian ...
Using Lindh-Hessian (1995)
 Shifting diagonal of input Hessian by   9.921013199712688E-003
 Lowest  eigenvalues of input Hessian
    0.000000    0.000000    0.000000    0.000000    0.000000    0.000000
    0.010000    0.010023    0.010214    0.010561    0.011050    0.011340
    0.011426    0.011568    0.011733    0.012134    0.012704    0.012959
 Highest eigenvalues
    1.976339    2.004975    2.021281    2.023489    2.145613    2.172229
 

........................................................................
.............................. CYCLE   21 ..............................
........................................................................

 iter      E             dE          RMSdq      gap      omega  full diag
   1    -85.1907496 -0.851907E+02  0.694E-02    2.05       0.0  T
   2    -85.1907514 -0.185550E-05  0.412E-02    2.05       1.0  T
   3    -85.1907498  0.164091E-05  0.664E-03    2.05       2.0  T
   4    -85.1907518 -0.205023E-05  0.182E-03    2.05       7.4  T
   5    -85.1907519 -0.960077E-07  0.911E-04    2.05      14.8  T
   6    -85.1907519 -0.799079E-08  0.422E-04    2.05      31.9  T
     SCC iter.                  ...        0 min,  0.020 sec
     gradient                   ...        0 min,  0.008 sec
 * total energy  :   -84.0639027 Eh     change       -0.1754551E-03 Eh
   gradient norm :     0.0108603 Eh/α   predicted     0.0000000E+00 (-100.00%)
   displ. norm   :     0.0782584 α      lambda       -0.2423629E-03
   maximum displ.:     0.0279514 α      in ANC's #11, #10, #9, ...

........................................................................
.............................. CYCLE   22 ..............................
........................................................................

 iter      E             dE          RMSdq      gap      omega  full diag
   1    -85.1935217 -0.851935E+02  0.241E-02    2.05       0.0  T
   2    -85.1935221 -0.370015E-06  0.143E-02    2.05       1.0  T
   3    -85.1935217  0.353436E-06  0.315E-03    2.05       4.3  T
   4    -85.1935223 -0.516463E-06  0.893E-04    2.05      15.1  T
   5    -85.1935223 -0.708353E-08  0.458E-04    2.05      29.5  T
     SCC iter.                  ...        0 min,  0.017 sec
     gradient                   ...        0 min,  0.008 sec
 * total energy  :   -84.0640915 Eh     change       -0.1888256E-03 Eh
   gradient norm :     0.0044006 Eh/α   predicted    -0.1219238E-03 ( -35.43%)
   displ. norm   :     0.1774549 α      lambda       -0.2799086E-03
   maximum displ.:     0.0678360 α      in ANC's #10, #11, #9, ...

........................................................................
.............................. CYCLE   23 ..............................
........................................................................

 iter      E             dE          RMSdq      gap      omega  full diag
   1    -85.1956336 -0.851956E+02  0.481E-02    2.05       0.0  T
   2    -85.1956345 -0.992270E-06  0.287E-02    2.05       1.0  T
   3    -85.1956325  0.207730E-05  0.667E-03    2.05       2.0  T
   4    -85.1956351 -0.262244E-05  0.159E-03    2.05       8.5  T
   5    -85.1956351 -0.194281E-07  0.938E-04    2.05      14.4  T
   6    -85.1956351 -0.950735E-08  0.388E-04    2.05      34.8  T
     SCC iter.                  ...        0 min,  0.020 sec
     gradient                   ...        0 min,  0.008 sec
 * total energy  :   -84.0642954 Eh     change       -0.2038518E-03 Eh
   gradient norm :     0.0031159 Eh/α   predicted    -0.1443631E-03 ( -29.18%)
   displ. norm   :     0.2503051 α      lambda       -0.2383481E-03
   maximum displ.:     0.0994338 α      in ANC's #10, #11, #9, ...

........................................................................
.............................. CYCLE   24 ..............................
........................................................................

 iter      E             dE          RMSdq      gap      omega  full diag
   1    -85.1949711 -0.851950E+02  0.657E-02    2.05       0.0  T
   2    -85.1949729 -0.185208E-05  0.394E-02    2.05       1.0  T
   3    -85.1949675  0.544167E-05  0.102E-02    2.05       1.3  T
   4    -85.1949740 -0.649703E-05  0.208E-03    2.05       6.5  T
   5    -85.1949740 -0.413229E-07  0.118E-03    2.05      11.5  T
   6    -85.1949740 -0.179533E-07  0.516E-04    2.05      26.2  T
   7    -85.1949741 -0.698591E-08  0.187E-04    2.05      72.0  T
     SCC iter.                  ...        0 min,  0.023 sec
     gradient                   ...        0 min,  0.007 sec
 * total energy  :   -84.0644592 Eh     change       -0.1637580E-03 Eh
   gradient norm :     0.0063899 Eh/α   predicted    -0.1266582E-03 ( -22.66%)
   displ. norm   :     0.1766499 α      lambda       -0.1220491E-03
   maximum displ.:     0.0763516 α      in ANC's #10, #1, #9, ...

........................................................................
.............................. CYCLE   25 ..............................
........................................................................

 iter      E             dE          RMSdq      gap      omega  full diag
   1    -85.1936077 -0.851936E+02  0.439E-02    2.05       0.0  T
   2    -85.1936083 -0.609069E-06  0.262E-02    2.05       1.0  T
   3    -85.1936063  0.194830E-05  0.605E-03    2.05       2.2  T
   4    -85.1936086 -0.230106E-05  0.121E-03    2.05      11.1  T
   5    -85.1936086 -0.151665E-07  0.668E-04    2.05      20.2  T
   6    -85.1936086 -0.429667E-08  0.306E-04    2.05      44.1  T
     SCC iter.                  ...        0 min,  0.020 sec
     gradient                   ...        0 min,  0.007 sec
 * total energy  :   -84.0645425 Eh     change       -0.8331085E-04 Eh
   gradient norm :     0.0078388 Eh/α   predicted    -0.6293698E-04 ( -24.46%)
   displ. norm   :     0.1549550 α      lambda       -0.1489058E-03
   maximum displ.:     0.0711754 α      in ANC's #10, #1, #9, ...

........................................................................
.............................. CYCLE   26 ..............................
........................................................................

 iter      E             dE          RMSdq      gap      omega  full diag
   1    -85.1929381 -0.851929E+02  0.380E-02    2.05       0.0  T
   2    -85.1929386 -0.446635E-06  0.225E-02    2.05       1.0  T
   3    -85.1929380  0.542533E-06  0.396E-03    2.05       3.4  T
   4    -85.1929387 -0.720153E-06  0.100E-03    2.05      13.4  T
   5    -85.1929387 -0.133290E-07  0.587E-04    2.05      23.0  T
   6    -85.1929387 -0.531512E-08  0.266E-04    2.05      50.7  T
     SCC iter.                  ...        0 min,  0.021 sec
     gradient                   ...        0 min,  0.007 sec
 * total energy  :   -84.0646338 Eh     change       -0.9130552E-04 Eh
   gradient norm :     0.0031023 Eh/α   predicted    -0.7624031E-04 ( -16.50%)
   displ. norm   :     0.1443791 α      lambda       -0.6130191E-04
   maximum displ.:     0.0662048 α      in ANC's #10, #1, #13, ...

........................................................................
.............................. CYCLE   27 ..............................
........................................................................

 iter      E             dE          RMSdq      gap      omega  full diag
   1    -85.1929760 -0.851930E+02  0.339E-02    2.05       0.0  T
   2    -85.1929762 -0.218456E-06  0.201E-02    2.05       1.0  T
   3    -85.1929758  0.379380E-06  0.285E-03    2.05       4.7  T
   4    -85.1929763 -0.468552E-06  0.689E-04    2.05      19.6  T
   5    -85.1929763 -0.936869E-08  0.374E-04    2.05      36.0  T
     SCC iter.                  ...        0 min,  0.019 sec
     gradient                   ...        0 min,  0.007 sec
 * total energy  :   -84.0646782 Eh     change       -0.4442696E-04 Eh
   gradient norm :     0.0032187 Eh/α   predicted    -0.3129811E-04 ( -29.55%)
   displ. norm   :     0.1499983 α      lambda       -0.6676627E-04
   maximum displ.:     0.0718699 α      in ANC's #1, #10, #13, ...

........................................................................
.............................. CYCLE   28 ..............................
........................................................................

 iter      E             dE          RMSdq      gap      omega  full diag
   1    -85.1943811 -0.851944E+02  0.342E-02    2.05       0.0  T
   2    -85.1943815 -0.320335E-06  0.203E-02    2.05       1.0  T
   3    -85.1943811  0.353402E-06  0.311E-03    2.05       4.3  T
   4    -85.1943816 -0.468429E-06  0.809E-04    2.05      16.7  T
   5    -85.1943816 -0.967600E-08  0.478E-04    2.05      28.2  T
     SCC iter.                  ...        0 min,  0.021 sec
     gradient                   ...        0 min,  0.008 sec
 * total energy  :   -84.0647225 Eh     change       -0.4433372E-04 Eh
   gradient norm :     0.0024015 Eh/α   predicted    -0.3414196E-04 ( -22.99%)
   displ. norm   :     0.1563827 α      lambda       -0.4280336E-04
   maximum displ.:     0.0792391 α      in ANC's #1, #10, #13, ...

........................................................................
.............................. CYCLE   29 ..............................
........................................................................

 iter      E             dE          RMSdq      gap      omega  full diag
   1    -85.1946861 -0.851947E+02  0.339E-02    2.05       0.0  T
   2    -85.1946863 -0.163091E-06  0.202E-02    2.05       1.0  T
   3    -85.1946861  0.121609E-06  0.200E-03    2.05       6.8  T
   4    -85.1946863 -0.191663E-06  0.611E-04    2.05      22.1  T
   5    -85.1946863 -0.282995E-08  0.317E-04    2.05      42.6  T
     SCC iter.                  ...        0 min,  0.033 sec
     gradient                   ...        0 min,  0.007 sec
 * total energy  :   -84.0647543 Eh     change       -0.3173541E-04 Eh
   gradient norm :     0.0027073 Eh/α   predicted    -0.2192605E-04 ( -30.91%)
   displ. norm   :     0.1792428 α      lambda       -0.5720566E-04
   maximum displ.:     0.0959560 α      in ANC's #1, #13, #15, ...

........................................................................
.............................. CYCLE   30 ..............................
........................................................................

 iter      E             dE          RMSdq      gap      omega  full diag
   1    -85.1953286 -0.851953E+02  0.393E-02    2.06       0.0  T
   2    -85.1953290 -0.308947E-06  0.235E-02    2.06       1.0  T
   3    -85.1953286  0.388623E-06  0.316E-03    2.06       4.3  T
   4    -85.1953291 -0.542251E-06  0.956E-04    2.06      14.1  T
   5    -85.1953291 -0.712110E-08  0.507E-04    2.06      26.6  T
     SCC iter.                  ...        0 min,  0.036 sec
     gradient                   ...        0 min,  0.008 sec
 * total energy  :   -84.0647951 Eh     change       -0.4087411E-04 Eh
   gradient norm :     0.0029386 Eh/α   predicted    -0.2953027E-04 ( -27.75%)
   displ. norm   :     0.2014887 α      lambda       -0.4892516E-04
   maximum displ.:     0.1121791 α      in ANC's #1, #13, #15, ...

........................................................................
.............................. CYCLE   31 ..............................
........................................................................

 iter      E             dE          RMSdq      gap      omega  full diag
   1    -85.1945893 -0.851946E+02  0.417E-02    2.06       0.0  T
   2    -85.1945896 -0.243487E-06  0.249E-02    2.06       1.0  T
   3    -85.1945895  0.957305E-07  0.205E-03    2.06       6.6  T
   4    -85.1945897 -0.205451E-06  0.856E-04    2.06      15.8  T
   5    -85.1945897 -0.823245E-08  0.421E-04    2.06      32.0  T
     SCC iter.                  ...        0 min,  0.048 sec
     gradient                   ...        0 min,  0.008 sec
 * total energy  :   -84.0648305 Eh     change       -0.3538577E-04 Eh
   gradient norm :     0.0025524 Eh/α   predicted    -0.2545861E-04 ( -28.05%)
   displ. norm   :     0.1491212 α      lambda       -0.4189757E-04
   maximum displ.:     0.0866242 α      in ANC's #1, #2, #15, ...

........................................................................
.............................. CYCLE   32 ..............................
........................................................................

 iter      E             dE          RMSdq      gap      omega  full diag
   1    -85.1945005 -0.851945E+02  0.305E-02    2.06       0.0  T
   2    -85.1945008 -0.274591E-06  0.182E-02    2.06       1.0  T
   3    -85.1945003  0.454346E-06  0.308E-03    2.06       4.4  T
   4    -85.1945009 -0.574619E-06  0.779E-04    2.06      17.3  T
   5    -85.1945009 -0.101648E-07  0.409E-04    2.06      33.0  T
     SCC iter.                  ...        0 min,  0.028 sec
     gradient                   ...        0 min,  0.009 sec
 * total energy  :   -84.0648595 Eh     change       -0.2895981E-04 Eh
   gradient norm :     0.0027028 Eh/α   predicted    -0.2141509E-04 ( -26.05%)
   displ. norm   :     0.1628134 α      lambda       -0.3073140E-04
   maximum displ.:     0.0972245 α      in ANC's #1, #2, #11, ...

........................................................................
.............................. CYCLE   33 ..............................
........................................................................

 iter      E             dE          RMSdq      gap      omega  full diag
   1    -85.1938079 -0.851938E+02  0.305E-02    2.06       0.0  T
   2    -85.1938081 -0.180552E-06  0.182E-02    2.06       1.0  T
   3    -85.1938079  0.215506E-06  0.215E-03    2.06       6.3  T
   4    -85.1938082 -0.288714E-06  0.648E-04    2.06      20.8  T
   5    -85.1938082 -0.628008E-08  0.354E-04    2.06      38.1  T
     SCC iter.                  ...        0 min,  0.023 sec
     gradient                   ...        0 min,  0.008 sec
 * total energy  :   -84.0648827 Eh     change       -0.2323511E-04 Eh
   gradient norm :     0.0020360 Eh/α   predicted    -0.1578042E-04 ( -32.08%)
   displ. norm   :     0.1200402 α      lambda       -0.2795136E-04
   maximum displ.:     0.0743632 α      in ANC's #1, #2, #8, ...

........................................................................
.............................. CYCLE   34 ..............................
........................................................................

 iter      E             dE          RMSdq      gap      omega  full diag
   1    -85.1941761 -0.851942E+02  0.197E-02    2.06       0.0  T
   2    -85.1941762 -0.129108E-06  0.117E-02    2.06       1.2  T
   3    -85.1941760  0.196216E-06  0.194E-03    2.06       7.0  T
   4    -85.1941763 -0.243009E-06  0.500E-04    2.06      27.0  T
   5    -85.1941763 -0.567049E-08  0.252E-04    2.06      53.6  T
     SCC iter.                  ...        0 min,  0.018 sec
     gradient                   ...        0 min,  0.008 sec
 * total energy  :   -84.0649044 Eh     change       -0.2165335E-04 Eh
   gradient norm :     0.0017997 Eh/α   predicted    -0.1417769E-04 ( -34.52%)
   displ. norm   :     0.2276431 α      lambda       -0.2834935E-04
   maximum displ.:     0.1423455 α      in ANC's #1, #2, #8, ...

........................................................................
.............................. CYCLE   35 ..............................
........................................................................

 iter      E             dE          RMSdq      gap      omega  full diag
   1    -85.1944166 -0.851944E+02  0.372E-02    2.06       0.0  T
   2    -85.1944170 -0.343702E-06  0.222E-02    2.06       1.0  T
   3    -85.1944164  0.577260E-06  0.332E-03    2.06       4.1  T
   4    -85.1944171 -0.739400E-06  0.915E-04    2.06      14.7  T
   5    -85.1944171 -0.113240E-07  0.449E-04    2.06      30.0  T
     SCC iter.                  ...        0 min,  0.018 sec
     gradient                   ...        0 min,  0.008 sec
 * total energy  :   -84.0649326 Eh     change       -0.2822703E-04 Eh
   gradient norm :     0.0023360 Eh/α   predicted    -0.1450533E-04 ( -48.61%)
   displ. norm   :     0.0870873 α      lambda       -0.1946403E-04
   maximum displ.:     0.0584575 α      in ANC's #1, #2, #8, ...

........................................................................
.............................. CYCLE   36 ..............................
........................................................................

 iter      E             dE          RMSdq      gap      omega  full diag
   1    -85.1950095 -0.851950E+02  0.120E-02    2.06       0.0  T
   2    -85.1950096 -0.747629E-07  0.713E-03    2.06       1.9  T
   3    -85.1950094  0.160013E-06  0.171E-03    2.06       7.9  T
   4    -85.1950096 -0.192573E-06  0.384E-04    2.06      35.1  T
   5    -85.1950096 -0.338049E-08  0.200E-04    2.06      67.3  T
     SCC iter.                  ...        0 min,  0.018 sec
     gradient                   ...        0 min,  0.009 sec
 * total energy  :   -84.0649484 Eh     change       -0.1577405E-04 Eh
   gradient norm :     0.0018380 Eh/α   predicted    -0.9807368E-05 ( -37.83%)
   displ. norm   :     0.2293384 α      lambda       -0.3048488E-04
   maximum displ.:     0.1529599 α      in ANC's #1, #2, #10, ...

........................................................................
.............................. CYCLE   37 ..............................
........................................................................

 iter      E             dE          RMSdq      gap      omega  full diag
   1    -85.1954652 -0.851955E+02  0.370E-02    2.06       0.0  T
   2    -85.1954659 -0.671422E-06  0.221E-02    2.06       1.0  T
   3    -85.1954641  0.183126E-05  0.574E-03    2.06       2.3  T
   4    -85.1954662 -0.219229E-05  0.118E-03    2.06      11.4  T
   5    -85.1954663 -0.267542E-07  0.639E-04    2.06      21.1  T
   6    -85.1954663 -0.484073E-08  0.245E-04    2.06      55.0  T
     SCC iter.                  ...        0 min,  0.025 sec
     gradient                   ...        0 min,  0.010 sec
 * total energy  :   -84.0649799 Eh     change       -0.3156954E-04 Eh
   gradient norm :     0.0015177 Eh/α   predicted    -0.1560167E-04 ( -50.58%)
   displ. norm   :     0.1689542 α      lambda       -0.1628518E-04
   maximum displ.:     0.1171852 α      in ANC's #1, #2, #10, ...

........................................................................
.............................. CYCLE   38 ..............................
........................................................................

 iter      E             dE          RMSdq      gap      omega  full diag
   1    -85.1951009 -0.851951E+02  0.267E-02    2.06       0.0  T
   2    -85.1951012 -0.266050E-06  0.159E-02    2.06       1.0  T
   3    -85.1951005  0.738105E-06  0.379E-03    2.06       3.6  T
   4    -85.1951013 -0.879868E-06  0.777E-04    2.06      17.4  T
   5    -85.1951013 -0.105217E-07  0.428E-04    2.06      31.5  T
     SCC iter.                  ...        0 min,  0.023 sec
     gradient                   ...        0 min,  0.009 sec
 * total energy  :   -84.0649998 Eh     change       -0.1989552E-04 Eh
   gradient norm :     0.0013695 Eh/α   predicted    -0.8247730E-05 ( -58.54%)
   displ. norm   :     0.1557088 α      lambda       -0.1666061E-04
   maximum displ.:     0.1097442 α      in ANC's #1, #2, #10, ...

........................................................................
.............................. CYCLE   39 ..............................
........................................................................

 iter      E             dE          RMSdq      gap      omega  full diag
   1    -85.1949606 -0.851950E+02  0.251E-02    2.06       0.0  T
   2    -85.1949608 -0.271253E-06  0.150E-02    2.06       1.0  T
   3    -85.1949602  0.605762E-06  0.356E-03    2.06       3.8  T
   4    -85.1949610 -0.729453E-06  0.764E-04    2.06      17.6  T
   5    -85.1949610 -0.110708E-07  0.417E-04    2.06      32.4  T
     SCC iter.                  ...        0 min,  0.023 sec
     gradient                   ...        0 min,  0.008 sec
 * total energy  :   -84.0650196 Eh     change       -0.1972844E-04 Eh
   gradient norm :     0.0014751 Eh/α   predicted    -0.8425023E-05 ( -57.30%)
   displ. norm   :     0.1982459 α      lambda       -0.1705811E-04
   maximum displ.:     0.1371302 α      in ANC's #1, #2, #10, ...

........................................................................
.............................. CYCLE   40 ..............................
........................................................................

 iter      E             dE          RMSdq      gap      omega  full diag
   1    -85.1942097 -0.851942E+02  0.335E-02    2.06       0.0  T
   2    -85.1942100 -0.236085E-06  0.199E-02    2.06       1.0  T
   3    -85.1942097  0.260641E-06  0.268E-03    2.06       5.0  T
   4    -85.1942101 -0.364473E-06  0.791E-04    2.06      17.0  T
   5    -85.1942101 -0.702626E-08  0.450E-04    2.06      30.0  T
     SCC iter.                  ...        0 min,  0.023 sec
     gradient                   ...        0 min,  0.009 sec
 * total energy  :   -84.0650387 Eh     change       -0.1916104E-04 Eh
   gradient norm :     0.0010856 Eh/α   predicted    -0.8681136E-05 ( -54.69%)
   displ. norm   :     0.1662663 α      lambda       -0.1313562E-04
   maximum displ.:     0.1181233 α      in ANC's #1, #2, #10, ...

........................................................................
.............................. CYCLE   41 ..............................
........................................................................

 iter      E             dE          RMSdq      gap      omega  full diag
   1    -85.1943196 -0.851943E+02  0.266E-02    2.06       0.0  T
   2    -85.1943197 -0.121295E-06  0.158E-02    2.06       1.0  T
   3    -85.1943195  0.128535E-06  0.185E-03    2.06       7.3  T
   4    -85.1943197 -0.186600E-06  0.578E-04    2.06      23.3  T
   5    -85.1943197 -0.200063E-08  0.292E-04    2.06      46.2  T
     SCC iter.                  ...        0 min,  0.024 sec
     gradient                   ...        0 min,  0.007 sec
 * total energy  :   -84.0650551 Eh     change       -0.1634003E-04 Eh
   gradient norm :     0.0012534 Eh/α   predicted    -0.6651317E-05 ( -59.29%)
   displ. norm   :     0.2438731 α      lambda       -0.1765808E-04
   maximum displ.:     0.1721895 α      in ANC's #1, #2, #3, ...

........................................................................
.............................. CYCLE   42 ..............................
........................................................................

 iter      E             dE          RMSdq      gap      omega  full diag
   1    -85.1941589 -0.851942E+02  0.400E-02    2.06       0.0  T
   2    -85.1941592 -0.241172E-06  0.237E-02    2.06       1.0  T
   3    -85.1941591  0.783807E-07  0.212E-03    2.06       6.4  T
   4    -85.1941593 -0.198279E-06  0.870E-04    2.06      15.5  T
   5    -85.1941593 -0.416614E-08  0.350E-04    2.06      38.5  T
     SCC iter.                  ...        0 min,  0.020 sec
     gradient                   ...        0 min,  0.007 sec
 * total energy  :   -84.0650768 Eh     change       -0.2173052E-04 Eh
   gradient norm :     0.0010914 Eh/α   predicted    -0.9066074E-05 ( -58.28%)
   displ. norm   :     0.2665272 α      lambda       -0.1871220E-04
   maximum displ.:     0.1881529 α      in ANC's #1, #2, #4, ...
 * RMSD in coord.:     0.4263740 α      energy gain  -0.1349537E-02 Eh

generating ANC from exact Hessian ...
Using Lindh-Hessian (1995)
 Shifting diagonal of input Hessian by   9.918947802147696E-003
 Lowest  eigenvalues of input Hessian
    0.000000    0.000000    0.000000    0.000000    0.000000    0.000000
    0.010000    0.010023    0.010211    0.010532    0.010983    0.011336
    0.011454    0.011525    0.011753    0.012113    0.012621    0.012909
 Highest eigenvalues
    1.976738    2.006841    2.023190    2.025859    2.145241    2.172332
 

........................................................................
.............................. CYCLE   43 ..............................
........................................................................

 iter      E             dE          RMSdq      gap      omega  full diag
   1    -85.1943414 -0.851943E+02  0.423E-02    2.06       0.0  T
   2    -85.1943417 -0.232495E-06  0.250E-02    2.06       1.0  T
   3    -85.1943417  0.118428E-07  0.183E-03    2.06       7.4  T
   4    -85.1943418 -0.103889E-06  0.836E-04    2.06      16.1  T
   5    -85.1943418 -0.640473E-08  0.417E-04    2.06      32.3  T
     SCC iter.                  ...        0 min,  0.028 sec
     gradient                   ...        0 min,  0.008 sec
 * total energy  :   -84.0650989 Eh     change       -0.2209120E-04 Eh
   gradient norm :     0.0013579 Eh/α   predicted     0.0000000E+00 (-100.00%)
   displ. norm   :     0.0249329 α      lambda       -0.5444257E-05
   maximum displ.:     0.0096601 α      in ANC's #1, #7, #10, ...

........................................................................
.............................. CYCLE   44 ..............................
........................................................................

 iter      E             dE          RMSdq      gap      omega  full diag
   1    -85.1946763 -0.851947E+02  0.473E-03    2.06       0.0  T
   2    -85.1946763 -0.297299E-07  0.290E-03    2.06       4.7  T
   3    -85.1946763  0.190095E-07  0.744E-04    2.06      18.1  T
   4    -85.1946763 -0.254287E-07  0.237E-04    2.06      56.9  T
     SCC iter.                  ...        0 min,  0.017 sec
     gradient                   ...        0 min,  0.006 sec
 * total energy  :   -84.0651058 Eh     change       -0.6885867E-05 Eh
   gradient norm :     0.0004389 Eh/α   predicted    -0.2924059E-05 ( -57.54%)
   displ. norm   :     0.0680358 α      lambda       -0.9252668E-05
   maximum displ.:     0.0284477 α      in ANC's #1, #7, #2, ...

........................................................................
.............................. CYCLE   45 ..............................
........................................................................

 iter      E             dE          RMSdq      gap      omega  full diag
   1    -85.1950035 -0.851950E+02  0.115E-02    2.06       0.0  T
   2    -85.1950036 -0.113886E-06  0.703E-03    2.06       1.9  T
   3    -85.1950033  0.247360E-06  0.241E-03    2.06       5.6  T
   4    -85.1950036 -0.290531E-06  0.525E-04    2.06      25.7  T
   5    -85.1950036 -0.779124E-08  0.251E-04    2.06      53.7  T
     SCC iter.                  ...        0 min,  0.034 sec
     gradient                   ...        0 min,  0.007 sec
 * total energy  :   -84.0651154 Eh     change       -0.9588313E-05 Eh
   gradient norm :     0.0009273 Eh/α   predicted    -0.4636037E-05 ( -51.65%)
   displ. norm   :     0.0677138 α      lambda       -0.5309253E-05
   maximum displ.:     0.0320192 α      in ANC's #1, #2, #7, ...

........................................................................
.............................. CYCLE   46 ..............................
........................................................................

 iter      E             dE          RMSdq      gap      omega  full diag
   1    -85.1951251 -0.851951E+02  0.106E-02    2.06       0.0  T
   2    -85.1951251 -0.557151E-07  0.644E-03    2.06       2.1  T
   3    -85.1951250  0.174438E-06  0.189E-03    2.06       7.1  T
   4    -85.1951252 -0.207026E-06  0.377E-04    2.06      35.7  T
   5    -85.1951252 -0.185750E-08  0.210E-04    2.06      64.3  T
     SCC iter.                  ...        0 min,  0.067 sec
     gradient                   ...        0 min,  0.008 sec
 * total energy  :   -84.0651215 Eh     change       -0.6159760E-05 Eh
   gradient norm :     0.0009389 Eh/α   predicted    -0.2695286E-05 ( -56.24%)
   displ. norm   :     0.0829837 α      lambda       -0.5671791E-05
   maximum displ.:     0.0421264 α      in ANC's #1, #2, #3, ...

........................................................................
.............................. CYCLE   47 ..............................
........................................................................

 iter      E             dE          RMSdq      gap      omega  full diag
   1    -85.1951383 -0.851951E+02  0.130E-02    2.06       0.0  T
   2    -85.1951383 -0.590244E-07  0.784E-03    2.06       1.7  T
   3    -85.1951382  0.154800E-06  0.178E-03    2.06       7.6  T
   4    -85.1951384 -0.190020E-06  0.415E-04    2.06      32.5  T
   5    -85.1951384 -0.114831E-08  0.240E-04    2.06      56.1  T
     SCC iter.                  ...        0 min,  0.017 sec
     gradient                   ...        0 min,  0.008 sec
 * total energy  :   -84.0651283 Eh     change       -0.6732748E-05 Eh
   gradient norm :     0.0006684 Eh/α   predicted    -0.2852582E-05 ( -57.63%)
   displ. norm   :     0.1046209 α      lambda       -0.6778293E-05
   maximum displ.:     0.0556080 α      in ANC's #1, #2, #3, ...

........................................................................
.............................. CYCLE   48 ..............................
........................................................................

 iter      E             dE          RMSdq      gap      omega  full diag
   1    -85.1950305 -0.851950E+02  0.165E-02    2.06       0.0  T
   2    -85.1950306 -0.722094E-07  0.984E-03    2.06       1.4  T
   3    -85.1950305  0.129020E-06  0.165E-03    2.06       8.2  T
   4    -85.1950307 -0.167545E-06  0.454E-04    2.06      29.7  T
   5    -85.1950307 -0.912053E-09  0.267E-04    2.06      50.5  T
     SCC iter.                  ...        0 min,  0.029 sec
     gradient                   ...        0 min,  0.010 sec
 * total energy  :   -84.0651363 Eh     change       -0.8017274E-05 Eh
   gradient norm :     0.0005169 Eh/α   predicted    -0.3407526E-05 ( -57.50%)
   displ. norm   :     0.1328578 α      lambda       -0.8220866E-05
   maximum displ.:     0.0720805 α      in ANC's #1, #2, #3, ...

........................................................................
.............................. CYCLE   49 ..............................
........................................................................

 iter      E             dE          RMSdq      gap      omega  full diag
   1    -85.1948875 -0.851949E+02  0.218E-02    2.06       0.0  T
   2    -85.1948876 -0.889763E-07  0.130E-02    2.06       1.0  T
   3    -85.1948875  0.827451E-07  0.148E-03    2.06       9.1  T
   4    -85.1948876 -0.127211E-06  0.496E-04    2.06      27.2  T
   5    -85.1948876 -0.651255E-09  0.247E-04    2.06      54.7  T
     SCC iter.                  ...        0 min,  0.017 sec
     gradient                   ...        0 min,  0.008 sec
 * total energy  :   -84.0651459 Eh     change       -0.9641107E-05 Eh
   gradient norm :     0.0008060 Eh/α   predicted    -0.4145769E-05 ( -57.00%)
   displ. norm   :     0.1616670 α      lambda       -0.9506619E-05
   maximum displ.:     0.0894027 α      in ANC's #1, #2, #3, ...

........................................................................
.............................. CYCLE   50 ..............................
........................................................................

 iter      E             dE          RMSdq      gap      omega  full diag
   1    -85.1947286 -0.851947E+02  0.269E-02    2.06       0.0  T
   2    -85.1947287 -0.114382E-06  0.160E-02    2.06       1.0  T
   3    -85.1947286  0.799600E-07  0.157E-03    2.06       8.6  T
   4    -85.1947287 -0.135003E-06  0.557E-04    2.06      24.2  T
   5    -85.1947287 -0.121132E-08  0.259E-04    2.06      52.0  T
     SCC iter.                  ...        0 min,  0.017 sec
     gradient                   ...        0 min,  0.008 sec
 * total energy  :   -84.0651573 Eh     change       -0.1134524E-04 Eh
   gradient norm :     0.0009761 Eh/α   predicted    -0.4809804E-05 ( -57.61%)
   displ. norm   :     0.1837018 α      lambda       -0.9994860E-05
   maximum displ.:     0.1036781 α      in ANC's #1, #2, #3, ...

........................................................................
.............................. CYCLE   51 ..............................
........................................................................

 iter      E             dE          RMSdq      gap      omega  full diag
   1    -85.1946443 -0.851946E+02  0.302E-02    2.06       0.0  T
   2    -85.1946444 -0.105455E-06  0.180E-02    2.06       1.0  T
   3    -85.1946444  0.546248E-08  0.118E-03    2.06      11.4  T
   4    -85.1946444 -0.571246E-07  0.583E-04    2.06      23.1  T
   5    -85.1946444 -0.285738E-08  0.227E-04    2.06      59.4  T
     SCC iter.                  ...        0 min,  0.017 sec
     gradient                   ...        0 min,  0.008 sec
 * total energy  :   -84.0651693 Eh     change       -0.1199269E-04 Eh
   gradient norm :     0.0008421 Eh/α   predicted    -0.5074644E-05 ( -57.69%)
   displ. norm   :     0.1786047 α      lambda       -0.8866424E-05
   maximum displ.:     0.1036157 α      in ANC's #1, #2, #3, ...

........................................................................
.............................. CYCLE   52 ..............................
........................................................................

 iter      E             dE          RMSdq      gap      omega  full diag
   1    -85.1947168 -0.851947E+02  0.286E-02    2.06       0.0  T
   2    -85.1947169 -0.100474E-06  0.170E-02    2.06       1.0  T
   3    -85.1947169  0.162445E-07  0.118E-03    2.06      11.4  T
   4    -85.1947169 -0.595867E-07  0.568E-04    2.06      23.7  T
   5    -85.1947169 -0.429178E-08  0.281E-04    2.06      48.0  T
     SCC iter.                  ...        0 min,  0.017 sec
     gradient                   ...        0 min,  0.008 sec
 * total energy  :   -84.0651798 Eh     change       -0.1058123E-04 Eh
   gradient norm :     0.0005235 Eh/α   predicted    -0.4499589E-05 ( -57.48%)
   displ. norm   :     0.1460233 α      lambda       -0.6940589E-05
   maximum displ.:     0.0877668 α      in ANC's #1, #2, #3, ...

........................................................................
.............................. CYCLE   53 ..............................
........................................................................

 iter      E             dE          RMSdq      gap      omega  full diag
   1    -85.1948863 -0.851949E+02  0.215E-02    2.06       0.0  T
   2    -85.1948864 -0.626325E-07  0.127E-02    2.06       1.1  T
   3    -85.1948863  0.194648E-07  0.101E-03    2.06      13.4  T
   4    -85.1948864 -0.437576E-07  0.421E-04    2.06      32.0  T
   5    -85.1948864 -0.213011E-08  0.231E-04    2.06      58.4  T
     SCC iter.                  ...        0 min,  0.017 sec
     gradient                   ...        0 min,  0.011 sec
 * total energy  :   -84.0651881 Eh     change       -0.8301239E-05 Eh
   gradient norm :     0.0003432 Eh/α   predicted    -0.3504023E-05 ( -57.79%)
   displ. norm   :     0.1184628 α      lambda       -0.5345153E-05
   maximum displ.:     0.0734673 α      in ANC's #1, #2, #3, ...

........................................................................
.............................. CYCLE   54 ..............................
........................................................................

 iter      E             dE          RMSdq      gap      omega  full diag
   1    -85.1950138 -0.851950E+02  0.158E-02    2.06       0.0  T
   2    -85.1950138 -0.417772E-07  0.933E-03    2.06       1.4  T
   3    -85.1950138  0.607250E-07  0.125E-03    2.06      10.8  T
   4    -85.1950138 -0.774173E-07  0.350E-04    2.06      38.5  T
   5    -85.1950138 -0.249824E-08  0.189E-04    2.06      71.3  T
     SCC iter.                  ...        0 min,  0.017 sec
     gradient                   ...        0 min,  0.007 sec
 * total energy  :   -84.0651947 Eh     change       -0.6549568E-05 Eh
   gradient norm :     0.0004235 Eh/α   predicted    -0.2692480E-05 ( -58.89%)
   displ. norm   :     0.0951817 α      lambda       -0.4437143E-05
   maximum displ.:     0.0609275 α      in ANC's #1, #2, #3, ...

........................................................................
.............................. CYCLE   55 ..............................
........................................................................

 iter      E             dE          RMSdq      gap      omega  full diag
   1    -85.1951274 -0.851951E+02  0.119E-02    2.06       0.0  T
   2    -85.1951274 -0.223493E-07  0.703E-03    2.06       1.9  T
   3    -85.1951274  0.649873E-07  0.122E-03    2.06      11.0  T
   4    -85.1951274 -0.770335E-07  0.262E-04    2.06      51.4  T
   5    -85.1951274 -0.131318E-08  0.140E-04    2.06      96.5  T
     SCC iter.                  ...        0 min,  0.017 sec
     gradient                   ...        0 min,  0.008 sec
 * total energy  :   -84.0652002 Eh     change       -0.5520096E-05 Eh
   gradient norm :     0.0004638 Eh/α   predicted    -0.2228791E-05 ( -59.62%)
   displ. norm   :     0.0879071 α      lambda       -0.4216549E-05
   maximum displ.:     0.0574962 α      in ANC's #1, #2, #3, ...

........................................................................
.............................. CYCLE   56 ..............................
........................................................................

 iter      E             dE          RMSdq      gap      omega  full diag
   1    -85.1951509 -0.851952E+02  0.114E-02    2.06       0.0  T
   2    -85.1951509 -0.181307E-07  0.673E-03    2.06       2.0  T
   3    -85.1951508  0.674011E-07  0.124E-03    2.06      10.9  T
   4    -85.1951509 -0.803453E-07  0.247E-04    2.06      54.7  T
   5    -85.1951509 -0.679421E-09  0.144E-04    2.06      93.7  T
     SCC iter.                  ...        0 min,  0.017 sec
     gradient                   ...        0 min,  0.008 sec
 * total energy  :   -84.0652056 Eh     change       -0.5350508E-05 Eh
   gradient norm :     0.0004137 Eh/α   predicted    -0.2116311E-05 ( -60.45%)
   displ. norm   :     0.0960880 α      lambda       -0.4715177E-05
   maximum displ.:     0.0631383 α      in ANC's #1, #2, #3, ...

........................................................................
.............................. CYCLE   57 ..............................
........................................................................

 iter      E             dE          RMSdq      gap      omega  full diag
   1    -85.1951023 -0.851951E+02  0.141E-02    2.06       0.0  T
   2    -85.1951024 -0.238707E-07  0.837E-03    2.06       1.6  T
   3    -85.1951023  0.621118E-07  0.121E-03    2.06      11.1  T
   4    -85.1951024 -0.793059E-07  0.302E-04    2.06      44.7  T
   5    -85.1951024 -0.310180E-09  0.166E-04    2.06      81.4  T
     SCC iter.                  ...        0 min,  0.017 sec
     gradient                   ...        0 min,  0.008 sec
 * total energy  :   -84.0652117 Eh     change       -0.6110365E-05 Eh
   gradient norm :     0.0004230 Eh/α   predicted    -0.2369052E-05 ( -61.23%)
   displ. norm   :     0.1227292 α      lambda       -0.5942006E-05
   maximum displ.:     0.0802431 α      in ANC's #1, #2, #3, ...

........................................................................
.............................. CYCLE   58 ..............................
........................................................................

 iter      E             dE          RMSdq      gap      omega  full diag
   1    -85.1950263 -0.851950E+02  0.194E-02    2.06       0.0  T
   2    -85.1950264 -0.492000E-07  0.115E-02    2.06       1.2  T
   3    -85.1950263  0.580996E-07  0.130E-03    2.06      10.4  T
   4    -85.1950264 -0.886740E-07  0.444E-04    2.06      30.4  T
   5    -85.1950264 -0.552646E-09  0.249E-04    2.06      54.1  T
     SCC iter.                  ...        0 min,  0.046 sec
     gradient                   ...        0 min,  0.010 sec
 * total energy  :   -84.0652194 Eh     change       -0.7724906E-05 Eh
   gradient norm :     0.0005335 Eh/α   predicted    -0.2992865E-05 ( -61.26%)
   displ. norm   :     0.1567237 α      lambda       -0.7115664E-05
   maximum displ.:     0.1024259 α      in ANC's #1, #2, #3, ...

........................................................................
.............................. CYCLE   59 ..............................
........................................................................

 iter      E             dE          RMSdq      gap      omega  full diag
   1    -85.1948367 -0.851948E+02  0.253E-02    2.06       0.0  T
   2    -85.1948368 -0.899364E-07  0.150E-02    2.06       1.0  T
   3    -85.1948368  0.334723E-07  0.132E-03    2.06      10.2  T
   4    -85.1948368 -0.824859E-07  0.591E-04    2.06      22.8  T
   5    -85.1948368 -0.198997E-08  0.309E-04    2.06      43.6  T
     SCC iter.                  ...        0 min,  0.056 sec
     gradient                   ...        0 min,  0.010 sec
 * total energy  :   -84.0652284 Eh     change       -0.8987073E-05 Eh
   gradient norm :     0.0006366 Eh/α   predicted    -0.3598272E-05 ( -59.96%)
   displ. norm   :     0.1772206 α      lambda       -0.7074255E-05
   maximum displ.:     0.1166051 α      in ANC's #1, #2, #3, ...

........................................................................
.............................. CYCLE   60 ..............................
........................................................................

 iter      E             dE          RMSdq      gap      omega  full diag
   1    -85.1947508 -0.851948E+02  0.286E-02    2.06       0.0  T
   2    -85.1947509 -0.126230E-06  0.170E-02    2.06       1.0  T
   3    -85.1947508  0.309390E-07  0.144E-03    2.06       9.4  T
   4    -85.1947509 -0.990709E-07  0.655E-04    2.06      20.6  T
   5    -85.1947509 -0.220314E-08  0.298E-04    2.06      45.3  T
     SCC iter.                  ...        0 min,  0.025 sec
     gradient                   ...        0 min,  0.009 sec
 * total energy  :   -84.0652370 Eh     change       -0.8573948E-05 Eh
   gradient norm :     0.0005675 Eh/α   predicted    -0.3587182E-05 ( -58.16%)
[...]
          :  -> wf. convergence          0.1000000E-03 e    :
          :  Broyden damping             0.4000000          :
          :  net charge                          0          :
          :  unpaired electrons                  0          :
          ...................................................

 iter      E             dE          RMSdq      gap      omega  full diag
   1    -85.1950615 -0.851951E+02  0.187E-04    2.06       0.0  T
   2    -85.1950615 -0.177309E-09  0.136E-04    2.06      99.2  T
   3    -85.1950615 -0.527024E-09  0.760E-05    2.06     177.5  T

   *** convergence criteria satisfied after 3 iterations ***

         #    Occupation            Energy/Eh            Energy/eV
      -------------------------------------------------------------
         1        2.0000           -0.7100196             -19.3206
       ...           ...                  ...                  ...
        69        2.0000           -0.4062975             -11.0559
        70        2.0000           -0.4044630             -11.0060
        71        2.0000           -0.3967996             -10.7975
        72        2.0000           -0.3932155             -10.6999
        73        2.0000           -0.3925588             -10.6821
        74        2.0000           -0.3610610              -9.8250
        75        2.0000           -0.3578737              -9.7382 (HOMO)
        76                         -0.2820471              -7.6749 (LUMO)
        77                         -0.2205920              -6.0026
        78                         -0.2164474              -5.8898
        79                         -0.2117740              -5.7627
        80                         -0.2067417              -5.6257
       ...                                ...                  ...
       139                          0.7013316              19.0842
      -------------------------------------------------------------
                  HL-Gap            0.0758266 Eh            2.0633 eV
             Fermi-level           -0.3199604 Eh           -8.7066 eV

 SCC (total)                   0 d,  0 h,  0 min,  0.024 sec
 SCC setup                      ...        0 min,  0.001 sec (  4.662%)
 Dispersion                     ...        0 min,  0.000 sec (  1.731%)
 classical contributions        ...        0 min,  0.000 sec (  0.182%)
 integral evaluation            ...        0 min,  0.002 sec (  7.979%)
 iterations                     ...        0 min,  0.012 sec ( 48.987%)
 molecular gradient             ...        0 min,  0.008 sec ( 34.574%)
 printout                       ...        0 min,  0.000 sec (  1.748%)

         :::::::::::::::::::::::::::::::::::::::::::::::::::::
         ::                     SUMMARY                     ::
         :::::::::::::::::::::::::::::::::::::::::::::::::::::
         :: total energy             -84.065264935880 Eh    ::
         :: gradient norm              0.000411453565 Eh/a0 ::
         :: HOMO-LUMO gap              2.063346606148 eV    ::
         ::.................................................::
         :: SCC energy               -85.195032761828 Eh    ::
         :: -> isotropic ES            0.118605514772 Eh    ::
         :: -> anisotropic ES          0.005161700582 Eh    ::
         :: -> anisotropic XC          0.024705944688 Eh    ::
         :: -> dispersion             -0.057748199448 Eh    ::
         :: repulsion energy           1.129767825948 Eh    ::
         :: add. restraining           0.000000000000 Eh    ::
         :: total charge               0.000000000000 e     ::
         :::::::::::::::::::::::::::::::::::::::::::::::::::::

           -------------------------------------------------
          |                Property Printout                |
           -------------------------------------------------

    * Orbital Energies and Occupations

         #    Occupation            Energy/Eh            Energy/eV
      -------------------------------------------------------------
         1        2.0000           -0.7100196             -19.3206
       ...           ...                  ...                  ...
        63        2.0000           -0.4345156             -11.8238
        64        2.0000           -0.4335988             -11.7988
        65        2.0000           -0.4236220             -11.5273
        66        2.0000           -0.4201601             -11.4331
        67        2.0000           -0.4150700             -11.2946
        68        2.0000           -0.4112340             -11.1902
        69        2.0000           -0.4062975             -11.0559
        70        2.0000           -0.4044630             -11.0060
        71        2.0000           -0.3967996             -10.7975
        72        2.0000           -0.3932155             -10.6999
        73        2.0000           -0.3925588             -10.6821
        74        2.0000           -0.3610610              -9.8250
        75        2.0000           -0.3578737              -9.7382 (HOMO)
        76                         -0.2820471              -7.6749 (LUMO)
        77                         -0.2205920              -6.0026
        78                         -0.2164474              -5.8898
        79                         -0.2117740              -5.7627
        80                         -0.2067417              -5.6257
        81                         -0.1486880              -4.0460
        82                         -0.0863606              -2.3500
        83                         -0.0739442              -2.0121
        84                         -0.0329047              -0.8954
        85                          0.0223684               0.6087
        86                          0.0283022               0.7701
       ...                                ...                  ...
       139                          0.7013316              19.0842
      -------------------------------------------------------------
                  HL-Gap            0.0758266 Eh            2.0633 eV
             Fermi-level           -0.3199604 Eh           -8.7066 eV

     #   Z          covCN         q      C6AA      α(0)
     1   8 O        1.656    -0.435    21.547     6.266
     2   6 C        3.672     0.081    19.467     6.324
     3   6 C        3.746    -0.010    20.827     6.510
     4   7 N        2.736    -0.092    23.031     7.128
     5   6 C        3.746    -0.018    20.959     6.530
     6   6 C        3.673     0.072    19.598     6.345
     7   8 O        1.656    -0.433    21.504     6.260
     8   6 C        2.909     0.069    26.455     8.434
     9   6 C        2.920    -0.062    29.539     8.913
    10   6 C        2.922    -0.029    28.723     8.789
    11   6 C        2.968    -0.001    28.053     8.688
    12   6 C        2.908    -0.010    28.270     8.718
    13   6 C        2.892    -0.074    29.839     8.956
    14   6 C        2.820     0.201    23.723     7.981
    15   6 C        3.685     0.243    17.012     5.905
    16   8 O        1.702    -0.305    19.079     5.897
    17   6 C        3.640     0.042    20.217     6.466
    18   8 O        1.699    -0.340    19.699     5.992
    19   6 C        3.638     0.048    20.131     6.454
    20   6 C        2.971     0.002    27.976     8.676
    21   6 C        2.924    -0.024    28.605     8.771
    22   6 C        2.920    -0.029    28.716     8.788
    23   6 C        2.920    -0.029    28.734     8.790
    24   6 C        2.920    -0.029    28.727     8.789
    25   6 C        2.922    -0.026    28.660     8.779
    26   8 O        0.857    -0.379    21.274     6.184
    27   6 C        2.927    -0.030    28.751     8.793
    28   6 C        2.919    -0.063    29.573     8.918
    29   1 H        0.805     0.291     0.749     1.360
    30   1 H        0.923     0.026     2.641     2.542
    31   1 H        0.923     0.024     2.680     2.560
    32   1 H        0.924     0.043     2.403     2.424
    33   1 H        0.924     0.076     2.020     2.223
    34   1 H        0.924     0.038     2.480     2.463
    35   1 H        0.924     0.064     2.154     2.295
    36   1 H        0.924     0.061     2.184     2.311
    37   1 H        0.923     0.019     2.742     2.589
    38   1 H        0.805     0.288     0.758     1.367
    39   1 H        0.926     0.059     2.207     2.323
    40   1 H        0.926     0.039     2.464     2.455
    41   1 H        0.925     0.063     2.166     2.302
    42   1 H        0.926     0.052     2.297     2.370
    43   1 H        0.924     0.047     2.354     2.400
    44   1 H        0.925     0.061     2.187     2.313
    45   1 H        0.924     0.030     2.592     2.518
    46   1 H        0.924     0.032     2.553     2.499
    47   1 H        0.925     0.058     2.219     2.330
    48   1 H        0.924     0.025     2.652     2.547
    49   1 H        0.926     0.056     2.248     2.344
    50   1 H        0.926     0.034     2.525     2.485
    51   1 H        0.926     0.033     2.550     2.497
    52   1 H        0.926     0.034     2.533     2.489
    53   1 H        0.926     0.033     2.542     2.493
    54   1 H        0.926     0.038     2.479     2.462
    55   1 H        0.926     0.035     2.510     2.478

 Mol. C6AA /au·bohr⁶  :      31858.609403
 Mol. C8AA /au·bohr⁸  :     739181.122537
 Mol. α(0) /au        :        276.481662


Wiberg/Mayer (AO) data.
largest (>0.10) Wiberg bond orders for each atom

 ---------------------------------------------------------------------------
     #   Z sym  total        # sym  WBO       # sym  WBO       # sym  WBO
 ---------------------------------------------------------------------------
     1   8 O    1.959 --     2 C    1.000    29 H    0.900
     2   6 C    3.956 --     1 O    1.000     3 C    0.986    31 H    0.970
                            30 H    0.970
     3   6 C    3.978 --     4 N    1.003     2 C    0.986    32 H    0.969
                            33 H    0.962
     4   7 N    3.400 --     8 C    1.170     5 C    1.004     3 C    1.003
     5   6 C    3.978 --     4 N    1.004     6 C    0.976    34 H    0.969
                            35 H    0.965
     6   6 C    3.951 --     7 O    1.006     5 C    0.976    36 H    0.969
                            37 H    0.969
     7   8 O    1.967 --     6 C    1.006    38 H    0.902
     8   6 C    3.956 --    28 C    1.312     9 C    1.307     4 N    1.170
     9   6 C    3.983 --    10 C    1.515     8 C    1.307    39 H    0.959
    10   6 C    3.990 --     9 C    1.515    11 C    1.323    40 H    0.966
    11   6 C    3.984 --    27 C    1.329    10 C    1.323    12 C    1.162
    12   6 C    3.971 --    13 C    1.687    11 C    1.162    41 H    0.958
    13   6 C    3.968 --    12 C    1.687    14 C    1.111    42 H    0.960
    14   6 C    3.916 --    26 O    1.776    13 C    1.111    15 C    0.902
    15   6 C    3.913 --    16 O    0.977    20 C    0.959    18 O    0.934
                            14 C    0.902
    16   8 O    2.100 --    17 C    0.982    15 C    0.977
    17   6 C    3.945 --    16 O    0.982    44 H    0.979    43 H    0.979
                            45 H    0.977
    18   8 O    2.073 --    19 C    0.993    15 C    0.934
    19   6 C    3.951 --    18 O    0.993    47 H    0.979    48 H    0.976
                            46 H    0.976
    20   6 C    3.985 --    25 C    1.418    21 C    1.415    15 C    0.959
                            23 C    0.111
    21   6 C    3.990 --    22 C    1.445    20 C    1.415    49 H    0.966
                            24 C    0.112
    22   6 C    3.992 --    21 C    1.445    23 C    1.438    50 H    0.971
                            25 C    0.111
    23   6 C    3.992 --    24 C    1.441    22 C    1.438    51 H    0.971
                            20 C    0.111
    24   6 C    3.992 --    23 C    1.441    25 C    1.441    52 H    0.971
                            21 C    0.112
    25   6 C    3.992 --    24 C    1.441    20 C    1.418    53 H    0.968
                            22 C    0.111
    26   8 O    2.033 --    14 C    1.776
    27   6 C    3.989 --    28 C    1.506    11 C    1.329    54 H    0.968
    28   6 C    3.982 --    27 C    1.506     8 C    1.312    55 H    0.963
    29   1 H    0.915 --     1 O    0.900
    30   1 H    0.999 --     2 C    0.970
    31   1 H    0.999 --     2 C    0.970
    32   1 H    0.996 --     3 C    0.969
    33   1 H    0.994 --     3 C    0.962
    34   1 H    0.997 --     5 C    0.969
    35   1 H    0.995 --     5 C    0.965
    36   1 H    0.996 --     6 C    0.969
    37   1 H    1.000 --     6 C    0.969
    38   1 H    0.917 --     7 O    0.902
    39   1 H    0.996 --     9 C    0.959
    40   1 H    0.998 --    10 C    0.966
    41   1 H    0.996 --    12 C    0.958
    42   1 H    0.997 --    13 C    0.960
    43   1 H    0.998 --    17 C    0.979
    44   1 H    0.996 --    17 C    0.979
    45   1 H    0.999 --    17 C    0.977
    46   1 H    0.999 --    19 C    0.976
    47   1 H    0.997 --    19 C    0.979
    48   1 H    0.999 --    19 C    0.976
    49   1 H    0.997 --    21 C    0.966
    50   1 H    0.998 --    22 C    0.971
    51   1 H    0.998 --    23 C    0.971
    52   1 H    0.998 --    24 C    0.971
    53   1 H    0.999 --    25 C    0.968
    54   1 H    0.998 --    27 C    0.968
    55   1 H    0.998 --    28 C    0.963
 ---------------------------------------------------------------------------

Topologies differ in total number of bonds
Writing topology from bond orders to xtbtopo.mol

molecular dipole:
                 x           y           z       tot (Debye)
 q only:        3.313      -0.922      -1.141
   full:        3.867      -0.987      -1.457      10.799
molecular quadrupole (traceless):
                xx          xy          yy          xz          yz          zz
 q only:       23.251      11.917     -10.185     -12.290      -7.759     -13.066
  q+dip:       32.440      13.942     -17.512     -19.303      -8.321     -14.928
   full:       29.225      14.703     -13.054     -19.469      -9.835     -16.171

           -------------------------------------------------
          |                Geometry Summary                 |
           -------------------------------------------------

      molecular mass/u    :      385.4543179
   center of mass at/Å    :       -0.3399949       0.2319199       0.0861470
  moments of inertia/u·Å² :        0.1188360E+04   0.9095105E+04   0.9696045E+04
rotational constants/cm⁻¹ :        0.1418562E-01   0.1853484E-02   0.1738609E-02

 * 51 selected distances

     #   Z          #   Z                                           value/Å
     1   8 O        2   6 C                                       1.4084756
     2   6 C        3   6 C                                       1.5395790 (max)
     3   6 C        4   7 N                                       1.4437136
     4   7 N        5   6 C                                       1.4420248
     6   6 C        7   8 O                                       1.4041391
     4   7 N        8   6 C                                       1.3724770
     8   6 C        9   6 C                                       1.4052292
     9   6 C       10   6 C                                       1.3731134
    10   6 C       11   6 C                                       1.4013990
    12   6 C       13   6 C                                       1.3492716
    15   6 C       16   8 O                                       1.4051792
    16   8 O       17   6 C                                       1.4119475
    15   6 C       18   8 O                                       1.4309414
    18   8 O       19   6 C                                       1.4043195
    20   6 C       21   6 C                                       1.3885648
    21   6 C       22   6 C                                       1.3830225
    22   6 C       23   6 C                                       1.3843835
    23   6 C       24   6 C                                       1.3836797
    20   6 C       25   6 C                                       1.3890461
    24   6 C       25   6 C                                       1.3842576
    14   6 C       26   8 O                                       1.2170885
    11   6 C       27   6 C                                       1.4007824
     8   6 C       28   6 C                                       1.4048516
    27   6 C       28   6 C                                       1.3740976
     1   8 O       29   1 H                                       0.9620872 (min)
     2   6 C       30   1 H                                       1.0987508
     2   6 C       31   1 H                                       1.0999068
     3   6 C       32   1 H                                       1.0932478
     3   6 C       33   1 H                                       1.0908772
     5   6 C       34   1 H                                       1.0964955
     5   6 C       35   1 H                                       1.0926863
     6   6 C       36   1 H                                       1.0914721
     6   6 C       37   1 H                                       1.0997453
     7   8 O       38   1 H                                       0.9637931
     9   6 C       39   1 H                                       1.0766669
    10   6 C       40   1 H                                       1.0790138
    12   6 C       41   1 H                                       1.0847984
    13   6 C       42   1 H                                       1.0780557
    17   6 C       43   1 H                                       1.0924001
    17   6 C       44   1 H                                       1.0886830
    17   6 C       45   1 H                                       1.0954820
    19   6 C       46   1 H                                       1.0948422
    19   6 C       47   1 H                                       1.0893283
    19   6 C       48   1 H                                       1.0962227
    21   6 C       49   1 H                                       1.0779158
    22   6 C       50   1 H                                       1.0803503
    23   6 C       51   1 H                                       1.0804342
    24   6 C       52   1 H                                       1.0802684
    25   6 C       53   1 H                                       1.0796410
    27   6 C       54   1 H                                       1.0807726
    28   6 C       55   1 H                                       1.0776131

 * 5 distinct bonds (by element types)

   Z      Z             #   av. dist./Å        max./Å        min./Å
   1 H    6 C          25     1.0878268     1.0999068     1.0766669
   6 C    6 C          14     1.3972341     1.5395790     1.3492716
   6 C    7 N           3     1.4194051     1.4437136     1.3724770
   1 H    8 O           2     0.9629401     0.9637931     0.9620872
   6 C    8 O           7     1.3831558     1.4309414     1.2170885


optimized geometry written to: xtbopt.xyz


           -------------------------------------------------
          | TOTAL ENERGY              -84.065264935880 Eh   |
          | GRADIENT NORM               0.000411453565 Eh/α |
          | HOMO-LUMO GAP               2.063346606148 eV   |
           -------------------------------------------------

------------------------------------------------------------------------
 * finished run on 2025/12/01 at 14:18:05.481     
------------------------------------------------------------------------
 total:
 * wall-time:     0 d,  0 h,  0 min,  2.705 sec
 *  cpu-time:     0 d,  0 h,  1 min,  1.365 sec
 * ratio c/w:    22.688 speedup
 SCF:
 * wall-time:     0 d,  0 h,  0 min,  0.073 sec
 *  cpu-time:     0 d,  0 h,  0 min,  1.656 sec
 * ratio c/w:    22.794 speedup
 ANC optimizer:
 * wall-time:     0 d,  0 h,  0 min,  2.600 sec
 *  cpu-time:     0 d,  0 h,  0 min, 59.305 sec
 * ratio c/w:    22.814 speedup

normal termination of xtb
