      -----------------------------------------------------------      
     |                   =====================                   |     
     |                           x T B                           |     
     |                   =====================                   |     
     |                         S. Grimme                         |     
     |          Mulliken Center for Theoretical Chemistry        |     
     |                    University of Bonn                     |     
      -----------------------------------------------------------      

   * xtb version 6.7.1 (edcfbbe) compiled by 'albert@albert-system' on 2024-07-22

   xtb is free software: you can redistribute it and/or modify it under
   the terms of the GNU Lesser General Public License as published by
   the Free Software Foundation, either version 3 of the License, or
   (at your option) any later version.
   
   xtb is distributed in the hope that it will be useful,
   but WITHOUT ANY WARRANTY; without even the implied warranty of
   MERCHANTABILITY or FITNESS FOR A PARTICULAR PURPOSE.  See the
   GNU Lesser General Public License for more details.
   
   Cite this work as:
   * C. Bannwarth, E. Caldeweyher, S. Ehlert, A. Hansen, P. Pracht,
     J. Seibert, S. Spicher, S. Grimme, WIREs Comput. Mol. Sci., 2020, 11,
     e01493. DOI: 10.1002/wcms.1493
   
   for GFN2-xTB:
   * C. Bannwarth, S. Ehlert and S. Grimme., J. Chem. Theory Comput., 2019,
     15, 1652-1671. DOI: 10.1021/acs.jctc.8b01176
   for GFN1-xTB:
   * S. Grimme, C. Bannwarth, P. Shushkov, J. Chem. Theory Comput., 2017,
     13, 1989-2009. DOI: 10.1021/acs.jctc.7b00118
   for GFN0-xTB:
   * P. Pracht, E. Caldeweyher, S. Ehlert, S. Grimme, ChemRxiv, 2019, preprint.
     DOI: 10.26434/chemrxiv.8326202.v1
   for GFN-FF:
   * S. Spicher and S. Grimme, Angew. Chem. Int. Ed., 2020, 59, 15665-15673.
     DOI: 10.1002/anie.202004239
   
   for ALPB and GBSA implicit solvation:
   * S. Ehlert, M. Stahn, S. Spicher, S. Grimme, J. Chem. Theory Comput.,
     2021, 17, 4250-4261. DOI: 10.1021/acs.jctc.1c00471
   
   for ddCOSMO and CPCM-X implicit solvation:
   * M. Stahn, S. Ehlert, S. Grimme, J. Phys. Chem. A,
     2023, XX, XXXX-XXXX. DOI: 10.1021/acs.jpca.3c04382
   
   for DFT-D4:
   * E. Caldeweyher, C. Bannwarth and S. Grimme, J. Chem. Phys., 2017,
     147, 034112. DOI: 10.1063/1.4993215
   * E. Caldeweyher, S. Ehlert, A. Hansen, H. Neugebauer, S. Spicher,
     C. Bannwarth and S. Grimme, J. Chem. Phys., 2019, 150, 154122.
     DOI: 10.1063/1.5090222
   * E. Caldeweyher, J.-M. Mewes, S. Ehlert and S. Grimme, Phys. Chem. Chem. Phys.
     2020, 22, 8499-8512. DOI: 10.1039/D0CP00502A
   
   for sTDA-xTB:
   * S. Grimme and C. Bannwarth, J. Chem. Phys., 2016, 145, 054103.
     DOI: 10.1063/1.4959605
   
   in the mass-spec context:
   * V. Asgeirsson, C. Bauer and S. Grimme, Chem. Sci., 2017, 8, 4879.
     DOI: 10.1039/c7sc00601b
   * J. Koopman and S. Grimme, ACS Omega 2019, 4, 12, 15120-15133.
     DOI: 10.1021/acsomega.9b02011
   
   for metadynamics refer to:
   * S. Grimme, J. Chem. Theory Comput., 2019, 155, 2847-2862
     DOI: 10.1021/acs.jctc.9b00143
   
   for SPH calculations refer to:
   * S. Spicher and S. Grimme, J. Chem. Theory Comput., 2021, 17, 1701-1714
     DOI: 10.1021/acs.jctc.0c01306
   
   for ONIOM refer to:
   * C. Plett, A. Katbashev, S. Ehlert, S. Grimme, M. Bursch,
     Phys. Chem. Chem. Phys., 2023, 25, 17860-17868. DOI: 10.1039/D3CP02178E
   
   for DIPRO refer to:
   * J. Kohn, N. Gildemeister, S. Grimme, D. Fazzi, A. Hansen,
     J. Chem. Phys., 2023, just accepted.
   
   for PTB refer to:
   * S. Grimme, M. Mueller, A. Hansen, J. Chem. Phys., 2023, 158, 124111.
     DOI: 10.1063/5.0137838
   
   with help from (in alphabetical order)
   P. Atkinson, C. Bannwarth, F. Bohle, G. Brandenburg, E. Caldeweyher
   M. Checinski, S. Dohm, S. Ehlert, S. Ehrlich, I. Gerasimov, C. Hölzer
   A. Katbashev, J. Kohn, J. Koopman, C. Lavigne, S. Lehtola, F. März, M. Müller,
   F. Musil, H. Neugebauer, J. Pisarek, C. Plett, P. Pracht, F. Pultar,
   J. Seibert, P. Shushkov, S. Spicher, M. Stahn, M. Steiner, T. Strunk,
   J. Stückrath, T. Rose, and J. Unsleber
   
 * started run on 2025/12/01 at 14:18:05.503     
   ID    Z sym.   atoms
    1    6 C      1-4, 7-9, 11-23, 25-27, 29, 31-35
    2    8 O      5, 6, 10, 24, 28, 30
    3    1 H      36-71

           -------------------------------------------------
          |                Calculation Setup                |
           -------------------------------------------------

          program call               : xtb pipeline_data/3_conformer_xyz/acrylates/rdkit/OPZLDVPRAIERSE-UHFFFAOYSA-N_conf177.xyz --opt --gfn 2-xTB --iterations 250
          coordinate file            : pipeline_data/3_conformer_xyz/acrylates/rdkit/OPZLDVPRAIERSE-UHFFFAOYSA-N_conf177.xyz
          omp threads                :                    24

########################################################################
[WARNING] Please study the warnings concerning your input carefully
-1- readin_getIntValue: could not parse '2-xTB'
########################################################################

           -------------------------------------------------
          |                 G F N 2 - x T B                 |
           -------------------------------------------------

        Reference                      10.1021/acs.jctc.8b01176
      * Hamiltonian:
        H0-scaling (s, p, d)           1.850000    2.230000    2.230000
        zeta-weighting                 0.500000
      * Dispersion:
        s8                             2.700000
        a1                             0.520000
        a2                             5.000000
        s9                             5.000000
      * Repulsion:
        kExp                           1.500000    1.000000
        rExp                           1.000000
      * Coulomb:
        alpha                          2.000000
        third order                    shell-resolved
        anisotropic                    true
        a3                             3.000000
        a5                             4.000000
        cn-shift                       1.200000
        cn-exp                         4.000000
        max-rad                        5.000000


          ...................................................
          :                      SETUP                      :
          :.................................................:
          :  # basis functions                 176          :
          :  # atomic orbitals                 176          :
          :  # shells                          106          :
          :  # electrons                       188          :
          :  max. iterations                   250          :
          :  Hamiltonian                  GFN2-xTB          :
          :  restarted?                      false          :
          :  GBSA solvation                  false          :
          :  PC potential                    false          :
          :  electronic temp.          300.0000000     K    :
          :  accuracy                    1.0000000          :
          :  -> integral cutoff          0.2500000E+02      :
          :  -> integral neglect         0.1000000E-07      :
          :  -> SCF convergence          0.1000000E-05 Eh   :
          :  -> wf. convergence          0.1000000E-03 e    :
          :  Broyden damping             0.4000000          :
          :  net charge                          0          :
          :  unpaired electrons                  0          :
          ...................................................

 iter      E             dE          RMSdq      gap      omega  full diag
   1   -105.9678141 -0.105968E+03  0.416E+00    2.84       0.0  T
   2   -106.1410821 -0.173268E+00  0.224E+00    2.25       1.0  T
   3   -106.1403369  0.745235E-03  0.118E+00    2.43       1.0  T
   4   -106.1597938 -0.194569E-01  0.253E-01    2.14       1.0  T
   5   -106.1615612 -0.176739E-02  0.109E-01    2.18       1.0  T
   6   -106.1619285 -0.367304E-03  0.588E-02    2.17       1.0  T
   7   -106.1620090 -0.805214E-04  0.258E-02    2.19       1.0  T
   8   -106.1620244 -0.154469E-04  0.993E-03    2.19       1.2  T
   9   -106.1620276 -0.317761E-05  0.308E-03    2.19       3.9  T
  10   -106.1620277 -0.123542E-06  0.113E-03    2.19      10.5  T
  11   -106.1620277 -0.104366E-07  0.599E-04    2.19      19.8  T
  12   -106.1620277 -0.243885E-08  0.292E-04    2.19      40.6  T

   *** convergence criteria satisfied after 12 iterations ***

         #    Occupation            Energy/Eh            Energy/eV
      -------------------------------------------------------------
         1        2.0000           -0.7294932             -19.8505
       ...           ...                  ...                  ...
        88        2.0000           -0.4093506             -11.1390
        89        2.0000           -0.4092509             -11.1363
        90        2.0000           -0.4073199             -11.0837
        91        2.0000           -0.4016732             -10.9301
        92        2.0000           -0.4008178             -10.9068
        93        2.0000           -0.3739542             -10.1758
        94        2.0000           -0.3671976              -9.9920 (HOMO)
        95                         -0.2868507              -7.8056 (LUMO)
        96                         -0.2821362              -7.6773
        97                         -0.2235931              -6.0843
        98                         -0.2198569              -5.9826
        99                         -0.2110908              -5.7441
       ...                                ...                  ...
       176                          0.6877094              18.7135
      -------------------------------------------------------------
                  HL-Gap            0.0803468 Eh            2.1863 eV
             Fermi-level           -0.3270241 Eh           -8.8988 eV

 SCC (total)                   0 d,  0 h,  0 min,  0.088 sec
 SCC setup                      ...        0 min,  0.001 sec (  0.705%)
 Dispersion                     ...        0 min,  0.002 sec (  2.328%)
 classical contributions        ...        0 min,  0.000 sec (  0.387%)
 integral evaluation            ...        0 min,  0.005 sec (  6.049%)
 iterations                     ...        0 min,  0.068 sec ( 77.529%)
 molecular gradient             ...        0 min,  0.011 sec ( 12.305%)
 printout                       ...        0 min,  0.001 sec (  0.642%)

         :::::::::::::::::::::::::::::::::::::::::::::::::::::
         ::                     SUMMARY                     ::
         :::::::::::::::::::::::::::::::::::::::::::::::::::::
         :: total energy            -104.779339445180 Eh    ::
         :: gradient norm              0.219820491466 Eh/a0 ::
         :: HOMO-LUMO gap              2.186348796659 eV    ::
         ::.................................................::
         :: SCC energy              -106.161738469347 Eh    ::
         :: -> isotropic ES            0.133300418497 Eh    ::
         :: -> anisotropic ES          0.008506719222 Eh    ::
         :: -> anisotropic XC          0.038645786114 Eh    ::
         :: -> dispersion             -0.068407984515 Eh    ::
         :: repulsion energy           1.382399024167 Eh    ::
         :: add. restraining           0.000000000000 Eh    ::
         :: total charge               0.000000000000 e     ::
         :::::::::::::::::::::::::::::::::::::::::::::::::::::

      ----------------------------------------------------------- 
     |                   =====================                   |
     |                        A N C O P T                        |
     |                   =====================                   |
     |               Approximate Normal Coordinate               |
     |                Rational Function Optimizer                |
      ----------------------------------------------------------- 
      ----------------------------------------------------------- 
     |                   =====================                   |
     |                        A N C O P T                        |
     |                   =====================                   |
     |               Approximate Normal Coordinate               |
     |                Rational Function Optimizer                |
      ----------------------------------------------------------- 

          ...................................................
          :                      SETUP                      :
          :.................................................:
          :   optimization level            normal          :
          :   max. optcycles                   213          :
          :   ANC micro-cycles                  20          :
          :   degrees of freedom               207          :
          :.................................................:
          :   RF solver                   davidson          :
          :   write xtbopt.log                true          :
          :   linear?                        false          :
          :   energy convergence         0.5000000E-05 Eh   :
          :   grad. convergence          0.1000000E-02 Eh/α :
          :   maxmium RF displ.          1.0000000          :
          :   Hlow (freq-cutoff)         0.1000000E-01      :
          :   Hmax (freq-cutoff)         5.0000000          :
          :   S6 in model hess.         20.0000000          :
          ...................................................

generating ANC from exact Hessian ...
Using Lindh-Hessian (1995)
 Shifting diagonal of input Hessian by   9.968879732068675E-003
 Lowest  eigenvalues of input Hessian
    0.000000    0.000000    0.000000    0.000000    0.000000    0.000000
    0.010000    0.010045    0.010062    0.010093    0.010144    0.010420
    0.010493    0.010725    0.011093    0.011141    0.011595    0.011789
 Highest eigenvalues
    2.028609    2.067559    2.086058    2.098725    2.123564    2.136111
 

........................................................................
.............................. CYCLE    1 ..............................
........................................................................

 iter      E             dE          RMSdq      gap      omega  full diag
   1   -106.1620278 -0.106162E+03  0.117E-04    2.19       0.0  T
   2   -106.1620278 -0.747917E-10  0.855E-05    2.19     138.8  T
   3   -106.1620278 -0.268443E-09  0.496E-05    2.19     239.3  T
     SCC iter.                  ...        0 min,  0.015 sec
     gradient                   ...        0 min,  0.012 sec
 * total energy  :  -104.7793394 Eh     change       -0.3910543E-08 Eh
   gradient norm :     0.2198240 Eh/α   predicted     0.0000000E+00 (-100.00%)
   displ. norm   :     0.4382386 α      lambda       -0.5345079E-01
   maximum displ.:     0.2094853 α      in ANC's #56, #54, #100, ...

........................................................................
.............................. CYCLE    2 ..............................
........................................................................

 iter      E             dE          RMSdq      gap      omega  full diag
   1   -106.2511072 -0.106251E+03  0.257E-01    2.48       0.0  T
   2   -106.2518554 -0.748272E-03  0.160E-01    2.45       1.0  T
   3   -106.2517134  0.142044E-03  0.948E-02    2.44       1.0  T
   4   -106.2519601 -0.246764E-03  0.361E-02    2.43       1.0  T
   5   -106.2520294 -0.692367E-04  0.857E-03    2.43       1.4  T
   6   -106.2520324 -0.301105E-05  0.373E-03    2.43       3.2  T
   7   -106.2520326 -0.209096E-06  0.191E-03    2.43       6.2  T
   8   -106.2520327 -0.111465E-06  0.717E-04    2.43      16.6  T
   9   -106.2520327 -0.955615E-08  0.376E-04    2.43      31.5  T
     SCC iter.                  ...        0 min,  0.041 sec
     gradient                   ...        0 min,  0.011 sec
 * total energy  :  -104.8177041 Eh     change       -0.3836469E-01 Eh
   gradient norm :     0.0939158 Eh/α   predicted    -0.3190940E-01 ( -16.83%)
   displ. norm   :     0.4284275 α      lambda       -0.1940343E-01
   maximum displ.:     0.1983636 α      in ANC's #56, #33, #54, ...

........................................................................
.............................. CYCLE    3 ..............................
........................................................................

 iter      E             dE          RMSdq      gap      omega  full diag
   1   -106.2963945 -0.106296E+03  0.194E-01    2.65       0.0  T
   2   -106.2967741 -0.379590E-03  0.119E-01    2.64       1.0  T
   3   -106.2966930  0.811612E-04  0.642E-02    2.63       1.0  T
   4   -106.2968125 -0.119593E-03  0.243E-02    2.62       1.0  T
   5   -106.2968438 -0.312311E-04  0.668E-03    2.62       1.8  T
   6   -106.2968455 -0.174570E-05  0.266E-03    2.62       4.5  T
   7   -106.2968457 -0.151097E-06  0.128E-03    2.62       9.3  T
   8   -106.2968457 -0.497894E-07  0.471E-04    2.62      25.2  T
   9   -106.2968457 -0.368875E-08  0.230E-04    2.62      51.7  T
     SCC iter.                  ...        0 min,  0.053 sec
     gradient                   ...        0 min,  0.014 sec
 * total energy  :  -104.8294914 Eh     change       -0.1178730E-01 Eh
   gradient norm :     0.0272718 Eh/α   predicted    -0.1148247E-01 (  -2.59%)
   displ. norm   :     0.3762226 α      lambda       -0.4291717E-02
   maximum displ.:     0.1507552 α      in ANC's #33, #15, #56, ...

........................................................................
.............................. CYCLE    4 ..............................
........................................................................

 iter      E             dE          RMSdq      gap      omega  full diag
   1   -106.2917889 -0.106292E+03  0.965E-02    2.64       0.0  T
   2   -106.2918216 -0.326647E-04  0.579E-02    2.64       1.0  T
   3   -106.2918068  0.148144E-04  0.194E-02    2.65       1.0  T
   4   -106.2918228 -0.159891E-04  0.740E-03    2.64       1.6  T
   5   -106.2918259 -0.318530E-05  0.210E-03    2.64       5.6  T
   6   -106.2918261 -0.156045E-06  0.104E-03    2.64      11.4  T
   7   -106.2918261 -0.218384E-07  0.425E-04    2.64      27.9  T
   8   -106.2918261 -0.465988E-08  0.186E-04    2.64      63.9  T
     SCC iter.                  ...        0 min,  0.048 sec
     gradient                   ...        0 min,  0.010 sec
 * total energy  :  -104.8324339 Eh     change       -0.2942456E-02 Eh
   gradient norm :     0.0126815 Eh/α   predicted    -0.2449647E-02 ( -16.75%)
   displ. norm   :     0.3640869 α      lambda       -0.1783843E-02
   maximum displ.:     0.1590188 α      in ANC's #15, #33, #12, ...

........................................................................
.............................. CYCLE    5 ..............................
........................................................................

 iter      E             dE          RMSdq      gap      omega  full diag
   1   -106.2879200 -0.106288E+03  0.699E-02    2.66       0.0  T
   2   -106.2879335 -0.134468E-04  0.412E-02    2.66       1.0  T
   3   -106.2879310  0.245981E-05  0.995E-03    2.67       1.2  T
   4   -106.2879336 -0.260169E-05  0.391E-03    2.67       3.0  T
   5   -106.2879346 -0.996489E-06  0.126E-03    2.67       9.4  T
   6   -106.2879347 -0.528902E-07  0.580E-04    2.67      20.5  T
   7   -106.2879347 -0.337735E-08  0.242E-04    2.67      49.0  T
     SCC iter.                  ...        0 min,  0.041 sec
     gradient                   ...        0 min,  0.014 sec
 * total energy  :  -104.8336507 Eh     change       -0.1216829E-02 Eh
   gradient norm :     0.0081921 Eh/α   predicted    -0.1010154E-02 ( -16.98%)
   displ. norm   :     0.3452117 α      lambda       -0.9258310E-03
   maximum displ.:     0.1779092 α      in ANC's #15, #12, #11, ...

........................................................................
.............................. CYCLE    6 ..............................
........................................................................

 iter      E             dE          RMSdq      gap      omega  full diag
   1   -106.2869859 -0.106287E+03  0.559E-02    2.68       0.0  T
   2   -106.2869901 -0.420222E-05  0.333E-02    2.68       1.0  T
   3   -106.2869828  0.734307E-05  0.105E-02    2.68       1.1  T
   4   -106.2869910 -0.817359E-05  0.272E-03    2.68       4.4  T
   5   -106.2869914 -0.464692E-06  0.882E-04    2.68      13.5  T
   6   -106.2869914 -0.185616E-07  0.494E-04    2.68      24.0  T
     SCC iter.                  ...        0 min,  0.032 sec
     gradient                   ...        0 min,  0.010 sec
 * total energy  :  -104.8343053 Eh     change       -0.6545742E-03 Eh
   gradient norm :     0.0085676 Eh/α   predicted    -0.5180831E-03 ( -20.85%)
   displ. norm   :     0.3920893 α      lambda       -0.7665251E-03
   maximum displ.:     0.2138313 α      in ANC's #15, #12, #11, ...

........................................................................
.............................. CYCLE    7 ..............................
........................................................................

 iter      E             dE          RMSdq      gap      omega  full diag
   1   -106.2881062 -0.106288E+03  0.626E-02    2.69       0.0  T
   2   -106.2881088 -0.252824E-05  0.373E-02    2.69       1.0  T
   3   -106.2880984  0.104263E-04  0.123E-02    2.69       1.0  T
   4   -106.2881101 -0.117275E-04  0.200E-03    2.69       5.9  T
   5   -106.2881102 -0.150582E-06  0.101E-03    2.69      11.8  T
   6   -106.2881103 -0.281795E-07  0.493E-04    2.69      24.1  T
   7   -106.2881103 -0.314685E-08  0.185E-04    2.69      64.0  T
     SCC iter.                  ...        0 min,  0.034 sec
     gradient                   ...        0 min,  0.013 sec
 * total energy  :  -104.8348556 Eh     change       -0.5503495E-03 Eh
   gradient norm :     0.0090218 Eh/α   predicted    -0.4421950E-03 ( -19.65%)
   displ. norm   :     0.4080965 α      lambda       -0.6371122E-03
   maximum displ.:     0.2159572 α      in ANC's #15, #12, #11, ...

........................................................................
.............................. CYCLE    8 ..............................
........................................................................

 iter      E             dE          RMSdq      gap      omega  full diag
   1   -106.2911631 -0.106291E+03  0.629E-02    2.70       0.0  T
   2   -106.2911661 -0.293575E-05  0.372E-02    2.70       1.0  T
   3   -106.2911587  0.733168E-05  0.110E-02    2.69       1.1  T
   4   -106.2911669 -0.819856E-05  0.219E-03    2.70       5.4  T
   5   -106.2911672 -0.238244E-06  0.968E-04    2.70      12.3  T
   6   -106.2911672 -0.226015E-07  0.473E-04    2.70      25.1  T
     SCC iter.                  ...        0 min,  0.027 sec
     gradient                   ...        0 min,  0.010 sec
 * total energy  :  -104.8353194 Eh     change       -0.4637794E-03 Eh
   gradient norm :     0.0072214 Eh/α   predicted    -0.3716422E-03 ( -19.87%)
   displ. norm   :     0.3810946 α      lambda       -0.4545557E-03
   maximum displ.:     0.1971420 α      in ANC's #12, #15, #13, ...

........................................................................
.............................. CYCLE    9 ..............................
........................................................................

 iter      E             dE          RMSdq      gap      omega  full diag
   1   -106.2936066 -0.106294E+03  0.596E-02    2.70       0.0  T
   2   -106.2936096 -0.302056E-05  0.349E-02    2.70       1.0  T
   3   -106.2936074  0.222615E-05  0.695E-03    2.70       1.7  T
   4   -106.2936098 -0.238818E-05  0.241E-03    2.70       4.9  T
   5   -106.2936101 -0.357462E-06  0.786E-04    2.70      15.1  T
   6   -106.2936101 -0.126588E-07  0.377E-04    2.70      31.5  T
     SCC iter.                  ...        0 min,  0.030 sec
     gradient                   ...        0 min,  0.010 sec
 * total energy  :  -104.8356443 Eh     change       -0.3249009E-03 Eh
   gradient norm :     0.0051760 Eh/α   predicted    -0.2602921E-03 ( -19.89%)
   displ. norm   :     0.3458048 α      lambda       -0.2919875E-03
   maximum displ.:     0.1769465 α      in ANC's #12, #15, #13, ...

........................................................................
.............................. CYCLE   10 ..............................
........................................................................

 iter      E             dE          RMSdq      gap      omega  full diag
   1   -106.2942229 -0.106294E+03  0.571E-02    2.71       0.0  T
   2   -106.2942247 -0.171982E-05  0.335E-02    2.70       1.0  T
   3   -106.2942239  0.747860E-06  0.401E-03    2.70       3.0  T
   4   -106.2942248 -0.915293E-06  0.163E-03    2.70       7.3  T
   5   -106.2942250 -0.142668E-06  0.626E-04    2.70      19.0  T
   6   -106.2942250 -0.522319E-08  0.329E-04    2.70      36.0  T
     SCC iter.                  ...        0 min,  0.036 sec
     gradient                   ...        0 min,  0.010 sec
 * total energy  :  -104.8358444 Eh     change       -0.2000272E-03 Eh
   gradient norm :     0.0039310 Eh/α   predicted    -0.1634524E-03 ( -18.28%)
   displ. norm   :     0.3067674 α      lambda       -0.2014750E-03
   maximum displ.:     0.1494473 α      in ANC's #12, #13, #9, ...

........................................................................
.............................. CYCLE   11 ..............................
........................................................................

 iter      E             dE          RMSdq      gap      omega  full diag
   1   -106.2947878 -0.106295E+03  0.562E-02    2.71       0.0  T
   2   -106.2947888 -0.991840E-06  0.330E-02    2.71       1.0  T
   3   -106.2947882  0.568160E-06  0.318E-03    2.71       3.7  T
   4   -106.2947890 -0.780059E-06  0.977E-04    2.71      12.1  T
   5   -106.2947890 -0.409210E-07  0.464E-04    2.71      25.6  T
     SCC iter.                  ...        0 min,  0.031 sec
     gradient                   ...        0 min,  0.010 sec
 * total energy  :  -104.8359756 Eh     change       -0.1312225E-03 Eh
   gradient norm :     0.0044745 Eh/α   predicted    -0.1102186E-03 ( -16.01%)
   displ. norm   :     0.2400987 α      lambda       -0.1467203E-03
   maximum displ.:     0.1087285 α      in ANC's #13, #12, #9, ...

........................................................................
.............................. CYCLE   12 ..............................
........................................................................

 iter      E             dE          RMSdq      gap      omega  full diag
   1   -106.2950301 -0.106295E+03  0.501E-02    2.71       0.0  T
   2   -106.2950309 -0.757814E-06  0.294E-02    2.71       1.0  T
   3   -106.2950302  0.674665E-06  0.333E-03    2.71       3.6  T
   4   -106.2950311 -0.868627E-06  0.808E-04    2.71      14.7  T
   5   -106.2950311 -0.284833E-07  0.416E-04    2.71      28.5  T
     SCC iter.                  ...        0 min,  0.030 sec
     gradient                   ...        0 min,  0.010 sec
 * total energy  :  -104.8360904 Eh     change       -0.1147962E-03 Eh
   gradient norm :     0.0042214 Eh/α   predicted    -0.7759055E-04 ( -32.41%)
   displ. norm   :     0.3083766 α      lambda       -0.1863212E-03
   maximum displ.:     0.1331939 α      in ANC's #9, #10, #13, ...

........................................................................
.............................. CYCLE   13 ..............................
........................................................................

 iter      E             dE          RMSdq      gap      omega  full diag
   1   -106.2949061 -0.106295E+03  0.695E-02    2.71       0.0  T
   2   -106.2949075 -0.141107E-05  0.409E-02    2.71       1.0  T
   3   -106.2949064  0.116194E-05  0.448E-03    2.71       2.7  T
   4   -106.2949079 -0.150885E-05  0.116E-03    2.71      10.2  T
   5   -106.2949079 -0.649923E-07  0.586E-04    2.71      20.3  T
   6   -106.2949079 -0.465330E-08  0.278E-04    2.71      42.7  T
     SCC iter.                  ...        0 min,  0.032 sec
     gradient                   ...        0 min,  0.010 sec
 * total energy  :  -104.8362279 Eh     change       -0.1375110E-03 Eh
   gradient norm :     0.0042877 Eh/α   predicted    -0.1020210E-03 ( -25.81%)
   displ. norm   :     0.2895635 α      lambda       -0.1490710E-03
   maximum displ.:     0.1344741 α      in ANC's #10, #9, #13, ...

........................................................................
.............................. CYCLE   14 ..............................
........................................................................

 iter      E             dE          RMSdq      gap      omega  full diag
   1   -106.2942993 -0.106294E+03  0.654E-02    2.71       0.0  T
   2   -106.2943002 -0.920873E-06  0.385E-02    2.71       1.0  T
   3   -106.2942998  0.465909E-06  0.327E-03    2.71       3.6  T
   4   -106.2943005 -0.705209E-06  0.109E-03    2.71      10.8  T
   5   -106.2943005 -0.444350E-07  0.574E-04    2.71      20.7  T
   6   -106.2943005 -0.273631E-08  0.287E-04    2.71      41.4  T
     SCC iter.                  ...        0 min,  0.047 sec
     gradient                   ...        0 min,  0.013 sec
 * total energy  :  -104.8363413 Eh     change       -0.1133847E-03 Eh
   gradient norm :     0.0045922 Eh/α   predicted    -0.8078749E-04 ( -28.75%)
   displ. norm   :     0.3170658 α      lambda       -0.1594049E-03
   maximum displ.:     0.1549634 α      in ANC's #10, #9, #5, ...

........................................................................
.............................. CYCLE   15 ..............................
........................................................................

 iter      E             dE          RMSdq      gap      omega  full diag
   1   -106.2939566 -0.106294E+03  0.700E-02    2.71       0.0  T
   2   -106.2939573 -0.741914E-06  0.411E-02    2.71       1.0  T
   3   -106.2939571  0.217684E-06  0.289E-03    2.71       4.1  T
   4   -106.2939576 -0.472850E-06  0.115E-03    2.71      10.3  T
   5   -106.2939576 -0.299501E-07  0.622E-04    2.71      19.1  T
   6   -106.2939576 -0.417305E-08  0.299E-04    2.71      39.7  T
     SCC iter.                  ...        0 min,  0.027 sec
     gradient                   ...        0 min,  0.010 sec
 * total energy  :  -104.8364640 Eh     change       -0.1227149E-03 Eh
   gradient norm :     0.0045109 Eh/α   predicted    -0.8772010E-04 ( -28.52%)
   displ. norm   :     0.3625755 α      lambda       -0.1754243E-03
   maximum displ.:     0.1803298 α      in ANC's #10, #9, #5, ...

........................................................................
.............................. CYCLE   16 ..............................
........................................................................

 iter      E             dE          RMSdq      gap      omega  full diag
   1   -106.2934070 -0.106293E+03  0.774E-02    2.71       0.0  T
   2   -106.2934080 -0.934683E-06  0.455E-02    2.71       1.0  T
   3   -106.2934072  0.744275E-06  0.405E-03    2.71       2.9  T
   4   -106.2934083 -0.111821E-05  0.133E-03    2.71       8.9  T
   5   -106.2934084 -0.346207E-07  0.761E-04    2.71      15.6  T
   6   -106.2934084 -0.986478E-08  0.318E-04    2.71      37.3  T
     SCC iter.                  ...        0 min,  0.027 sec
     gradient                   ...        0 min,  0.013 sec
 * total energy  :  -104.8365987 Eh     change       -0.1347274E-03 Eh
   gradient norm :     0.0044508 Eh/α   predicted    -0.9924473E-04 ( -26.34%)
   displ. norm   :     0.3808480 α      lambda       -0.1722349E-03
   maximum displ.:     0.1898001 α      in ANC's #10, #9, #5, ...

........................................................................
.............................. CYCLE   17 ..............................
........................................................................

 iter      E             dE          RMSdq      gap      omega  full diag
   1   -106.2932532 -0.106293E+03  0.780E-02    2.71       0.0  T
   2   -106.2932544 -0.119756E-05  0.460E-02    2.71       1.0  T
   3   -106.2932531  0.135113E-05  0.507E-03    2.71       2.3  T
   4   -106.2932548 -0.179004E-05  0.156E-03    2.71       7.6  T
   5   -106.2932549 -0.728936E-07  0.862E-04    2.71      13.8  T
   6   -106.2932549 -0.791921E-08  0.349E-04    2.71      34.0  T
     SCC iter.                  ...        0 min,  0.036 sec
     gradient                   ...        0 min,  0.010 sec
 * total energy  :  -104.8367292 Eh     change       -0.1304833E-03 Eh
   gradient norm :     0.0044219 Eh/α   predicted    -0.9861038E-04 ( -24.43%)
   displ. norm   :     0.3711399 α      lambda       -0.1510354E-03
   maximum displ.:     0.1809397 α      in ANC's #10, #9, #5, ...

........................................................................
.............................. CYCLE   18 ..............................
........................................................................

 iter      E             dE          RMSdq      gap      omega  full diag
   1   -106.2933713 -0.106293E+03  0.722E-02    2.72       0.0  T
   2   -106.2933724 -0.109168E-05  0.426E-02    2.72       1.0  T
   3   -106.2933713  0.111982E-05  0.483E-03    2.72       2.5  T
   4   -106.2933728 -0.149545E-05  0.160E-03    2.72       7.4  T
   5   -106.2933729 -0.817385E-07  0.838E-04    2.72      14.2  T
   6   -106.2933729 -0.435324E-08  0.323E-04    2.72      36.7  T
     SCC iter.                  ...        0 min,  0.036 sec
     gradient                   ...        0 min,  0.010 sec
 * total energy  :  -104.8368436 Eh     change       -0.1143715E-03 Eh
   gradient norm :     0.0043330 Eh/α   predicted    -0.8592367E-04 ( -24.87%)
   displ. norm   :     0.3548790 α      lambda       -0.1334687E-03
   maximum displ.:     0.1681732 α      in ANC's #10, #9, #5, ...

........................................................................
.............................. CYCLE   19 ..............................
........................................................................

 iter      E             dE          RMSdq      gap      omega  full diag
   1   -106.2939868 -0.106294E+03  0.653E-02    2.73       0.0  T
   2   -106.2939876 -0.804496E-06  0.386E-02    2.72       1.0  T
   3   -106.2939870  0.591859E-06  0.395E-03    2.72       3.0  T
   4   -106.2939879 -0.898090E-06  0.145E-03    2.72       8.2  T
   5   -106.2939879 -0.536917E-07  0.735E-04    2.72      16.2  T
   6   -106.2939879 -0.302877E-08  0.260E-04    2.72      45.7  T
     SCC iter.                  ...        0 min,  0.052 sec
     gradient                   ...        0 min,  0.010 sec
 * total energy  :  -104.8369457 Eh     change       -0.1021876E-03 Eh
   gradient norm :     0.0039993 Eh/α   predicted    -0.7514113E-04 ( -26.47%)
   displ. norm   :     0.3685234 α      lambda       -0.1265866E-03
   maximum displ.:     0.1680891 α      in ANC's #10, #9, #4, ...

........................................................................
.............................. CYCLE   20 ..............................
........................................................................

 iter      E             dE          RMSdq      gap      omega  full diag
   1   -106.2941943 -0.106294E+03  0.643E-02    2.73       0.0  T
   2   -106.2941950 -0.732240E-06  0.381E-02    2.73       1.0  T
   3   -106.2941948  0.227905E-06  0.319E-03    2.73       3.7  T
   4   -106.2941953 -0.517299E-06  0.143E-03    2.73       8.3  T
   5   -106.2941954 -0.429441E-07  0.709E-04    2.73      16.7  T
   6   -106.2941954 -0.750114E-08  0.238E-04    2.73      49.8  T
     SCC iter.                  ...        0 min,  0.026 sec
     gradient                   ...        0 min,  0.016 sec
 * total energy  :  -104.8370423 Eh     change       -0.9653115E-04 Eh
   gradient norm :     0.0036719 Eh/α   predicted    -0.7189213E-04 ( -25.52%)
   displ. norm   :     0.3568948 α      lambda       -0.1235713E-03
   maximum displ.:     0.1566521 α      in ANC's #10, #4, #5, ...
 * RMSD in coord.:     0.5923995 α      energy gain  -0.5770284E-01 Eh

generating ANC from exact Hessian ...
Using Lindh-Hessian (1995)
 Shifting diagonal of input Hessian by   9.963292449028435E-003
 Lowest  eigenvalues of input Hessian
    0.000000    0.000000    0.000000    0.000000    0.000000    0.000000
    0.010000    0.010055    0.010078    0.010112    0.010176    0.010500
    0.010583    0.010711    0.011095    0.011147    0.011607    0.011678
 Highest eigenvalues
    2.011466    2.012892    2.119706    2.122801    2.379741    2.380511
 

........................................................................
.............................. CYCLE   21 ..............................
........................................................................

 iter      E             dE          RMSdq      gap      omega  full diag
   1   -106.2962587 -0.106296E+03  0.587E-02    2.73       0.0  T
   2   -106.2962595 -0.799955E-06  0.348E-02    2.73       1.0  T
   3   -106.2962589  0.582464E-06  0.388E-03    2.73       3.1  T
   4   -106.2962597 -0.863633E-06  0.145E-03    2.73       8.2  T
   5   -106.2962598 -0.528486E-07  0.793E-04    2.73      15.0  T
   6   -106.2962598 -0.103642E-07  0.265E-04    2.73      44.7  T
     SCC iter.                  ...        0 min,  0.026 sec
     gradient                   ...        0 min,  0.008 sec
 * total energy  :  -104.8371306 Eh     change       -0.8835758E-04 Eh
   gradient norm :     0.0038189 Eh/α   predicted     0.0000000E+00 (-100.00%)
   displ. norm   :     0.0456190 α      lambda       -0.5340660E-04
   maximum displ.:     0.0135911 α      in ANC's #22, #18, #8, ...

........................................................................
.............................. CYCLE   22 ..............................
........................................................................

 iter      E             dE          RMSdq      gap      omega  full diag
   1   -106.2959982 -0.106296E+03  0.946E-03    2.73       0.0  T
   2   -106.2959983 -0.118022E-06  0.563E-03    2.73       2.1  T
   3   -106.2959980  0.276698E-06  0.228E-03    2.73       5.2  T
   4   -106.2959984 -0.313301E-06  0.418E-04    2.73      28.4  T
   5   -106.2959984 -0.854703E-08  0.177E-04    2.73      67.0  T
     SCC iter.                  ...        0 min,  0.034 sec
     gradient                   ...        0 min,  0.009 sec
 * total energy  :  -104.8371734 Eh     change       -0.4279586E-04 Eh
   gradient norm :     0.0017786 Eh/α   predicted    -0.2701620E-04 ( -36.87%)
   displ. norm   :     0.1779088 α      lambda       -0.7911727E-04
   maximum displ.:     0.0538851 α      in ANC's #8, #4, #22, ...

........................................................................
.............................. CYCLE   23 ..............................
........................................................................

 iter      E             dE          RMSdq      gap      omega  full diag
   1   -106.2953255 -0.106295E+03  0.284E-02    2.72       0.0  T
   2   -106.2953261 -0.613407E-06  0.169E-02    2.72       1.0  T
   3   -106.2953244  0.164571E-05  0.537E-03    2.72       2.2  T
   4   -106.2953263 -0.186262E-05  0.100E-03    2.72      11.9  T
   5   -106.2953263 -0.440363E-07  0.474E-04    2.72      25.0  T
   6   -106.2953264 -0.611735E-08  0.213E-04    2.72      55.8  T
     SCC iter.                  ...        0 min,  0.027 sec
     gradient                   ...        0 min,  0.019 sec
 * total energy  :  -104.8372279 Eh     change       -0.5451417E-04 Eh
   gradient norm :     0.0034608 Eh/α   predicted    -0.4011551E-04 ( -26.41%)
   displ. norm   :     0.0517844 α      lambda       -0.2849684E-04
   maximum displ.:     0.0196072 α      in ANC's #4, #25, #8, ...

........................................................................
.............................. CYCLE   24 ..............................
........................................................................

 iter      E             dE          RMSdq      gap      omega  full diag
   1   -106.2955679 -0.106296E+03  0.820E-03    2.72       0.0  T
   2   -106.2955679 -0.340070E-07  0.490E-03    2.72       2.4  T
   3   -106.2955678  0.801986E-07  0.116E-03    2.72      10.2  T
   4   -106.2955679 -0.898105E-07  0.248E-04    2.72      47.8  T
   5   -106.2955679 -0.263458E-08  0.114E-04    2.72     104.6  T
     SCC iter.                  ...        0 min,  0.023 sec
     gradient                   ...        0 min,  0.022 sec
 * total energy  :  -104.8372527 Eh     change       -0.2477030E-04 Eh
   gradient norm :     0.0026200 Eh/α   predicted    -0.1428788E-04 ( -42.32%)
   displ. norm   :     0.2608248 α      lambda       -0.1197240E-03
   maximum displ.:     0.0998113 α      in ANC's #4, #25, #8, ...

........................................................................
.............................. CYCLE   25 ..............................
........................................................................

 iter      E             dE          RMSdq      gap      omega  full diag
   1   -106.2959776 -0.106296E+03  0.357E-02    2.73       0.0  T
   2   -106.2959784 -0.817283E-06  0.213E-02    2.73       1.0  T
   3   -106.2959765  0.193377E-05  0.578E-03    2.73       2.1  T
   4   -106.2959786 -0.214030E-05  0.120E-03    2.73       9.9  T
   5   -106.2959787 -0.678682E-07  0.505E-04    2.73      23.5  T
   6   -106.2959787 -0.143642E-08  0.256E-04    2.73      46.4  T
     SCC iter.                  ...        0 min,  0.035 sec
     gradient                   ...        0 min,  0.008 sec
 * total energy  :  -104.8373294 Eh     change       -0.7669786E-04 Eh
   gradient norm :     0.0033198 Eh/α   predicted    -0.6393539E-04 ( -16.64%)
   displ. norm   :     0.1798397 α      lambda       -0.5167987E-04
   maximum displ.:     0.0732885 α      in ANC's #4, #25, #3, ...

........................................................................
.............................. CYCLE   26 ..............................
........................................................................

 iter      E             dE          RMSdq      gap      omega  full diag
   1   -106.2957424 -0.106296E+03  0.240E-02    2.73       0.0  T
   2   -106.2957426 -0.201096E-06  0.143E-02    2.73       1.0  T
   3   -106.2957421  0.479356E-06  0.293E-03    2.73       4.1  T
   4   -106.2957427 -0.539962E-06  0.661E-04    2.73      18.0  T
   5   -106.2957427 -0.168046E-07  0.291E-04    2.73      40.7  T
     SCC iter.                  ...        0 min,  0.048 sec
     gradient                   ...        0 min,  0.012 sec
 * total energy  :  -104.8373705 Eh     change       -0.4113305E-04 Eh
   gradient norm :     0.0044035 Eh/α   predicted    -0.2671705E-04 ( -35.05%)
   displ. norm   :     0.2998475 α      lambda       -0.1062995E-03
   maximum displ.:     0.1286737 α      in ANC's #4, #25, #3, ...

........................................................................
.............................. CYCLE   27 ..............................
........................................................................

 iter      E             dE          RMSdq      gap      omega  full diag
   1   -106.2952684 -0.106295E+03  0.400E-02    2.73       0.0  T
   2   -106.2952688 -0.471671E-06  0.238E-02    2.73       1.0  T
   3   -106.2952676  0.120355E-05  0.466E-03    2.73       2.5  T
   4   -106.2952690 -0.137100E-05  0.107E-03    2.73      11.1  T
   5   -106.2952690 -0.399963E-07  0.491E-04    2.73      24.2  T
   6   -106.2952690 -0.665281E-09  0.196E-04    2.73      60.6  T
     SCC iter.                  ...        0 min,  0.031 sec
     gradient                   ...        0 min,  0.011 sec
 * total energy  :  -104.8374520 Eh     change       -0.8149386E-04 Eh
   gradient norm :     0.0045839 Eh/α   predicted    -0.5792926E-04 ( -28.92%)
   displ. norm   :     0.2914720 α      lambda       -0.1184908E-03
   maximum displ.:     0.1353306 α      in ANC's #4, #25, #3, ...

........................................................................
.............................. CYCLE   28 ..............................
........................................................................

 iter      E             dE          RMSdq      gap      omega  full diag
   1   -106.2951636 -0.106295E+03  0.407E-02    2.73       0.0  T
   2   -106.2951641 -0.484534E-06  0.242E-02    2.73       1.0  T
   3   -106.2951633  0.864594E-06  0.406E-03    2.72       2.9  T
   4   -106.2951643 -0.101236E-05  0.114E-03    2.72      10.4  T
   5   -106.2951643 -0.446826E-07  0.520E-04    2.72      22.8  T
   6   -106.2951643 -0.198810E-08  0.231E-04    2.72      51.4  T
     SCC iter.                  ...        0 min,  0.028 sec
     gradient                   ...        0 min,  0.012 sec
 * total energy  :  -104.8375384 Eh     change       -0.8633293E-04 Eh
   gradient norm :     0.0030834 Eh/α   predicted    -0.6427944E-04 ( -25.54%)
   displ. norm   :     0.3467011 α      lambda       -0.9535701E-04
   maximum displ.:     0.1648380 α      in ANC's #4, #25, #3, ...

........................................................................
.............................. CYCLE   29 ..............................
........................................................................

 iter      E             dE          RMSdq      gap      omega  full diag
   1   -106.2937698 -0.106294E+03  0.474E-02    2.72       0.0  T
   2   -106.2937709 -0.105193E-05  0.282E-02    2.72       1.0  T
   3   -106.2937694  0.144623E-05  0.528E-03    2.72       2.2  T
   4   -106.2937711 -0.161951E-05  0.158E-03    2.72       7.5  T
   5   -106.2937712 -0.116504E-06  0.624E-04    2.72      19.0  T
   6   -106.2937712 -0.248892E-08  0.313E-04    2.72      37.9  T
     SCC iter.                  ...        0 min,  0.026 sec
     gradient                   ...        0 min,  0.012 sec
 * total energy  :  -104.8376037 Eh     change       -0.6536887E-04 Eh
   gradient norm :     0.0045421 Eh/α   predicted    -0.5342042E-04 ( -18.28%)
   displ. norm   :     0.3027330 α      lambda       -0.1593063E-03
   maximum displ.:     0.1588932 α      in ANC's #4, #3, #25, ...

........................................................................
.............................. CYCLE   30 ..............................
........................................................................

 iter      E             dE          RMSdq      gap      omega  full diag
   1   -106.2965307 -0.106297E+03  0.466E-02    2.72       0.0  T
   2   -106.2965321 -0.135169E-05  0.275E-02    2.72       1.0  T
   3   -106.2965313  0.752337E-06  0.437E-03    2.72       2.7  T
   4   -106.2965322 -0.929671E-06  0.166E-03    2.72       7.1  T
   5   -106.2965324 -0.116585E-06  0.701E-04    2.72      16.9  T
   6   -106.2965324 -0.555940E-08  0.359E-04    2.72      33.0  T
     SCC iter.                  ...        0 min,  0.027 sec
     gradient                   ...        0 min,  0.012 sec
 * total energy  :  -104.8376771 Eh     change       -0.7332547E-04 Eh
   gradient norm :     0.0044429 Eh/α   predicted    -0.8700745E-04 (  18.66%)
   displ. norm   :     0.4357318 α      lambda       -0.1308546E-03
   maximum displ.:     0.2198602 α      in ANC's #4, #25, #3, ...

........................................................................
.............................. CYCLE   31 ..............................
........................................................................

 iter      E             dE          RMSdq      gap      omega  full diag
   1   -106.2930317 -0.106293E+03  0.619E-02    2.72       0.0  T
   2   -106.2930351 -0.343796E-05  0.366E-02    2.72       1.0  T
   3   -106.2930341  0.106896E-05  0.556E-03    2.72       2.1  T
   4   -106.2930352 -0.109038E-05  0.274E-03    2.72       4.3  T
   5   -106.2930356 -0.425736E-06  0.890E-04    2.72      13.3  T
   6   -106.2930356 -0.341835E-08  0.398E-04    2.72      29.8  T
     SCC iter.                  ...        0 min,  0.029 sec
     gradient                   ...        0 min,  0.012 sec
 * total energy  :  -104.8377327 Eh     change       -0.5564587E-04 Eh
   gradient norm :     0.0066523 Eh/α   predicted    -0.7786132E-04 (  39.92%)
   displ. norm   :     0.0815950 α      lambda       -0.1050739E-03
   maximum displ.:     0.0364259 α      in ANC's #12, #8, #25, ...

........................................................................
.............................. CYCLE   32 ..............................
........................................................................

 iter      E             dE          RMSdq      gap      omega  full diag
   1   -106.2957488 -0.106296E+03  0.160E-02    2.72       0.0  T
   2   -106.2957496 -0.861079E-06  0.926E-03    2.72       1.3  T
   3   -106.2957495  0.134419E-06  0.270E-03    2.72       4.4  T
   4   -106.2957497 -0.183087E-06  0.875E-04    2.72      13.6  T
   5   -106.2957497 -0.384715E-07  0.328E-04    2.72      36.2  T
     SCC iter.                  ...        0 min,  0.026 sec
     gradient                   ...        0 min,  0.012 sec
 * total energy  :  -104.8378049 Eh     change       -0.7218363E-04 Eh
   gradient norm :     0.0026691 Eh/α   predicted    -0.5288727E-04 ( -26.73%)
   displ. norm   :     0.2835485 α      lambda       -0.1111982E-03
   maximum displ.:     0.1554688 α      in ANC's #4, #3, #25, ...

........................................................................
.............................. CYCLE   33 ..............................
........................................................................

 iter      E             dE          RMSdq      gap      omega  full diag
   1   -106.2968590 -0.106297E+03  0.437E-02    2.72       0.0  T
   2   -106.2968597 -0.625387E-06  0.259E-02    2.72       1.0  T
   3   -106.2968589  0.735115E-06  0.378E-03    2.72       3.1  T
   4   -106.2968598 -0.895683E-06  0.114E-03    2.72      10.4  T
   5   -106.2968599 -0.466574E-07  0.572E-04    2.72      20.7  T
   6   -106.2968599 -0.498129E-08  0.262E-04    2.72      45.2  T
     SCC iter.                  ...        0 min,  0.030 sec
     gradient                   ...        0 min,  0.012 sec
 * total energy  :  -104.8378857 Eh     change       -0.8078963E-04 Eh
   gradient norm :     0.0026328 Eh/α   predicted    -0.6007569E-04 ( -25.64%)
   displ. norm   :     0.3699073 α      lambda       -0.9561708E-04
   maximum displ.:     0.2064691 α      in ANC's #4, #3, #25, ...

........................................................................
.............................. CYCLE   34 ..............................
........................................................................

 iter      E             dE          RMSdq      gap      omega  full diag
   1   -106.2961100 -0.106296E+03  0.573E-02    2.72       0.0  T
   2   -106.2961107 -0.735262E-06  0.339E-02    2.72       1.0  T
   3   -106.2961105  0.219487E-06  0.286E-03    2.72       4.1  T
   4   -106.2961109 -0.388276E-06  0.131E-03    2.72       9.1  T
   5   -106.2961109 -0.578392E-07  0.640E-04    2.72      18.5  T
   6   -106.2961109 -0.340427E-08  0.261E-04    2.72      45.4  T
     SCC iter.                  ...        0 min,  0.042 sec
     gradient                   ...        0 min,  0.015 sec
 * total energy  :  -104.8379591 Eh     change       -0.7336820E-04 Eh
   gradient norm :     0.0038340 Eh/α   predicted    -0.5435068E-04 ( -25.92%)
   displ. norm   :     0.3747892 α      lambda       -0.1138787E-03
   maximum displ.:     0.2081755 α      in ANC's #4, #3, #1, ...

........................................................................
.............................. CYCLE   35 ..............................
........................................................................

 iter      E             dE          RMSdq      gap      omega  full diag
   1   -106.2958220 -0.106296E+03  0.626E-02    2.72       0.0  T
   2   -106.2958227 -0.619484E-06  0.370E-02    2.72       1.0  T
   3   -106.2958226  0.909602E-07  0.258E-03    2.72       4.6  T
   4   -106.2958229 -0.304057E-06  0.117E-03    2.72      10.1  T
   5   -106.2958229 -0.290098E-07  0.634E-04    2.72      18.7  T
   6   -106.2958229 -0.689018E-08  0.214E-04    2.72      55.5  T
     SCC iter.                  ...        0 min,  0.042 sec
     gradient                   ...        0 min,  0.011 sec
 * total energy  :  -104.8380396 Eh     change       -0.8058440E-04 Eh
   gradient norm :     0.0030230 Eh/α   predicted    -0.6494047E-04 ( -19.41%)
   displ. norm   :     0.3706500 α      lambda       -0.7810621E-04
   maximum displ.:     0.2131130 α      in ANC's #4, #3, #1, ...

........................................................................
.............................. CYCLE   36 ..............................
........................................................................

 iter      E             dE          RMSdq      gap      omega  full diag
   1   -106.2941487 -0.106294E+03  0.600E-02    2.72       0.0  T
   2   -106.2941496 -0.922005E-06  0.354E-02    2.72       1.0  T
   3   -106.2941487  0.847781E-06  0.436E-03    2.72       2.7  T
   4   -106.2941498 -0.105626E-05  0.149E-03    2.72       8.0  T
   5   -106.2941499 -0.885131E-07  0.647E-04    2.72      18.3  T
   6   -106.2941499 -0.166882E-08  0.223E-04    2.72      53.1  T
     SCC iter.                  ...        0 min,  0.028 sec
     gradient                   ...        0 min,  0.011 sec
 * total energy  :  -104.8380891 Eh     change       -0.4949802E-04 Eh
   gradient norm :     0.0039273 Eh/α   predicted    -0.4441849E-04 ( -10.26%)
   displ. norm   :     0.2637139 α      lambda       -0.1224540E-03
   maximum displ.:     0.1330683 α      in ANC's #4, #12, #1, ...

........................................................................
.............................. CYCLE   37 ..............................
........................................................................

 iter      E             dE          RMSdq      gap      omega  full diag
   1   -106.2979464 -0.106298E+03  0.511E-02    2.72       0.0  T
   2   -106.2979478 -0.138551E-05  0.300E-02    2.72       1.0  T
   3   -106.2979465  0.130389E-05  0.521E-03    2.72       2.3  T
   4   -106.2979480 -0.149219E-05  0.185E-03    2.72       6.4  T
   5   -106.2979481 -0.164030E-06  0.640E-04    2.72      18.6  T
   6   -106.2979481 -0.181089E-09  0.310E-04    2.72      38.3  T
     SCC iter.                  ...        0 min,  0.027 sec
     gradient                   ...        0 min,  0.011 sec
 * total energy  :  -104.8381184 Eh     change       -0.2925287E-04 Eh
   gradient norm :     0.0044475 Eh/α   predicted    -0.6548933E-04 ( 123.87%)
   displ. norm   :     0.1888758 α      lambda       -0.7294632E-04
   maximum displ.:     0.1099398 α      in ANC's #4, #3, #1, ...

........................................................................
.............................. CYCLE   38 ..............................
........................................................................

 iter      E             dE          RMSdq      gap      omega  full diag
   1   -106.2959971 -0.106296E+03  0.290E-02    2.72       0.0  T
   2   -106.2959978 -0.745151E-06  0.170E-02    2.72       1.0  T
   3   -106.2959978  0.536298E-07  0.194E-03    2.72       6.1  T
   4   -106.2959979 -0.993856E-07  0.930E-04    2.72      12.8  T
   5   -106.2959979 -0.432337E-07  0.428E-04    2.72      27.7  T
     SCC iter.                  ...        0 min,  0.023 sec
     gradient                   ...        0 min,  0.011 sec
 * total energy  :  -104.8381635 Eh     change       -0.4509808E-04 Eh
   gradient norm :     0.0025469 Eh/α   predicted    -0.3777483E-04 ( -16.24%)
   displ. norm   :     0.0934928 α      lambda       -0.3636139E-04
   maximum displ.:     0.0462585 α      in ANC's #4, #14, #3, ...

........................................................................
.............................. CYCLE   39 ..............................
........................................................................

 iter      E             dE          RMSdq      gap      omega  full diag
   1   -106.2961595 -0.106296E+03  0.146E-02    2.72       0.0  T
   2   -106.2961596 -0.119215E-06  0.863E-03    2.72       1.4  T
   3   -106.2961595  0.870424E-07  0.127E-03    2.72       9.3  T
   4   -106.2961596 -0.107754E-06  0.388E-04    2.72      30.6  T
   5   -106.2961596 -0.703184E-08  0.184E-04    2.72      64.4  T
     SCC iter.                  ...        0 min,  0.023 sec
     gradient                   ...        0 min,  0.012 sec
 * total energy  :  -104.8381912 Eh     change       -0.2769393E-04 Eh
   gradient norm :     0.0023793 Eh/α   predicted    -0.1834031E-04 ( -33.77%)
   displ. norm   :     0.1925158 α      lambda       -0.4890573E-04
   maximum displ.:     0.1052757 α      in ANC's #4, #3, #1, ...

........................................................................
.............................. CYCLE   40 ..............................
........................................................................

 iter      E             dE          RMSdq      gap      omega  full diag
   1   -106.2968747 -0.106297E+03  0.302E-02    2.72       0.0  T
   2   -106.2968749 -0.187574E-06  0.178E-02    2.72       1.0  T
   3   -106.2968749  0.295588E-07  0.128E-03    2.72       9.3  T
   4   -106.2968750 -0.948022E-07  0.552E-04    2.72      21.5  T
   5   -106.2968750 -0.564350E-08  0.309E-04    2.72      38.4  T
     SCC iter.                  ...        0 min,  0.024 sec
     gradient                   ...        0 min,  0.015 sec
 * total energy  :  -104.8382263 Eh     change       -0.3509845E-04 Eh
   gradient norm :     0.0026171 Eh/α   predicted    -0.2536045E-04 ( -27.74%)
   displ. norm   :     0.2746810 α      lambda       -0.4407605E-04
   maximum displ.:     0.1581829 α      in ANC's #4, #3, #1, ...

........................................................................
.............................. CYCLE   41 ..............................
........................................................................

 iter      E             dE          RMSdq      gap      omega  full diag
   1   -106.2964459 -0.106296E+03  0.439E-02    2.72       0.0  T
   2   -106.2964462 -0.278251E-06  0.259E-02    2.72       1.0  T
   3   -106.2964462 -0.668949E-07  0.126E-03    2.72       9.4  T
   4   -106.2964463 -0.512791E-07  0.691E-04    2.72      17.2  T
   5   -106.2964463 -0.486688E-08  0.374E-04    2.72      31.7  T
     SCC iter.                  ...        0 min,  0.028 sec
     gradient                   ...        0 min,  0.012 sec
 * total energy  :  -104.8382568 Eh     change       -0.3051824E-04 Eh
   gradient norm :     0.0026311 Eh/α   predicted    -0.2370173E-04 ( -22.34%)
   displ. norm   :     0.2597092 α      lambda       -0.3942343E-04
   maximum displ.:     0.1501299 α      in ANC's #4, #3, #1, ...

........................................................................
.............................. CYCLE   42 ..............................
........................................................................

 iter      E             dE          RMSdq      gap      omega  full diag
   1   -106.2974102 -0.106297E+03  0.398E-02    2.72       0.0  T
   2   -106.2974105 -0.261111E-06  0.234E-02    2.72       1.0  T
   3   -106.2974104  0.829310E-08  0.149E-03    2.72       7.9  T
   4   -106.2974106 -0.113435E-06  0.712E-04    2.72      16.7  T
   5   -106.2974106 -0.823131E-08  0.407E-04    2.72      29.2  T
     SCC iter.                  ...        0 min,  0.024 sec
     gradient                   ...        0 min,  0.011 sec
 * total energy  :  -104.8382833 Eh     change       -0.2648067E-04 Eh
   gradient norm :     0.0021793 Eh/α   predicted    -0.2104232E-04 ( -20.54%)
   displ. norm   :     0.2739562 α      lambda       -0.3766419E-04
   maximum displ.:     0.1646338 α      in ANC's #4, #3, #1, ...
 * RMSD in coord.:     0.5537858 α      energy gain  -0.1241002E-02 Eh

generating ANC from exact Hessian ...
Using Lindh-Hessian (1995)
 Shifting diagonal of input Hessian by   9.963187232909003E-003
 Lowest  eigenvalues of input Hessian
    0.000000    0.000000    0.000000    0.000000    0.000000    0.000000
    0.010000    0.010056    0.010082    0.010105    0.010185    0.010487
    0.010586    0.010698    0.011058    0.011145    0.011608    0.011688
 Highest eigenvalues
    2.010225    2.011866    2.118855    2.122354    2.382044    2.382768
 

........................................................................
.............................. CYCLE   43 ..............................
........................................................................

 iter      E             dE          RMSdq      gap      omega  full diag
   1   -106.2972339 -0.106297E+03  0.418E-02    2.72       0.0  T
   2   -106.2972343 -0.400799E-06  0.246E-02    2.72       1.0  T
   3   -106.2972342  0.141389E-06  0.208E-03    2.72       5.7  T
   4   -106.2972344 -0.263500E-06  0.863E-04    2.72      13.8  T
   5   -106.2972345 -0.220899E-07  0.489E-04    2.72      24.3  T
     SCC iter.                  ...        0 min,  0.022 sec
     gradient                   ...        0 min,  0.011 sec
 * total energy  :  -104.8383062 Eh     change       -0.2296183E-04 Eh
   gradient norm :     0.0017356 Eh/α   predicted     0.0000000E+00 (-100.00%)
   displ. norm   :     0.0377268 α      lambda       -0.2894106E-05
   maximum displ.:     0.0204091 α      in ANC's #14, #15, #10, ...

........................................................................
.............................. CYCLE   44 ..............................
........................................................................

 iter      E             dE          RMSdq      gap      omega  full diag
   1   -106.2978950 -0.106298E+03  0.793E-03    2.72       0.0  T
   2   -106.2978951 -0.939452E-07  0.471E-03    2.72       2.5  T
   3   -106.2978950  0.113672E-06  0.154E-03    2.72       7.7  T
   4   -106.2978951 -0.125343E-06  0.486E-04    2.72      24.4  T
   5   -106.2978951 -0.125102E-07  0.135E-04    2.72      88.1  T
     SCC iter.                  ...        0 min,  0.021 sec
     gradient                   ...        0 min,  0.011 sec
 * total energy  :  -104.8383203 Eh     change       -0.1402294E-04 Eh
   gradient norm :     0.0007484 Eh/α   predicted    -0.6956353E-05 ( -50.39%)
   displ. norm   :     0.0970292 α      lambda       -0.2078793E-04
   maximum displ.:     0.0504295 α      in ANC's #14, #15, #10, ...

........................................................................
.............................. CYCLE   45 ..............................
........................................................................

 iter      E             dE          RMSdq      gap      omega  full diag
   1   -106.2984849 -0.106298E+03  0.154E-02    2.72       0.0  T
   2   -106.2984851 -0.277133E-06  0.911E-03    2.72       1.3  T
   3   -106.2984850  0.148971E-06  0.194E-03    2.72       6.1  T
   4   -106.2984852 -0.166589E-06  0.734E-04    2.72      16.2  T
   5   -106.2984852 -0.292435E-07  0.258E-04    2.72      45.9  T
     SCC iter.                  ...        0 min,  0.022 sec
     gradient                   ...        0 min,  0.011 sec
 * total energy  :  -104.8383364 Eh     change       -0.1611690E-04 Eh
   gradient norm :     0.0020329 Eh/α   predicted    -0.1043786E-04 ( -35.24%)
   displ. norm   :     0.0569880 α      lambda       -0.1412824E-04
   maximum displ.:     0.0269618 α      in ANC's #14, #10, #15, ...

........................................................................
.............................. CYCLE   46 ..............................
........................................................................

 iter      E             dE          RMSdq      gap      omega  full diag
   1   -106.2981417 -0.106298E+03  0.875E-03    2.72       0.0  T
   2   -106.2981418 -0.365972E-07  0.519E-03    2.72       2.3  T
   3   -106.2981417  0.873572E-07  0.126E-03    2.72       9.4  T
   4   -106.2981418 -0.994621E-07  0.272E-04    2.72      43.6  T
   5   -106.2981418 -0.264218E-08  0.126E-04    2.72      94.3  T
     SCC iter.                  ...        0 min,  0.022 sec
     gradient                   ...        0 min,  0.011 sec
 * total energy  :  -104.8383468 Eh     change       -0.1044167E-04 Eh
   gradient norm :     0.0015336 Eh/α   predicted    -0.7091048E-05 ( -32.09%)
   displ. norm   :     0.1192879 α      lambda       -0.1351203E-04
   maximum displ.:     0.0477051 α      in ANC's #14, #10, #4, ...

........................................................................
.............................. CYCLE   47 ..............................
........................................................................

 iter      E             dE          RMSdq      gap      omega  full diag
   1   -106.2974550 -0.106297E+03  0.179E-02    2.72       0.0  T
   2   -106.2974551 -0.119104E-06  0.106E-02    2.72       1.1  T
   3   -106.2974547  0.443303E-06  0.279E-03    2.72       4.2  T
   4   -106.2974552 -0.505540E-06  0.530E-04    2.72      22.4  T
   5   -106.2974552 -0.826083E-08  0.266E-04    2.72      44.6  T
     SCC iter.                  ...        0 min,  0.026 sec
     gradient                   ...        0 min,  0.011 sec
 * total energy  :  -104.8383574 Eh     change       -0.1056440E-04 Eh
   gradient norm :     0.0009601 Eh/α   predicted    -0.6811493E-05 ( -35.52%)
   displ. norm   :     0.0434033 α      lambda       -0.5838312E-05
   maximum displ.:     0.0171371 α      in ANC's #10, #4, #3, ...

........................................................................
.............................. CYCLE   48 ..............................
........................................................................

 iter      E             dE          RMSdq      gap      omega  full diag
   1   -106.2975484 -0.106298E+03  0.814E-03    2.72       0.0  T
   2   -106.2975485 -0.427706E-07  0.481E-03    2.72       2.5  T
   3   -106.2975484  0.528253E-07  0.102E-03    2.72      11.6  T
   4   -106.2975485 -0.618491E-07  0.340E-04    2.72      34.9  T
   5   -106.2975485 -0.499872E-08  0.144E-04    2.72      82.6  T
     SCC iter.                  ...        0 min,  0.023 sec
     gradient                   ...        0 min,  0.010 sec
 * total energy  :  -104.8383645 Eh     change       -0.7093104E-05 Eh
   gradient norm :     0.0007659 Eh/α   predicted    -0.2933840E-05 ( -58.64%)
   displ. norm   :     0.1400157 α      lambda       -0.1563913E-04
   maximum displ.:     0.0528703 α      in ANC's #10, #4, #3, ...

........................................................................
.............................. CYCLE   49 ..............................
........................................................................

 iter      E             dE          RMSdq      gap      omega  full diag
   1   -106.2976224 -0.106298E+03  0.235E-02    2.72       0.0  T
   2   -106.2976227 -0.338479E-06  0.138E-02    2.72       1.0  T
   3   -106.2976222  0.501297E-06  0.315E-03    2.72       3.8  T
   4   -106.2976228 -0.595243E-06  0.969E-04    2.72      12.3  T
   5   -106.2976228 -0.372993E-07  0.431E-04    2.72      27.5  T
     SCC iter.                  ...        0 min,  0.028 sec
     gradient                   ...        0 min,  0.019 sec
 * total energy  :  -104.8383795 Eh     change       -0.1496832E-04 Eh
   gradient norm :     0.0016542 Eh/α   predicted    -0.7895570E-05 ( -47.25%)
   displ. norm   :     0.1601166 α      lambda       -0.1250829E-04
   maximum displ.:     0.0626536 α      in ANC's #10, #4, #3, ...

........................................................................
.............................. CYCLE   50 ..............................
........................................................................

 iter      E             dE          RMSdq      gap      omega  full diag
   1   -106.2973722 -0.106297E+03  0.268E-02    2.72       0.0  T
   2   -106.2973724 -0.226567E-06  0.158E-02    2.72       1.0  T
   3   -106.2973720  0.355868E-06  0.272E-03    2.71       4.4  T
   4   -106.2973725 -0.466650E-06  0.825E-04    2.71      14.4  T
   5   -106.2973725 -0.134833E-07  0.451E-04    2.72      26.3  T
     SCC iter.                  ...        0 min,  0.023 sec
     gradient                   ...        0 min,  0.011 sec
 * total energy  :  -104.8383936 Eh     change       -0.1412010E-04 Eh
   gradient norm :     0.0019576 Eh/α   predicted    -0.6327650E-05 ( -55.19%)
   displ. norm   :     0.2383133 α      lambda       -0.1829335E-04
   maximum displ.:     0.0954286 α      in ANC's #4, #10, #3, ...

........................................................................
.............................. CYCLE   51 ..............................
........................................................................

 iter      E             dE          RMSdq      gap      omega  full diag
   1   -106.2972713 -0.106297E+03  0.381E-02    2.72       0.0  T
   2   -106.2972717 -0.441883E-06  0.224E-02    2.72       1.0  T
   3   -106.2972715  0.172895E-06  0.260E-03    2.71       4.6  T
   4   -106.2972719 -0.365306E-06  0.113E-03    2.71      10.5  T
   5   -106.2972719 -0.228366E-07  0.619E-04    2.71      19.2  T
   6   -106.2972719 -0.533051E-08  0.196E-04    2.71      60.7  T
     SCC iter.                  ...        0 min,  0.036 sec
     gradient                   ...        0 min,  0.010 sec
 * total energy  :  -104.8384149 Eh     change       -0.2128219E-04 Eh
   gradient norm :     0.0019636 Eh/α   predicted    -0.9380123E-05 ( -55.93%)
   displ. norm   :     0.2750409 α      lambda       -0.2184353E-04
   maximum displ.:     0.1144161 α      in ANC's #4, #10, #3, ...

........................................................................
.............................. CYCLE   52 ..............................
........................................................................

 iter      E             dE          RMSdq      gap      omega  full diag
   1   -106.2971898 -0.106297E+03  0.436E-02    2.72       0.0  T
   2   -106.2971904 -0.651551E-06  0.256E-02    2.72       1.0  T
   3   -106.2971903  0.934085E-07  0.263E-03    2.72       4.5  T
   4   -106.2971906 -0.332057E-06  0.130E-03    2.72       9.1  T
   5   -106.2971907 -0.395951E-07  0.698E-04    2.72      17.0  T
   6   -106.2971907 -0.485014E-08  0.270E-04    2.72      44.0  T
     SCC iter.                  ...        0 min,  0.026 sec
     gradient                   ...        0 min,  0.010 sec
 * total energy  :  -104.8384382 Eh     change       -0.2333312E-04 Eh
   gradient norm :     0.0017082 Eh/α   predicted    -0.1129163E-04 ( -51.61%)
   displ. norm   :     0.1865444 α      lambda       -0.1545254E-04
   maximum displ.:     0.0812592 α      in ANC's #4, #10, #3, ...

........................................................................
.............................. CYCLE   53 ..............................
........................................................................

 iter      E             dE          RMSdq      gap      omega  full diag
   1   -106.2976719 -0.106298E+03  0.290E-02    2.72       0.0  T
   2   -106.2976724 -0.470436E-06  0.171E-02    2.72       1.0  T
   3   -106.2976723  0.115868E-06  0.212E-03    2.72       5.6  T
   4   -106.2976725 -0.241481E-06  0.867E-04    2.72      13.7  T
   5   -106.2976725 -0.177278E-07  0.524E-04    2.72      22.7  T
     SCC iter.                  ...        0 min,  0.023 sec
     gradient                   ...        0 min,  0.010 sec
 * total energy  :  -104.8384550 Eh     change       -0.1680091E-04 Eh
   gradient norm :     0.0010473 Eh/α   predicted    -0.7847582E-05 ( -53.29%)
   displ. norm   :     0.2759961 α      lambda       -0.1404630E-04
   maximum displ.:     0.1226346 α      in ANC's #4, #10, #3, ...

........................................................................
.............................. CYCLE   54 ..............................
........................................................................

 iter      E             dE          RMSdq      gap      omega  full diag
   1   -106.2967844 -0.106297E+03  0.430E-02    2.72       0.0  T
   2   -106.2967851 -0.697964E-06  0.253E-02    2.72       1.0  T
   3   -106.2967847  0.329306E-06  0.315E-03    2.72       3.8  T
   4   -106.2967853 -0.617266E-06  0.131E-03    2.72       9.1  T
   5   -106.2967854 -0.294661E-07  0.758E-04    2.72      15.7  T
   6   -106.2967854 -0.893570E-08  0.281E-04    2.72      42.3  T
     SCC iter.                  ...        0 min,  0.027 sec
     gradient                   ...        0 min,  0.012 sec
 * total energy  :  -104.8384670 Eh     change       -0.1197493E-04 Eh
   gradient norm :     0.0023703 Eh/α   predicted    -0.7261394E-05 ( -39.36%)
   displ. norm   :     0.1011556 α      lambda       -0.1884768E-04
   maximum displ.:     0.0431723 α      in ANC's #4, #3, #5, ...

........................................................................
.............................. CYCLE   55 ..............................
........................................................................

 iter      E             dE          RMSdq      gap      omega  full diag
   1   -106.2978265 -0.106298E+03  0.148E-02    2.72       0.0  T
   2   -106.2978269 -0.420252E-06  0.876E-03    2.72       1.4  T
   3   -106.2978267  0.166316E-06  0.232E-03    2.72       5.1  T
   4   -106.2978270 -0.239657E-06  0.588E-04    2.72      20.2  T
   5   -106.2978270 -0.128030E-07  0.323E-04    2.72      36.7  T
     SCC iter.                  ...        0 min,  0.029 sec
     gradient                   ...        0 min,  0.012 sec
 * total energy  :  -104.8384792 Eh     change       -0.1219907E-04 Eh
   gradient norm :     0.0011185 Eh/α   predicted    -0.9524964E-05 ( -21.92%)
   displ. norm   :     0.1905977 α      lambda       -0.1017802E-04
   maximum displ.:     0.0892930 α      in ANC's #4, #3, #5, ...

........................................................................
.............................. CYCLE   56 ..............................
........................................................................

 iter      E             dE          RMSdq      gap      omega  full diag
   1   -106.2981026 -0.106298E+03  0.279E-02    2.72       0.0  T
   2   -106.2981028 -0.223638E-06  0.164E-02    2.72       1.0  T
   3   -106.2981027  0.931001E-07  0.177E-03    2.72       6.7  T
   4   -106.2981030 -0.218297E-06  0.762E-04    2.72      15.6  T
   5   -106.2981030 -0.428241E-08  0.386E-04    2.72      30.7  T
     SCC iter.                  ...        0 min,  0.028 sec
     gradient                   ...        0 min,  0.024 sec
 * total energy  :  -104.8384902 Eh     change       -0.1106287E-04 Eh
   gradient norm :     0.0009367 Eh/α   predicted    -0.5173424E-05 ( -53.24%)
   displ. norm   :     0.1694385 α      lambda       -0.1005927E-04
   maximum displ.:     0.0808289 α      in ANC's #4, #3, #5, ...

........................................................................
.............................. CYCLE   57 ..............................
........................................................................

 iter      E             dE          RMSdq      gap      omega  full diag
   1   -106.2980271 -0.106298E+03  0.249E-02    2.72       0.0  T
   2   -106.2980274 -0.228167E-06  0.147E-02    2.72       1.0  T
   3   -106.2980273  0.638885E-07  0.163E-03    2.72       7.3  T
   4   -106.2980275 -0.165001E-06  0.692E-04    2.72      17.1  T
   5   -106.2980275 -0.593239E-08  0.378E-04    2.72      31.4  T
     SCC iter.                  ...        0 min,  0.043 sec
     gradient                   ...        0 min,  0.015 sec
 * total energy  :  -104.8385010 Eh     change       -0.1074437E-04 Eh
   gradient norm :     0.0007409 Eh/α   predicted    -0.5095520E-05 ( -52.57%)
   displ. norm   :     0.1152709 α      lambda       -0.7972582E-05
   maximum displ.:     0.0528149 α      in ANC's #4, #5, #3, ...

........................................................................
.............................. CYCLE   58 ..............................
........................................................................

 iter      E             dE          RMSdq      gap      omega  full diag
   1   -106.2982286 -0.106298E+03  0.168E-02    2.72       0.0  T
   2   -106.2982286 -0.720264E-07  0.992E-03    2.72       1.2  T
   3   -106.2982286 -0.161799E-08  0.840E-04    2.72      14.1  T
   4   -106.2982287 -0.346870E-07  0.426E-04    2.72      27.9  T
     SCC iter.                  ...        0 min,  0.030 sec
     gradient                   ...        0 min,  0.010 sec
 * total energy  :  -104.8385076 Eh     change       -0.6639528E-05 Eh
   gradient norm :     0.0008954 Eh/α   predicted    -0.4012309E-05 ( -39.57%)
   displ. norm   :     0.0811982 α      lambda       -0.3918750E-05
   maximum displ.:     0.0399005 α      in ANC's #4, #5, #3, ...

........................................................................
.............................. CYCLE   59 ..............................
........................................................................

 iter      E             dE          RMSdq      gap      omega  full diag
   1   -106.2980779 -0.106298E+03  0.118E-02    2.72       0.0  T
   2   -106.2980779 -0.674536E-07  0.693E-03    2.72       1.7  T
   3   -106.2980779  0.448310E-07  0.115E-03    2.72      10.4  T
   4   -106.2980780 -0.688751E-07  0.398E-04    2.72      29.8  T
   5   -106.2980780 -0.395968E-08  0.232E-04    2.72      51.1  T
     SCC iter.                  ...        0 min,  0.023 sec
     gradient                   ...        0 min,  0.012 sec
 * total energy  :  -104.8385118 Eh     change       -0.4183280E-05 Eh
   gradient norm :     0.0007103 Eh/α   predicted    -0.1969336E-05 ( -52.92%)
   displ. norm   :     0.0704040 α      lambda       -0.3802131E-05
   maximum displ.:     0.0338088 α      in ANC's #4, #5, #3, ...

   *** GEOMETRY OPTIMIZATION CONVERGED AFTER 59 ITERATIONS ***

------------------------------------------------------------------------
 total energy gain   :        -0.0591723 Eh      -37.1312 kcal/mol
 total RMSD          :         1.0950808 a0        0.5795 Å
 total power (kW/mol):        -2.6331691 (step)  -51.9822 (real)
------------------------------------------------------------------------

 ANCopt (total)                0 d,  0 h,  0 min,  2.989 sec
 optimizer setup                ...        0 min,  0.000 sec (  0.006%)
 model hessian                  ...        0 min,  0.112 sec (  3.748%)
 ANC generation                 ...        0 min,  0.011 sec (  0.374%)
 coordinate transformation      ...        0 min,  0.004 sec (  0.135%)
 single point calculation       ...        0 min,  2.774 sec ( 92.831%)
 optimization log               ...        0 min,  0.038 sec (  1.277%)
 hessian update                 ...        0 min,  0.023 sec (  0.761%)
 rational function              ...        0 min,  0.016 sec (  0.534%)

================
 final structure:
================
71
 xtb: 6.7.1 (edcfbbe)
C          -11.57652330785683        1.60371870436429       -0.65516368604411
[...]
         :: add. restraining           0.000000000000 Eh    ::
         :: total charge               0.000000000000 e     ::
         :::::::::::::::::::::::::::::::::::::::::::::::::::::

           -------------------------------------------------
          |                Property Printout                |
           -------------------------------------------------

    * Orbital Energies and Occupations

         #    Occupation            Energy/Eh            Energy/eV
      -------------------------------------------------------------
         1        2.0000           -0.7394259             -20.1208
       ...           ...                  ...                  ...
        82        2.0000           -0.4349489             -11.8356
        83        2.0000           -0.4266397             -11.6095
        84        2.0000           -0.4202607             -11.4359
        85        2.0000           -0.4173320             -11.3562
        86        2.0000           -0.4161715             -11.3246
        87        2.0000           -0.4139348             -11.2637
        88        2.0000           -0.4097155             -11.1489
        89        2.0000           -0.4089403             -11.1278
        90        2.0000           -0.4076561             -11.0929
        91        2.0000           -0.4014767             -10.9247
        92        2.0000           -0.4001095             -10.8875
        93        2.0000           -0.3751496             -10.2083
        94        2.0000           -0.3684973             -10.0273 (HOMO)
        95                         -0.2685711              -7.3082 (LUMO)
        96                         -0.2675472              -7.2803
        97                         -0.2202535              -5.9934
        98                         -0.2174645              -5.9175
        99                         -0.2109210              -5.7395
       100                         -0.2068719              -5.6293
       101                         -0.1607892              -4.3753
       102                         -0.1600660              -4.3556
       103                         -0.0869285              -2.3654
       104                         -0.0859959              -2.3401
       105                         -0.0043541              -0.1185
       ...                                ...                  ...
       176                          0.7015780              19.0909
      -------------------------------------------------------------
                  HL-Gap            0.0999262 Eh            2.7191 eV
             Fermi-level           -0.3185342 Eh           -8.6678 eV

     #   Z          covCN         q      C6AA      α(0)
     1   6 C        3.759    -0.111    22.663     6.787
     2   6 C        2.937    -0.007    28.199     8.709
     3   6 C        2.844    -0.083    30.060     8.985
     4   6 C        2.731     0.350    21.061     7.513
     5   8 O        0.856    -0.413    21.951     6.282
     6   8 O        1.704    -0.269    18.453     5.800
     7   6 C        3.708     0.083    19.328     6.284
     8   6 C        3.801    -0.071    21.855     6.656
     9   6 C        3.694     0.082    19.375     6.297
    10   8 O        1.706    -0.280    18.655     5.831
    11   6 C        2.864     0.138    24.977     8.192
    12   6 C        2.920    -0.057    29.411     8.893
    13   6 C        2.924    -0.039    28.968     8.826
    14   6 C        2.978     0.001    28.004     8.680
    15   6 C        2.929    -0.036    28.899     8.816
    16   6 C        2.916    -0.068    29.706     8.938
    17   6 C        3.909     0.018    20.213     6.390
    18   6 C        3.762    -0.104    22.531     6.766
    19   6 C        3.763    -0.104    22.529     6.766
    20   6 C        2.978     0.000    28.021     8.683
    21   6 C        2.924    -0.039    28.971     8.827
    22   6 C        2.920    -0.057    29.425     8.895
    23   6 C        2.864     0.139    24.965     8.190
    24   8 O        1.706    -0.279    18.633     5.828
    25   6 C        3.694     0.085    19.332     6.290
    26   6 C        3.801    -0.070    21.837     6.653
    27   6 C        3.707     0.082    19.355     6.289
    28   8 O        1.704    -0.268    18.445     5.799
    29   6 C        2.730     0.350    21.059     7.513
    30   8 O        0.856    -0.414    21.957     6.282
    31   6 C        2.937    -0.007    28.196     8.709
    32   6 C        3.759    -0.110    22.661     6.786
    33   6 C        2.844    -0.083    30.056     8.985
    34   6 C        2.916    -0.069    29.709     8.938
    35   6 C        2.929    -0.037    28.911     8.818
    36   1 H        0.925     0.067     2.120     2.277
    37   1 H        0.925     0.065     2.147     2.291
    38   1 H        0.925     0.050     2.314     2.379
    39   1 H        0.926     0.055     2.253     2.347
    40   1 H        0.926     0.062     2.180     2.309
    41   1 H        0.924     0.069     2.099     2.266
    42   1 H        0.924     0.049     2.327     2.385
    43   1 H        0.924     0.070     2.087     2.259
    44   1 H        0.924     0.056     2.249     2.345
    45   1 H        0.923     0.032     2.562     2.503
    46   1 H        0.923     0.035     2.512     2.479
    47   1 H        0.926     0.045     2.377     2.411
    48   1 H        0.926     0.042     2.420     2.433
    49   1 H        0.926     0.032     2.557     2.501
    50   1 H        0.926     0.028     2.616     2.529
    51   1 H        0.925     0.037     2.488     2.467
    52   1 H        0.925     0.038     2.472     2.459
    53   1 H        0.925     0.040     2.444     2.445
    54   1 H        0.925     0.038     2.476     2.461
    55   1 H        0.925     0.040     2.443     2.444
    56   1 H        0.925     0.037     2.489     2.467
    57   1 H        0.926     0.041     2.432     2.439
    58   1 H        0.926     0.045     2.389     2.417
    59   1 H        0.923     0.031     2.578     2.511
    60   1 H        0.923     0.041     2.439     2.442
    61   1 H        0.924     0.058     2.218     2.329
    62   1 H        0.925     0.064     2.147     2.292
    63   1 H        0.924     0.052     2.301     2.372
    64   1 H        0.924     0.070     2.090     2.261
    65   1 H        0.925     0.050     2.315     2.379
    66   1 H        0.925     0.066     2.133     2.284
    67   1 H        0.925     0.066     2.129     2.282
    68   1 H        0.926     0.059     2.208     2.324
    69   1 H        0.926     0.055     2.257     2.349
    70   1 H        0.926     0.028     2.617     2.530
    71   1 H        0.926     0.031     2.570     2.507

 Mol. C6AA /au·bohr⁶  :      51186.729797
 Mol. C8AA /au·bohr⁸  :    1185520.490324
 Mol. α(0) /au        :        349.071209


Wiberg/Mayer (AO) data.
largest (>0.10) Wiberg bond orders for each atom

 ---------------------------------------------------------------------------
     #   Z sym  total        # sym  WBO       # sym  WBO       # sym  WBO
 ---------------------------------------------------------------------------
     1   6 C    3.994 --     2 C    1.030    38 H    0.985    36 H    0.967
                            37 H    0.966
     2   6 C    3.986 --     3 C    1.878     1 C    1.030     4 C    0.993
     3   6 C    3.989 --     2 C    1.878    39 H    0.974    40 H    0.973
     4   6 C    3.916 --     5 O    1.729     6 O    1.119     2 C    0.993
     5   8 O    2.031 --     4 C    1.729     6 O    0.171
     6   8 O    2.300 --     4 C    1.119     7 C    0.943     5 O    0.171
     7   6 C    3.928 --     8 C    1.006    42 H    0.967    41 H    0.965
                             6 O    0.943
     8   6 C    3.992 --     7 C    1.006     9 C    1.002    44 H    0.974
                            43 H    0.973
     9   6 C    3.954 --     8 C    1.002    10 O    0.976    45 H    0.967
                            46 H    0.967
    10   8 O    2.216 --    11 C    1.047     9 C    0.976
    11   6 C    3.930 --    16 C    1.373    12 C    1.357    10 O    1.047
    12   6 C    3.987 --    13 C    1.462    11 C    1.357    47 H    0.968
                            15 C    0.111
    13   6 C    3.990 --    12 C    1.462    14 C    1.402    48 H    0.966
                            16 C    0.101
    14   6 C    3.986 --    15 C    1.411    13 C    1.402    17 C    0.978
    15   6 C    3.992 --    16 C    1.446    14 C    1.411    49 H    0.968
                            12 C    0.111
    16   6 C    3.988 --    15 C    1.446    11 C    1.373    50 H    0.967
                            13 C    0.101
    17   6 C    3.991 --    18 C    0.985    19 C    0.985    14 C    0.978
                            20 C    0.977
    18   6 C    3.995 --    51 H    0.985    17 C    0.985    52 H    0.985
                            53 H    0.982
    19   6 C    3.995 --    56 H    0.985    17 C    0.985    54 H    0.985
                            55 H    0.982
    20   6 C    3.986 --    35 C    1.411    21 C    1.402    17 C    0.977
    21   6 C    3.990 --    22 C    1.462    20 C    1.402    57 H    0.966
                            34 C    0.101
    22   6 C    3.987 --    21 C    1.462    23 C    1.356    58 H    0.968
                            35 C    0.110
    23   6 C    3.931 --    34 C    1.372    22 C    1.356    24 O    1.052
    24   8 O    2.220 --    23 C    1.052    25 C    0.974
    25   6 C    3.953 --    26 C    1.003    24 O    0.974    59 H    0.967
                            60 H    0.966
    26   6 C    3.994 --    27 C    1.008    25 C    1.003    61 H    0.974
                            62 H    0.972
    27   6 C    3.929 --    26 C    1.008    63 H    0.967    64 H    0.965
                            28 O    0.942
    28   8 O    2.301 --    29 C    1.121    27 C    0.942    30 O    0.171
    29   6 C    3.917 --    30 O    1.729    28 O    1.121    31 C    0.992
    30   8 O    2.031 --    29 C    1.729    28 O    0.171
    31   6 C    3.986 --    33 C    1.879    32 C    1.030    29 C    0.992
    32   6 C    3.994 --    31 C    1.030    65 H    0.985    66 H    0.967
                            67 H    0.966
    33   6 C    3.989 --    31 C    1.879    69 H    0.974    68 H    0.973
    34   6 C    3.988 --    35 C    1.446    23 C    1.372    70 H    0.967
                            21 C    0.101
    35   6 C    3.992 --    34 C    1.446    20 C    1.411    71 H    0.968
                            22 C    0.110
    36   1 H    0.996 --     1 C    0.967
    37   1 H    0.996 --     1 C    0.966
    38   1 H    0.997 --     1 C    0.985
    39   1 H    0.997 --     3 C    0.974
    40   1 H    0.996 --     3 C    0.973
    41   1 H    0.995 --     7 C    0.965
    42   1 H    0.998 --     7 C    0.967
    43   1 H    0.995 --     8 C    0.973
    44   1 H    0.996 --     8 C    0.974
    45   1 H    0.999 --     9 C    0.967
    46   1 H    0.998 --     9 C    0.967
    47   1 H    0.998 --    12 C    0.968
    48   1 H    0.998 --    13 C    0.966
    49   1 H    0.999 --    15 C    0.968
    50   1 H    0.999 --    16 C    0.967
    51   1 H    0.998 --    18 C    0.985
    52   1 H    0.999 --    18 C    0.985
    53   1 H    0.997 --    18 C    0.982
    54   1 H    0.999 --    19 C    0.985
    55   1 H    0.997 --    19 C    0.982
    56   1 H    0.998 --    19 C    0.985
    57   1 H    0.998 --    21 C    0.966
    58   1 H    0.998 --    22 C    0.968
    59   1 H    0.999 --    25 C    0.967
    60   1 H    0.998 --    25 C    0.966
    61   1 H    0.996 --    26 C    0.974
    62   1 H    0.995 --    26 C    0.972
    63   1 H    0.997 --    27 C    0.967
    64   1 H    0.995 --    27 C    0.965
    65   1 H    0.997 --    32 C    0.985
    66   1 H    0.996 --    32 C    0.967
    67   1 H    0.996 --    32 C    0.966
    68   1 H    0.996 --    33 C    0.973
    69   1 H    0.997 --    33 C    0.974
    70   1 H    0.999 --    34 C    0.967
    71   1 H    0.999 --    35 C    0.968
 ---------------------------------------------------------------------------

Topologies differ in total number of bonds
Writing topology from bond orders to xtbtopo.mol

molecular dipole:
                 x           y           z       tot (Debye)
 q only:       -0.402      -0.244      -1.374
   full:       -0.452      -0.431      -1.651       4.486
molecular quadrupole (traceless):
                xx          xy          yy          xz          yz          zz
 q only:      -15.194      18.086       8.149       2.934       2.320       7.046
  q+dip:      -20.849      19.620      11.426       2.344       0.963       9.422
   full:      -19.884      21.695      11.199      -0.116       1.481       8.685

           -------------------------------------------------
          |                Geometry Summary                 |
           -------------------------------------------------

      molecular mass/u    :      480.5936376
   center of mass at/Å    :        0.0277214      -0.0725350       0.0590979
  moments of inertia/u·Å² :        0.1976860E+04   0.2080172E+05   0.2134537E+05
rotational constants/cm⁻¹ :        0.8527480E-02   0.8103960E-03   0.7897561E-03

 * 66 selected distances

     #   Z          #   Z                                           value/Å
     2   6 C        3   6 C                                       1.3284931
     4   6 C        5   8 O                                       1.2072155
     4   6 C        6   8 O                                       1.3405769
     6   8 O        7   6 C                                       1.4246584
     7   6 C        8   6 C                                       1.5221954
     8   6 C        9   6 C                                       1.5249302
     9   6 C       10   8 O                                       1.4098690
    10   8 O       11   6 C                                       1.3652035
    11   6 C       12   6 C                                       1.3927133
    12   6 C       13   6 C                                       1.3801329
    13   6 C       14   6 C                                       1.3894383
    14   6 C       15   6 C                                       1.3893061
    11   6 C       16   6 C                                       1.3894871
    15   6 C       16   6 C                                       1.3832439
    17   6 C       18   6 C                                       1.5354657 (max)
    17   6 C       19   6 C                                       1.5353771
    20   6 C       21   6 C                                       1.3894581
    21   6 C       22   6 C                                       1.3802186
    22   6 C       23   6 C                                       1.3931209
    23   6 C       24   8 O                                       1.3638190
    24   8 O       25   6 C                                       1.4111375
    25   6 C       26   6 C                                       1.5265316
    26   6 C       27   6 C                                       1.5217389
    27   6 C       28   8 O                                       1.4267503
    28   8 O       29   6 C                                       1.3393986
    29   6 C       30   8 O                                       1.2071601
    31   6 C       33   6 C                                       1.3285282
    23   6 C       34   6 C                                       1.3898976
    20   6 C       35   6 C                                       1.3893193
    34   6 C       35   6 C                                       1.3830457
     1   6 C       36   1 H                                       1.0884925
     1   6 C       37   1 H                                       1.0889259
     1   6 C       38   1 H                                       1.0860835
     3   6 C       39   1 H                                       1.0772472
     3   6 C       40   1 H                                       1.0756171 (min)
     7   6 C       41   1 H                                       1.0948190
     7   6 C       42   1 H                                       1.0965104
     8   6 C       43   1 H                                       1.0903133
     8   6 C       44   1 H                                       1.0902885
     9   6 C       45   1 H                                       1.0992118
     9   6 C       46   1 H                                       1.0990187
    12   6 C       47   1 H                                       1.0787260
    13   6 C       48   1 H                                       1.0780895
    15   6 C       49   1 H                                       1.0805135
    16   6 C       50   1 H                                       1.0788797
    18   6 C       51   1 H                                       1.0884325
    18   6 C       52   1 H                                       1.0869837
    18   6 C       53   1 H                                       1.0873829
    19   6 C       54   1 H                                       1.0870985
    19   6 C       55   1 H                                       1.0874747
    19   6 C       56   1 H                                       1.0884242
    21   6 C       57   1 H                                       1.0782021
    22   6 C       58   1 H                                       1.0789006
    25   6 C       59   1 H                                       1.0991954
    25   6 C       60   1 H                                       1.0979300
    26   6 C       61   1 H                                       1.0902425
    26   6 C       62   1 H                                       1.0897311
    27   6 C       63   1 H                                       1.0956015
    27   6 C       64   1 H                                       1.0948443
    32   6 C       65   1 H                                       1.0860205
    32   6 C       66   1 H                                       1.0886415
    32   6 C       67   1 H                                       1.0887250
    33   6 C       68   1 H                                       1.0756363
    33   6 C       69   1 H                                       1.0773664
    34   6 C       70   1 H                                       1.0788523
    35   6 C       71   1 H                                       1.0806398

 * 3 distinct bonds (by element types)

   Z      Z             #   av. dist./Å        max./Å        min./Å
   1 H    6 C          36     1.0869184     1.0992118     1.0756171
   6 C    6 C          20     1.4236321     1.5354657     1.3284931
   6 C    8 O          10     1.3495789     1.4267503     1.2071601


optimized geometry written to: xtbopt.xyz


           -------------------------------------------------
          | TOTAL ENERGY             -104.838511793167 Eh   |
          | GRADIENT NORM               0.000709448426 Eh/α |
          | HOMO-LUMO GAP               2.719129593001 eV   |
           -------------------------------------------------
########################################################################
[WARNING] Runtime exception occurred
-2- restart_readRestart: Dimension missmatch in restart file.
-1- restart_readRestart: Number of electron missmatch in restart file.
########################################################################

------------------------------------------------------------------------
 * finished run on 2025/12/01 at 14:18:08.638     
------------------------------------------------------------------------
 total:
 * wall-time:     0 d,  0 h,  0 min,  3.134 sec
 *  cpu-time:     0 d,  0 h,  1 min, 11.417 sec
 * ratio c/w:    22.790 speedup
 SCF:
 * wall-time:     0 d,  0 h,  0 min,  0.089 sec
 *  cpu-time:     0 d,  0 h,  0 min,  1.981 sec
 * ratio c/w:    22.338 speedup
 ANC optimizer:
 * wall-time:     0 d,  0 h,  0 min,  3.021 sec
 *  cpu-time:     0 d,  0 h,  1 min,  9.103 sec
 * ratio c/w:    22.873 speedup

normal termination of xtb
