      -----------------------------------------------------------      
     |                   =====================                   |     
     |                           x T B                           |     
     |                   =====================                   |     
     |                         S. Grimme                         |     
     |          Mulliken Center for Theoretical Chemistry        |     
     |                    University of Bonn                     |     
      -----------------------------------------------------------      

   * xtb version 6.7.1 (edcfbbe) compiled by 'albert@albert-system' on 2024-07-22

   xtb is free software: you can redistribute it and/or modify it under
   the terms of the GNU Lesser General Public License as published by
   the Free Software Foundation, either version 3 of the License, or
   (at your option) any later version.
   
   xtb is distributed in the hope that it will be useful,
   but WITHOUT ANY WARRANTY; without even the implied warranty of
   MERCHANTABILITY or FITNESS FOR A PARTICULAR PURPOSE.  See the
   GNU Lesser General Public License for more details.
   
   Cite this work as:
   * C. Bannwarth, E. Caldeweyher, S. Ehlert, A. Hansen, P. Pracht,
     J. Seibert, S. Spicher, S. Grimme, WIREs Comput. Mol. Sci., 2020, 11,
     e01493. DOI: 10.1002/wcms.1493
   
   for GFN2-xTB:
   * C. Bannwarth, S. Ehlert and S. Grimme., J. Chem. Theory Comput., 2019,
     15, 1652-1671. DOI: 10.1021/acs.jctc.8b01176
   for GFN1-xTB:
   * S. Grimme, C. Bannwarth, P. Shushkov, J. Chem. Theory Comput., 2017,
     13, 1989-2009. DOI: 10.1021/acs.jctc.7b00118
   for GFN0-xTB:
   * P. Pracht, E. Caldeweyher, S. Ehlert, S. Grimme, ChemRxiv, 2019, preprint.
     DOI: 10.26434/chemrxiv.8326202.v1
   for GFN-FF:
   * S. Spicher and S. Grimme, Angew. Chem. Int. Ed., 2020, 59, 15665-15673.
     DOI: 10.1002/anie.202004239
   
   for ALPB and GBSA implicit solvation:
   * S. Ehlert, M. Stahn, S. Spicher, S. Grimme, J. Chem. Theory Comput.,
     2021, 17, 4250-4261. DOI: 10.1021/acs.jctc.1c00471
   
   for ddCOSMO and CPCM-X implicit solvation:
   * M. Stahn, S. Ehlert, S. Grimme, J. Phys. Chem. A,
     2023, XX, XXXX-XXXX. DOI: 10.1021/acs.jpca.3c04382
   
   for DFT-D4:
   * E. Caldeweyher, C. Bannwarth and S. Grimme, J. Chem. Phys., 2017,
     147, 034112. DOI: 10.1063/1.4993215
   * E. Caldeweyher, S. Ehlert, A. Hansen, H. Neugebauer, S. Spicher,
     C. Bannwarth and S. Grimme, J. Chem. Phys., 2019, 150, 154122.
     DOI: 10.1063/1.5090222
   * E. Caldeweyher, J.-M. Mewes, S. Ehlert and S. Grimme, Phys. Chem. Chem. Phys.
     2020, 22, 8499-8512. DOI: 10.1039/D0CP00502A
   
   for sTDA-xTB:
   * S. Grimme and C. Bannwarth, J. Chem. Phys., 2016, 145, 054103.
     DOI: 10.1063/1.4959605
   
   in the mass-spec context:
   * V. Asgeirsson, C. Bauer and S. Grimme, Chem. Sci., 2017, 8, 4879.
     DOI: 10.1039/c7sc00601b
   * J. Koopman and S. Grimme, ACS Omega 2019, 4, 12, 15120-15133.
     DOI: 10.1021/acsomega.9b02011
   
   for metadynamics refer to:
   * S. Grimme, J. Chem. Theory Comput., 2019, 155, 2847-2862
     DOI: 10.1021/acs.jctc.9b00143
   
   for SPH calculations refer to:
   * S. Spicher and S. Grimme, J. Chem. Theory Comput., 2021, 17, 1701-1714
     DOI: 10.1021/acs.jctc.0c01306
   
   for ONIOM refer to:
   * C. Plett, A. Katbashev, S. Ehlert, S. Grimme, M. Bursch,
     Phys. Chem. Chem. Phys., 2023, 25, 17860-17868. DOI: 10.1039/D3CP02178E
   
   for DIPRO refer to:
   * J. Kohn, N. Gildemeister, S. Grimme, D. Fazzi, A. Hansen,
     J. Chem. Phys., 2023, just accepted.
   
   for PTB refer to:
   * S. Grimme, M. Mueller, A. Hansen, J. Chem. Phys., 2023, 158, 124111.
     DOI: 10.1063/5.0137838
   
   with help from (in alphabetical order)
   P. Atkinson, C. Bannwarth, F. Bohle, G. Brandenburg, E. Caldeweyher
   M. Checinski, S. Dohm, S. Ehlert, S. Ehrlich, I. Gerasimov, C. Hölzer
   A. Katbashev, J. Kohn, J. Koopman, C. Lavigne, S. Lehtola, F. März, M. Müller,
   F. Musil, H. Neugebauer, J. Pisarek, C. Plett, P. Pracht, F. Pultar,
   J. Seibert, P. Shushkov, S. Spicher, M. Stahn, M. Steiner, T. Strunk,
   J. Stückrath, T. Rose, and J. Unsleber
   
 * started run on 2025/12/01 at 14:18:08.682     
   ID    Z sym.   atoms
    1    6 C      1-4, 7-9, 11-23, 25-27, 29, 31-35
    2    8 O      5, 6, 10, 24, 28, 30
    3    1 H      36-71

           -------------------------------------------------
          |                Calculation Setup                |
           -------------------------------------------------

          program call               : xtb pipeline_data/3_conformer_xyz/acrylates/rdkit/OPZLDVPRAIERSE-UHFFFAOYSA-N_conf229.xyz --opt --gfn 2-xTB --iterations 250
          coordinate file            : pipeline_data/3_conformer_xyz/acrylates/rdkit/OPZLDVPRAIERSE-UHFFFAOYSA-N_conf229.xyz
          omp threads                :                    24

########################################################################
[WARNING] Please study the warnings concerning your input carefully
-1- readin_getIntValue: could not parse '2-xTB'
########################################################################

           -------------------------------------------------
          |                 G F N 2 - x T B                 |
           -------------------------------------------------

        Reference                      10.1021/acs.jctc.8b01176
      * Hamiltonian:
        H0-scaling (s, p, d)           1.850000    2.230000    2.230000
        zeta-weighting                 0.500000
      * Dispersion:
        s8                             2.700000
        a1                             0.520000
        a2                             5.000000
        s9                             5.000000
      * Repulsion:
        kExp                           1.500000    1.000000
        rExp                           1.000000
      * Coulomb:
        alpha                          2.000000
        third order                    shell-resolved
        anisotropic                    true
        a3                             3.000000
        a5                             4.000000
        cn-shift                       1.200000
        cn-exp                         4.000000
        max-rad                        5.000000

q/qsh data taken from xtbrestart
CAMM data taken from xtbrestart

          ...................................................
          :                      SETUP                      :
          :.................................................:
          :  # basis functions                 176          :
          :  # atomic orbitals                 176          :
          :  # shells                          106          :
          :  # electrons                       188          :
          :  max. iterations                   250          :
          :  Hamiltonian                  GFN2-xTB          :
          :  restarted?                       true          :
          :  GBSA solvation                  false          :
          :  PC potential                    false          :
          :  electronic temp.          300.0000000     K    :
          :  accuracy                    1.0000000          :
          :  -> integral cutoff          0.2500000E+02      :
          :  -> integral neglect         0.1000000E-07      :
          :  -> SCF convergence          0.1000000E-05 Eh   :
          :  -> wf. convergence          0.1000000E-03 e    :
          :  Broyden damping             0.4000000          :
          :  net charge                          0          :
          :  unpaired electrons                  0          :
          ...................................................

 iter      E             dE          RMSdq      gap      omega  full diag
   1   -106.1536121 -0.106154E+03  0.445E+00    2.58       0.0  T
   2   -106.1671888 -0.135768E-01  0.264E+00    2.43       1.0  T
   3   -106.1502686  0.169203E-01  0.521E-01    2.40       1.0  T
   4   -106.1720112 -0.217427E-01  0.153E-01    2.35       1.0  T
   5   -106.1725621 -0.550897E-03  0.821E-02    2.37       1.0  T
   6   -106.1726074 -0.452766E-04  0.447E-02    2.37       1.0  T
   7   -106.1726776 -0.701703E-04  0.130E-02    2.37       1.0  T
   8   -106.1726839 -0.637245E-05  0.578E-03    2.37       2.1  T
   9   -106.1726847 -0.739048E-06  0.225E-03    2.37       5.3  T
  10   -106.1726848 -0.875489E-07  0.108E-03    2.37      11.0  T
  11   -106.1726848 -0.244286E-07  0.537E-04    2.37      22.1  T
  12   -106.1726848 -0.591130E-08  0.257E-04    2.37      46.3  T

   *** convergence criteria satisfied after 12 iterations ***

         #    Occupation            Energy/Eh            Energy/eV
      -------------------------------------------------------------
         1        2.0000           -0.7377781             -20.0760
       ...           ...                  ...                  ...
        88        2.0000           -0.4105627             -11.1720
        89        2.0000           -0.4075395             -11.0897
        90        2.0000           -0.4072103             -11.0808
        91        2.0000           -0.4011238             -10.9151
        92        2.0000           -0.3995920             -10.8735
        93        2.0000           -0.3741076             -10.1800
        94        2.0000           -0.3719352             -10.1209 (HOMO)
        95                         -0.2849628              -7.7542 (LUMO)
        96                         -0.2830786              -7.7030
        97                         -0.2223760              -6.0512
        98                         -0.2197038              -5.9784
        99                         -0.2098409              -5.7101
       ...                                ...                  ...
       176                          0.6875073              18.7080
      -------------------------------------------------------------
                  HL-Gap            0.0869724 Eh            2.3666 eV
             Fermi-level           -0.3284490 Eh           -8.9376 eV

 SCC (total)                   0 d,  0 h,  0 min,  0.094 sec
 SCC setup                      ...        0 min,  0.001 sec (  0.678%)
 Dispersion                     ...        0 min,  0.003 sec (  2.727%)
 classical contributions        ...        0 min,  0.000 sec (  0.192%)
 integral evaluation            ...        0 min,  0.006 sec (  6.441%)
 iterations                     ...        0 min,  0.074 sec ( 78.531%)
 molecular gradient             ...        0 min,  0.010 sec ( 10.884%)
 printout                       ...        0 min,  0.000 sec (  0.496%)

         :::::::::::::::::::::::::::::::::::::::::::::::::::::
         ::                     SUMMARY                     ::
         :::::::::::::::::::::::::::::::::::::::::::::::::::::
         :: total energy            -104.775459289617 Eh    ::
         :: gradient norm              0.210034738676 Eh/a0 ::
         :: HOMO-LUMO gap              2.366640813957 eV    ::
         ::.................................................::
         :: SCC energy              -106.173137785882 Eh    ::
         :: -> isotropic ES            0.131132308516 Eh    ::
         :: -> anisotropic ES          0.007266543172 Eh    ::
         :: -> anisotropic XC          0.037412292523 Eh    ::
         :: -> dispersion             -0.068059300346 Eh    ::
         :: repulsion energy           1.397678496265 Eh    ::
         :: add. restraining           0.000000000000 Eh    ::
         :: total charge              -0.000000000000 e     ::
         :::::::::::::::::::::::::::::::::::::::::::::::::::::

      ----------------------------------------------------------- 
     |                   =====================                   |
     |                        A N C O P T                        |
     |                   =====================                   |
     |               Approximate Normal Coordinate               |
     |                Rational Function Optimizer                |
      ----------------------------------------------------------- 
      ----------------------------------------------------------- 
     |                   =====================                   |
     |                        A N C O P T                        |
     |                   =====================                   |
     |               Approximate Normal Coordinate               |
     |                Rational Function Optimizer                |
      ----------------------------------------------------------- 

          ...................................................
          :                      SETUP                      :
          :.................................................:
          :   optimization level            normal          :
          :   max. optcycles                   213          :
          :   ANC micro-cycles                  20          :
          :   degrees of freedom               207          :
          :.................................................:
          :   RF solver                   davidson          :
          :   write xtbopt.log                true          :
          :   linear?                        false          :
          :   energy convergence         0.5000000E-05 Eh   :
          :   grad. convergence          0.1000000E-02 Eh/α :
          :   maxmium RF displ.          1.0000000          :
          :   Hlow (freq-cutoff)         0.1000000E-01      :
          :   Hmax (freq-cutoff)         5.0000000          :
          :   S6 in model hess.         20.0000000          :
          ...................................................

generating ANC from exact Hessian ...
Using Lindh-Hessian (1995)
 Shifting diagonal of input Hessian by   9.968686437325730E-003
 Lowest  eigenvalues of input Hessian
    0.000000    0.000000    0.000000    0.000000    0.000000    0.000000
    0.010000    0.010065    0.010112    0.010172    0.010242    0.010392
    0.010442    0.010670    0.010922    0.011396    0.011411    0.011824
 Highest eigenvalues
    2.021639    2.045134    2.088984    2.114331    2.132108    2.161040
 

........................................................................
.............................. CYCLE    1 ..............................
........................................................................

 iter      E             dE          RMSdq      gap      omega  full diag
   1   -106.1726848 -0.106173E+03  0.116E-04    2.37       0.0  T
   2   -106.1726848 -0.126164E-09  0.828E-05    2.37     143.4  T
   3   -106.1726848 -0.217568E-09  0.506E-05    2.37     234.5  T
     SCC iter.                  ...        0 min,  0.018 sec
     gradient                   ...        0 min,  0.012 sec
 * total energy  :  -104.7754593 Eh     change       -0.2173948E-08 Eh
   gradient norm :     0.2100378 Eh/α   predicted     0.0000000E+00 (-100.00%)
   displ. norm   :     0.4296519 α      lambda       -0.5178369E-01
   maximum displ.:     0.1635318 α      in ANC's #57, #40, #53, ...

........................................................................
.............................. CYCLE    2 ..............................
........................................................................

 iter      E             dE          RMSdq      gap      omega  full diag
   1   -106.2455334 -0.106246E+03  0.250E-01    2.60       0.0  T
   2   -106.2462461 -0.712746E-03  0.160E-01    2.56       1.0  T
   3   -106.2461751  0.710301E-04  0.833E-02    2.57       1.0  T
   4   -106.2463624 -0.187297E-03  0.287E-02    2.55       1.0  T
   5   -106.2464051 -0.427233E-04  0.903E-03    2.55       1.3  T
   6   -106.2464082 -0.312125E-05  0.430E-03    2.55       2.8  T
   7   -106.2464086 -0.374338E-06  0.213E-03    2.55       5.6  T
   8   -106.2464087 -0.130859E-06  0.785E-04    2.55      15.1  T
   9   -106.2464087 -0.849697E-08  0.348E-04    2.55      34.1  T
     SCC iter.                  ...        0 min,  0.041 sec
     gradient                   ...        0 min,  0.011 sec
 * total energy  :  -104.8125122 Eh     change       -0.3705287E-01 Eh
   gradient norm :     0.0891215 Eh/α   predicted    -0.3071202E-01 ( -17.11%)
   displ. norm   :     0.4376474 α      lambda       -0.1873430E-01
   maximum displ.:     0.1806156 α      in ANC's #57, #40, #18, ...

........................................................................
.............................. CYCLE    3 ..............................
........................................................................

 iter      E             dE          RMSdq      gap      omega  full diag
   1   -106.2811589 -0.106281E+03  0.180E-01    2.67       0.0  T
   2   -106.2815163 -0.357393E-03  0.114E-01    2.65       1.0  T
   3   -106.2814761  0.402585E-04  0.603E-02    2.66       1.0  T
   4   -106.2815782 -0.102126E-03  0.201E-02    2.64       1.0  T
   5   -106.2815974 -0.192130E-04  0.641E-03    2.65       1.9  T
   6   -106.2815989 -0.146853E-05  0.307E-03    2.65       3.9  T
   7   -106.2815991 -0.250083E-06  0.142E-03    2.65       8.3  T
   8   -106.2815992 -0.550324E-07  0.562E-04    2.65      21.1  T
   9   -106.2815992 -0.359194E-08  0.267E-04    2.65      44.4  T
     SCC iter.                  ...        0 min,  0.040 sec
     gradient                   ...        0 min,  0.017 sec
 * total energy  :  -104.8240042 Eh     change       -0.1149206E-01 Eh
   gradient norm :     0.0240250 Eh/α   predicted    -0.1116129E-01 (  -2.88%)
   displ. norm   :     0.4047517 α      lambda       -0.4367737E-02
   maximum displ.:     0.1640067 α      in ANC's #18, #40, #11, ...

........................................................................
.............................. CYCLE    4 ..............................
........................................................................

 iter      E             dE          RMSdq      gap      omega  full diag
   1   -106.2790279 -0.106279E+03  0.909E-02    2.64       0.0  T
   2   -106.2790563 -0.284065E-04  0.554E-02    2.64       1.0  T
   3   -106.2790250  0.313588E-04  0.278E-02    2.65       1.0  T
   4   -106.2790627 -0.377634E-04  0.692E-03    2.65       1.7  T
   5   -106.2790650 -0.223370E-05  0.248E-03    2.65       4.8  T
   6   -106.2790652 -0.252455E-06  0.102E-03    2.65      11.7  T
   7   -106.2790652 -0.127822E-07  0.434E-04    2.65      27.3  T
   8   -106.2790652 -0.455820E-08  0.182E-04    2.65      65.1  T
     SCC iter.                  ...        0 min,  0.045 sec
     gradient                   ...        0 min,  0.012 sec
 * total energy  :  -104.8271946 Eh     change       -0.3190418E-02 Eh
   gradient norm :     0.0138106 Eh/α   predicted    -0.2541657E-02 ( -20.33%)
   displ. norm   :     0.4746625 α      lambda       -0.2756557E-02
   maximum displ.:     0.1812825 α      in ANC's #11, #18, #28, ...

........................................................................
.............................. CYCLE    5 ..............................
........................................................................

 iter      E             dE          RMSdq      gap      omega  full diag
   1   -106.2772228 -0.106277E+03  0.818E-02    2.64       0.0  T
   2   -106.2772395 -0.167292E-04  0.486E-02    2.64       1.0  T
   3   -106.2772322  0.738278E-05  0.146E-02    2.65       1.0  T
   4   -106.2772402 -0.804787E-05  0.558E-03    2.64       2.1  T
   5   -106.2772419 -0.169568E-05  0.175E-03    2.65       6.8  T
   6   -106.2772420 -0.769511E-07  0.897E-04    2.64      13.2  T
   7   -106.2772420 -0.106568E-07  0.347E-04    2.64      34.2  T
     SCC iter.                  ...        0 min,  0.067 sec
     gradient                   ...        0 min,  0.012 sec
 * total energy  :  -104.8292105 Eh     change       -0.2015837E-02 Eh
   gradient norm :     0.0119232 Eh/α   predicted    -0.1688823E-02 ( -16.22%)
   displ. norm   :     0.4610995 α      lambda       -0.1720084E-02
   maximum displ.:     0.2159213 α      in ANC's #11, #28, #18, ...

........................................................................
.............................. CYCLE    6 ..............................
........................................................................

 iter      E             dE          RMSdq      gap      omega  full diag
   1   -106.2783068 -0.106278E+03  0.734E-02    2.64       0.0  T
   2   -106.2783133 -0.656510E-05  0.435E-02    2.65       1.0  T
   3   -106.2783099  0.343856E-05  0.850E-03    2.64       1.4  T
   4   -106.2783141 -0.425433E-05  0.321E-03    2.65       3.7  T
   5   -106.2783147 -0.556728E-06  0.137E-03    2.64       8.7  T
   6   -106.2783147 -0.159116E-07  0.799E-04    2.64      14.9  T
   7   -106.2783147 -0.149722E-07  0.264E-04    2.64      45.0  T
     SCC iter.                  ...        0 min,  0.038 sec
     gradient                   ...        0 min,  0.011 sec
 * total energy  :  -104.8304837 Eh     change       -0.1273204E-02 Eh
   gradient norm :     0.0130364 Eh/α   predicted    -0.1042899E-02 ( -18.09%)
   displ. norm   :     0.4417166 α      lambda       -0.1268174E-02
   maximum displ.:     0.2399906 α      in ANC's #11, #29, #19, ...

........................................................................
.............................. CYCLE    7 ..............................
........................................................................

 iter      E             dE          RMSdq      gap      omega  full diag
   1   -106.2826118 -0.106283E+03  0.723E-02    2.66       0.0  T
   2   -106.2826141 -0.230759E-05  0.430E-02    2.66       1.0  T
   3   -106.2826027  0.114416E-04  0.141E-02    2.65       1.0  T
   4   -106.2826159 -0.131973E-04  0.225E-03    2.65       5.3  T
   5   -106.2826160 -0.628421E-07  0.133E-03    2.65       8.9  T
   6   -106.2826160 -0.286385E-07  0.629E-04    2.65      18.9  T
   7   -106.2826160 -0.128487E-07  0.174E-04    2.65      68.2  T
     SCC iter.                  ...        0 min,  0.032 sec
     gradient                   ...        0 min,  0.014 sec
 * total energy  :  -104.8314101 Eh     change       -0.9264056E-03 Eh
   gradient norm :     0.0110341 Eh/α   predicted    -0.7578065E-03 ( -18.20%)
   displ. norm   :     0.4114356 α      lambda       -0.8888784E-03
   maximum displ.:     0.2388089 α      in ANC's #11, #9, #12, ...

........................................................................
.............................. CYCLE    8 ..............................
........................................................................

 iter      E             dE          RMSdq      gap      omega  full diag
   1   -106.2862734 -0.106286E+03  0.707E-02    2.66       0.0  T
   2   -106.2862771 -0.375581E-05  0.419E-02    2.66       1.0  T
   3   -106.2862718  0.534866E-05  0.103E-02    2.66       1.2  T
   4   -106.2862779 -0.615756E-05  0.294E-03    2.66       4.0  T
   5   -106.2862783 -0.375259E-06  0.122E-03    2.66       9.8  T
   6   -106.2862783 -0.118937E-07  0.658E-04    2.66      18.0  T
   7   -106.2862783 -0.956857E-08  0.210E-04    2.66      56.6  T
     SCC iter.                  ...        0 min,  0.032 sec
     gradient                   ...        0 min,  0.014 sec
 * total energy  :  -104.8320316 Eh     change       -0.6215583E-03 Eh
   gradient norm :     0.0088477 Eh/α   predicted    -0.5196749E-03 ( -16.39%)
   displ. norm   :     0.3588931 α      lambda       -0.5683382E-03
   maximum displ.:     0.2111500 α      in ANC's #11, #9, #12, ...

........................................................................
.............................. CYCLE    9 ..............................
........................................................................

 iter      E             dE          RMSdq      gap      omega  full diag
   1   -106.2891279 -0.106289E+03  0.638E-02    2.68       0.0  T
   2   -106.2891315 -0.356202E-05  0.378E-02    2.68       1.0  T
   3   -106.2891266  0.484978E-05  0.999E-03    2.68       1.2  T
   4   -106.2891321 -0.543177E-05  0.281E-03    2.68       4.2  T
   5   -106.2891324 -0.377397E-06  0.986E-04    2.68      12.0  T
   6   -106.2891324 -0.716614E-08  0.510E-04    2.68      23.3  T
     SCC iter.                  ...        0 min,  0.029 sec
     gradient                   ...        0 min,  0.011 sec
 * total energy  :  -104.8324142 Eh     change       -0.3825353E-03 Eh
   gradient norm :     0.0060356 Eh/α   predicted    -0.3207765E-03 ( -16.14%)
   displ. norm   :     0.3330731 α      lambda       -0.3591823E-03
   maximum displ.:     0.1865953 α      in ANC's #11, #12, #9, ...

........................................................................
.............................. CYCLE   10 ..............................
........................................................................

 iter      E             dE          RMSdq      gap      omega  full diag
   1   -106.2874016 -0.106287E+03  0.641E-02    2.66       0.0  T
   2   -106.2874058 -0.422692E-05  0.380E-02    2.66       1.0  T
   3   -106.2874015  0.436246E-05  0.948E-03    2.67       1.3  T
   4   -106.2874062 -0.475579E-05  0.330E-03    2.67       3.6  T
   5   -106.2874068 -0.543821E-06  0.999E-04    2.67      11.9  T
   6   -106.2874068 -0.435755E-08  0.562E-04    2.67      21.1  T
     SCC iter.                  ...        0 min,  0.029 sec
     gradient                   ...        0 min,  0.014 sec
 * total energy  :  -104.8326388 Eh     change       -0.2246109E-03 Eh
   gradient norm :     0.0073336 Eh/α   predicted    -0.1995157E-03 ( -11.17%)
   displ. norm   :     0.2886332 α      lambda       -0.2913704E-03
   maximum displ.:     0.1493828 α      in ANC's #11, #12, #9, ...

........................................................................
.............................. CYCLE   11 ..............................
........................................................................

 iter      E             dE          RMSdq      gap      omega  full diag
   1   -106.2888768 -0.106289E+03  0.560E-02    2.70       0.0  T
   2   -106.2888841 -0.732504E-05  0.332E-02    2.70       1.0  T
   3   -106.2888810  0.310393E-05  0.900E-03    2.69       1.3  T
   4   -106.2888840 -0.300730E-05  0.400E-03    2.69       3.0  T
   5   -106.2888850 -0.917880E-06  0.881E-04    2.69      13.5  T
   6   -106.2888850 -0.115818E-07  0.488E-04    2.69      24.3  T
     SCC iter.                  ...        0 min,  0.027 sec
     gradient                   ...        0 min,  0.014 sec
 * total energy  :  -104.8327884 Eh     change       -0.1495943E-03 Eh
   gradient norm :     0.0075027 Eh/α   predicted    -0.1578230E-03 (   5.50%)
   displ. norm   :     0.1773452 α      lambda       -0.1480331E-03
   maximum displ.:     0.0764601 α      in ANC's #11, #12, #9, ...

........................................................................
.............................. CYCLE   12 ..............................
........................................................................

 iter      E             dE          RMSdq      gap      omega  full diag
   1   -106.2872739 -0.106287E+03  0.366E-02    2.69       0.0  T
   2   -106.2872749 -0.993494E-06  0.217E-02    2.69       1.0  T
   3   -106.2872737  0.121895E-05  0.495E-03    2.69       2.4  T
   4   -106.2872751 -0.138185E-05  0.156E-03    2.69       7.6  T
   5   -106.2872752 -0.110747E-06  0.564E-04    2.69      21.0  T
   6   -106.2872752 -0.257728E-08  0.287E-04    2.69      41.3  T
     SCC iter.                  ...        0 min,  0.030 sec
     gradient                   ...        0 min,  0.014 sec
 * total energy  :  -104.8328894 Eh     change       -0.1010080E-03 Eh
   gradient norm :     0.0046340 Eh/α   predicted    -0.7634489E-04 ( -24.42%)
   displ. norm   :     0.2421216 α      lambda       -0.2016617E-03
   maximum displ.:     0.0965495 α      in ANC's #12, #9, #11, ...

........................................................................
.............................. CYCLE   13 ..............................
........................................................................

 iter      E             dE          RMSdq      gap      omega  full diag
   1   -106.2884106 -0.106288E+03  0.510E-02    2.68       0.0  T
   2   -106.2884143 -0.366265E-05  0.302E-02    2.68       1.0  T
   3   -106.2884112  0.310725E-05  0.836E-03    2.68       1.4  T
   4   -106.2884145 -0.331235E-05  0.303E-03    2.68       3.9  T
   5   -106.2884150 -0.485450E-06  0.827E-04    2.68      14.4  T
   6   -106.2884150 -0.481383E-08  0.429E-04    2.68      27.7  T
     SCC iter.                  ...        0 min,  0.030 sec
     gradient                   ...        0 min,  0.012 sec
 * total energy  :  -104.8329600 Eh     change       -0.7061285E-04 Eh
   gradient norm :     0.0081577 Eh/α   predicted    -0.1067441E-03 (  51.17%)
   displ. norm   :     0.1647429 α      lambda       -0.1773656E-03
   maximum displ.:     0.0691252 α      in ANC's #12, #5, #27, ...

........................................................................
.............................. CYCLE   14 ..............................
........................................................................

 iter      E             dE          RMSdq      gap      omega  full diag
   1   -106.2872711 -0.106287E+03  0.349E-02    2.69       0.0  T
   2   -106.2872727 -0.166059E-05  0.206E-02    2.69       1.0  T
   3   -106.2872706  0.217435E-05  0.651E-03    2.69       1.8  T
   4   -106.2872730 -0.238197E-05  0.194E-03    2.69       6.1  T
   5   -106.2872731 -0.185211E-06  0.573E-04    2.69      20.7  T
   6   -106.2872731 -0.129400E-08  0.341E-04    2.69      34.8  T
     SCC iter.                  ...        0 min,  0.048 sec
     gradient                   ...        0 min,  0.015 sec
 * total energy  :  -104.8330725 Eh     change       -0.1125185E-03 Eh
   gradient norm :     0.0048749 Eh/α   predicted    -0.9109139E-04 ( -19.04%)
   displ. norm   :     0.1843680 α      lambda       -0.1355299E-03
   maximum displ.:     0.0755366 α      in ANC's #12, #5, #27, ...

........................................................................
.............................. CYCLE   15 ..............................
........................................................................

 iter      E             dE          RMSdq      gap      omega  full diag
   1   -106.2873682 -0.106287E+03  0.350E-02    2.69       0.0  T
   2   -106.2873690 -0.713431E-06  0.208E-02    2.69       1.0  T
   3   -106.2873667  0.230246E-05  0.653E-03    2.69       1.8  T
   4   -106.2873692 -0.255011E-05  0.112E-03    2.69      10.6  T
   5   -106.2873693 -0.561209E-07  0.439E-04    2.69      27.0  T
   6   -106.2873693 -0.738169E-09  0.219E-04    2.69      54.1  T
     SCC iter.                  ...        0 min,  0.026 sec
     gradient                   ...        0 min,  0.011 sec
 * total energy  :  -104.8331816 Eh     change       -0.1090609E-03 Eh
   gradient norm :     0.0044557 Eh/α   predicted    -0.7007257E-04 ( -35.75%)
   displ. norm   :     0.4356342 α      lambda       -0.2784637E-03
   maximum displ.:     0.1689644 α      in ANC's #12, #5, #27, ...

........................................................................
.............................. CYCLE   16 ..............................
........................................................................

 iter      E             dE          RMSdq      gap      omega  full diag
   1   -106.2871084 -0.106287E+03  0.804E-02    2.70       0.0  T
   2   -106.2871112 -0.274529E-05  0.476E-02    2.70       1.0  T
   3   -106.2871022  0.897042E-05  0.129E-02    2.70       1.0  T
   4   -106.2871122 -0.999448E-05  0.231E-03    2.70       5.1  T
   5   -106.2871124 -0.222637E-06  0.946E-04    2.70      12.5  T
   6   -106.2871124 -0.495190E-08  0.420E-04    2.70      28.3  T
     SCC iter.                  ...        0 min,  0.026 sec
     gradient                   ...        0 min,  0.011 sec
 * total energy  :  -104.8333888 Eh     change       -0.2071680E-03 Eh
   gradient norm :     0.0073641 Eh/α   predicted    -0.1656597E-03 ( -20.04%)
   displ. norm   :     0.4395865 α      lambda       -0.2475173E-03
   maximum displ.:     0.1609315 α      in ANC's #12, #5, #27, ...

........................................................................
.............................. CYCLE   17 ..............................
........................................................................

 iter      E             dE          RMSdq      gap      omega  full diag
   1   -106.2868451 -0.106287E+03  0.802E-02    2.69       0.0  T
   2   -106.2868468 -0.174509E-05  0.474E-02    2.69       1.0  T
   3   -106.2868432  0.358366E-05  0.837E-03    2.69       1.4  T
   4   -106.2868474 -0.413587E-05  0.195E-03    2.69       6.1  T
   5   -106.2868475 -0.149749E-06  0.860E-04    2.69      13.8  T
   6   -106.2868475 -0.436160E-08  0.323E-04    2.69      36.7  T
     SCC iter.                  ...        0 min,  0.026 sec
     gradient                   ...        0 min,  0.011 sec
 * total energy  :  -104.8335776 Eh     change       -0.1888806E-03 Eh
   gradient norm :     0.0082385 Eh/α   predicted    -0.1476745E-03 ( -21.82%)
   displ. norm   :     0.4276441 α      lambda       -0.2694300E-03
   maximum displ.:     0.1482181 α      in ANC's #5, #12, #9, ...

........................................................................
.............................. CYCLE   18 ..............................
........................................................................

 iter      E             dE          RMSdq      gap      omega  full diag
   1   -106.2886288 -0.106289E+03  0.783E-02    2.69       0.0  T
   2   -106.2886299 -0.105932E-05  0.462E-02    2.69       1.0  T
   3   -106.2886288  0.114241E-05  0.505E-03    2.69       2.4  T
   4   -106.2886303 -0.154926E-05  0.154E-03    2.69       7.7  T
   5   -106.2886304 -0.568662E-07  0.780E-04    2.69      15.2  T
   6   -106.2886304 -0.503448E-08  0.318E-04    2.69      37.3  T
     SCC iter.                  ...        0 min,  0.029 sec
     gradient                   ...        0 min,  0.012 sec
 * total energy  :  -104.8337808 Eh     change       -0.2031770E-03 Eh
   gradient norm :     0.0067198 Eh/α   predicted    -0.1593551E-03 ( -21.57%)
   displ. norm   :     0.5574001 α      lambda       -0.2782722E-03
   maximum displ.:     0.2062920 α      in ANC's #12, #9, #5, ...

........................................................................
.............................. CYCLE   19 ..............................
........................................................................

 iter      E             dE          RMSdq      gap      omega  full diag
   1   -106.2841866 -0.106284E+03  0.105E-01    2.68       0.0  T
   2   -106.2841899 -0.333301E-05  0.617E-02    2.68       1.0  T
   3   -106.2841867  0.316820E-05  0.821E-03    2.68       1.4  T
   4   -106.2841907 -0.395625E-05  0.271E-03    2.68       4.4  T
   5   -106.2841910 -0.264670E-06  0.123E-03    2.68       9.6  T
   6   -106.2841910 -0.130146E-07  0.593E-04    2.68      20.0  T
   7   -106.2841910 -0.875269E-08  0.157E-04    2.68      75.5  T
     SCC iter.                  ...        0 min,  0.050 sec
     gradient                   ...        0 min,  0.014 sec
 * total energy  :  -104.8339428 Eh     change       -0.1619529E-03 Eh
   gradient norm :     0.0088905 Eh/α   predicted    -0.1823671E-03 (  12.61%)
   displ. norm   :     0.3177050 α      lambda       -0.4391336E-03
   maximum displ.:     0.1083249 α      in ANC's #16, #7, #5, ...

........................................................................
.............................. CYCLE   20 ..............................
........................................................................

 iter      E             dE          RMSdq      gap      omega  full diag
   1   -106.2974990 -0.106297E+03  0.677E-02    2.67       0.0  T
   2   -106.2975094 -0.104156E-04  0.395E-02    2.68       1.0  T
   3   -106.2975046  0.478847E-05  0.119E-02    2.68       1.0  T
   4   -106.2975099 -0.527692E-05  0.408E-03    2.68       2.9  T
   5   -106.2975108 -0.959091E-06  0.130E-03    2.68       9.1  T
   6   -106.2975109 -0.379199E-07  0.622E-04    2.68      19.1  T
   7   -106.2975109 -0.424528E-08  0.234E-04    2.68      50.8  T
     SCC iter.                  ...        0 min,  0.100 sec
     gradient                   ...        0 min,  0.016 sec
 * total energy  :  -104.8339688 Eh     change       -0.2602154E-04 Eh
   gradient norm :     0.0121215 Eh/α   predicted    -0.2417319E-03 ( 828.97%)
   displ. norm   :     0.2764237 α      lambda       -0.3861885E-03
   maximum displ.:     0.1073826 α      in ANC's #12, #9, #5, ...
 * RMSD in coord.:     0.6108275 α      energy gain  -0.5850949E-01 Eh

generating ANC from exact Hessian ...
Using Lindh-Hessian (1995)
 Shifting diagonal of input Hessian by   9.966774742774416E-003
 Lowest  eigenvalues of input Hessian
    0.000000    0.000000    0.000000    0.000000    0.000000    0.000000
    0.010000    0.010081    0.010142    0.010187    0.010225    0.010455
    0.010523    0.010707    0.011035    0.011220    0.011464    0.011763
 Highest eigenvalues
    2.008699    2.012812    2.120203    2.123820    2.375230    2.385022
 

........................................................................
.............................. CYCLE   21 ..............................
........................................................................

 iter      E             dE          RMSdq      gap      omega  full diag
   1   -106.2894537 -0.106289E+03  0.565E-02    2.69       0.0  T
   2   -106.2894587 -0.495457E-05  0.332E-02    2.68       1.0  T
   3   -106.2894538  0.483302E-05  0.103E-02    2.68       1.2  T
   4   -106.2894590 -0.519582E-05  0.327E-03    2.68       3.6  T
   5   -106.2894596 -0.575042E-06  0.869E-04    2.68      13.7  T
   6   -106.2894596 -0.373679E-08  0.481E-04    2.68      24.7  T
     SCC iter.                  ...        0 min,  0.038 sec
     gradient                   ...        0 min,  0.009 sec
 * total energy  :  -104.8341882 Eh     change       -0.2194116E-03 Eh
   gradient norm :     0.0061882 Eh/α   predicted     0.0000000E+00 (-100.00%)
   displ. norm   :     0.0534585 α      lambda       -0.1211618E-03
   maximum displ.:     0.0228020 α      in ANC's #24, #8, #14, ...

........................................................................
.............................. CYCLE   22 ..............................
........................................................................

 iter      E             dE          RMSdq      gap      omega  full diag
   1   -106.2912716 -0.106291E+03  0.160E-02    2.69       0.0  T
   2   -106.2912721 -0.458416E-06  0.965E-03    2.69       1.2  T
   3   -106.2912710  0.102894E-05  0.478E-03    2.69       2.5  T
   4   -106.2912722 -0.118811E-05  0.974E-04    2.69      12.2  T
   5   -106.2912723 -0.397277E-07  0.318E-04    2.69      37.3  T
   6   -106.2912723 -0.141239E-08  0.175E-04    2.69      67.9  T
     SCC iter.                  ...        0 min,  0.051 sec
     gradient                   ...        0 min,  0.021 sec
 * total energy  :  -104.8342663 Eh     change       -0.7805988E-04 Eh
   gradient norm :     0.0026445 Eh/α   predicted    -0.6079192E-04 ( -22.12%)
   displ. norm   :     0.0936678 α      lambda       -0.9377869E-04
   maximum displ.:     0.0404561 α      in ANC's #24, #8, #14, ...

........................................................................
.............................. CYCLE   23 ..............................
........................................................................

 iter      E             dE          RMSdq      gap      omega  full diag
   1   -106.2927818 -0.106293E+03  0.178E-02    2.70       0.0  T
   2   -106.2927823 -0.480061E-06  0.106E-02    2.70       1.1  T
   3   -106.2927809  0.140489E-05  0.567E-03    2.70       2.1  T
   4   -106.2927825 -0.164230E-05  0.963E-04    2.70      12.3  T
   5   -106.2927826 -0.403054E-07  0.326E-04    2.70      36.4  T
   6   -106.2927826 -0.185490E-08  0.175E-04    2.70      68.0  T
     SCC iter.                  ...        0 min,  0.041 sec
     gradient                   ...        0 min,  0.010 sec
 * total energy  :  -104.8343277 Eh     change       -0.6140641E-04 Eh
   gradient norm :     0.0025617 Eh/α   predicted    -0.4734988E-04 ( -22.89%)
   displ. norm   :     0.1250098 α      lambda       -0.7127633E-04
   maximum displ.:     0.0519986 α      in ANC's #24, #8, #14, ...

........................................................................
.............................. CYCLE   24 ..............................
........................................................................

 iter      E             dE          RMSdq      gap      omega  full diag
   1   -106.2926190 -0.106293E+03  0.182E-02    2.70       0.0  T
   2   -106.2926192 -0.231367E-06  0.108E-02    2.70       1.1  T
   3   -106.2926185  0.700623E-06  0.369E-03    2.70       3.2  T
   4   -106.2926193 -0.780523E-06  0.668E-04    2.70      17.8  T
   5   -106.2926193 -0.190195E-07  0.251E-04    2.70      47.4  T
     SCC iter.                  ...        0 min,  0.023 sec
     gradient                   ...        0 min,  0.010 sec
 * total energy  :  -104.8343839 Eh     change       -0.5628178E-04 Eh
   gradient norm :     0.0035570 Eh/α   predicted    -0.3619883E-04 ( -35.68%)
   displ. norm   :     0.2357002 α      lambda       -0.1112322E-03
   maximum displ.:     0.0984226 α      in ANC's #8, #24, #29, ...

........................................................................
.............................. CYCLE   25 ..............................
........................................................................

 iter      E             dE          RMSdq      gap      omega  full diag
   1   -106.2909944 -0.106291E+03  0.337E-02    2.70       0.0  T
   2   -106.2909950 -0.619036E-06  0.201E-02    2.70       1.0  T
   3   -106.2909943  0.672183E-06  0.360E-03    2.70       3.3  T
   4   -106.2909951 -0.771772E-06  0.110E-03    2.70      10.8  T
   5   -106.2909951 -0.543368E-07  0.441E-04    2.70      26.9  T
   6   -106.2909951 -0.131413E-08  0.248E-04    2.70      47.9  T
     SCC iter.                  ...        0 min,  0.027 sec
     gradient                   ...        0 min,  0.012 sec
 * total energy  :  -104.8344587 Eh     change       -0.7480373E-04 Eh
   gradient norm :     0.0040351 Eh/α   predicted    -0.5871865E-04 ( -21.50%)
   displ. norm   :     0.1593077 α      lambda       -0.5974426E-04
   maximum displ.:     0.0692579 α      in ANC's #8, #29, #24, ...

........................................................................
.............................. CYCLE   26 ..............................
........................................................................

 iter      E             dE          RMSdq      gap      omega  full diag
   1   -106.2902837 -0.106290E+03  0.235E-02    2.70       0.0  T
   2   -106.2902839 -0.221223E-06  0.140E-02    2.70       1.0  T
   3   -106.2902836  0.295420E-06  0.220E-03    2.70       5.4  T
   4   -106.2902840 -0.349603E-06  0.612E-04    2.70      19.4  T
   5   -106.2902840 -0.161338E-07  0.285E-04    2.70      41.6  T
     SCC iter.                  ...        0 min,  0.023 sec
     gradient                   ...        0 min,  0.012 sec
 * total energy  :  -104.8345029 Eh     change       -0.4415074E-04 Eh
   gradient norm :     0.0034871 Eh/α   predicted    -0.3068955E-04 ( -30.49%)
   displ. norm   :     0.1711497 α      lambda       -0.7168673E-04
   maximum displ.:     0.0748596 α      in ANC's #8, #29, #27, ...

........................................................................
.............................. CYCLE   27 ..............................
........................................................................

 iter      E             dE          RMSdq      gap      omega  full diag
   1   -106.2904174 -0.106290E+03  0.272E-02    2.70       0.0  T
   2   -106.2904178 -0.366155E-06  0.162E-02    2.70       1.0  T
   3   -106.2904172  0.588437E-06  0.307E-03    2.70       3.9  T
   4   -106.2904179 -0.685078E-06  0.747E-04    2.70      15.9  T
   5   -106.2904179 -0.233762E-07  0.361E-04    2.70      32.9  T
     SCC iter.                  ...        0 min,  0.023 sec
     gradient                   ...        0 min,  0.012 sec
 * total energy  :  -104.8345550 Eh     change       -0.5210729E-04 Eh
   gradient norm :     0.0028373 Eh/α   predicted    -0.3689568E-04 ( -29.19%)
   displ. norm   :     0.1760652 α      lambda       -0.6659496E-04
   maximum displ.:     0.0742243 α      in ANC's #8, #28, #25, ...

........................................................................
.............................. CYCLE   28 ..............................
........................................................................

 iter      E             dE          RMSdq      gap      omega  full diag
   1   -106.2909993 -0.106291E+03  0.275E-02    2.70       0.0  T
   2   -106.2909996 -0.304648E-06  0.163E-02    2.70       1.0  T
   3   -106.2909993  0.267479E-06  0.218E-03    2.70       5.4  T
   4   -106.2909997 -0.342338E-06  0.630E-04    2.70      18.8  T
   5   -106.2909997 -0.145809E-07  0.326E-04    2.70      36.4  T
     SCC iter.                  ...        0 min,  0.023 sec
     gradient                   ...        0 min,  0.012 sec
 * total energy  :  -104.8346049 Eh     change       -0.4991461E-04 Eh
   gradient norm :     0.0032933 Eh/α   predicted    -0.3434248E-04 ( -31.20%)
   displ. norm   :     0.2271917 α      lambda       -0.7311009E-04
   maximum displ.:     0.0901295 α      in ANC's #8, #28, #25, ...

........................................................................
.............................. CYCLE   29 ..............................
........................................................................

 iter      E             dE          RMSdq      gap      omega  full diag
   1   -106.2912070 -0.106291E+03  0.346E-02    2.70       0.0  T
   2   -106.2912073 -0.308831E-06  0.205E-02    2.70       1.0  T
   3   -106.2912071  0.246451E-06  0.241E-03    2.70       4.9  T
   4   -106.2912074 -0.340933E-06  0.840E-04    2.70      14.1  T
   5   -106.2912074 -0.190314E-07  0.430E-04    2.70      27.6  T
     SCC iter.                  ...        0 min,  0.023 sec
     gradient                   ...        0 min,  0.010 sec
 * total energy  :  -104.8346593 Eh     change       -0.5442457E-04 Eh
   gradient norm :     0.0039086 Eh/α   predicted    -0.3844385E-04 ( -29.36%)
   displ. norm   :     0.2309086 α      lambda       -0.8109846E-04
   maximum displ.:     0.0988960 α      in ANC's #28, #8, #25, ...

........................................................................
.............................. CYCLE   30 ..............................
........................................................................

 iter      E             dE          RMSdq      gap      omega  full diag
   1   -106.2922968 -0.106292E+03  0.354E-02    2.70       0.0  T
   2   -106.2922971 -0.294052E-06  0.210E-02    2.70       1.0  T
   3   -106.2922967  0.480392E-06  0.316E-03    2.70       3.8  T
   4   -106.2922973 -0.624779E-06  0.885E-04    2.70      13.4  T
   5   -106.2922973 -0.129341E-07  0.495E-04    2.70      24.0  T
     SCC iter.                  ...        0 min,  0.023 sec
     gradient                   ...        0 min,  0.011 sec
 * total energy  :  -104.8347141 Eh     change       -0.5472757E-04 Eh
   gradient norm :     0.0033637 Eh/α   predicted    -0.4271370E-04 ( -21.95%)
   displ. norm   :     0.3258519 α      lambda       -0.6965050E-04
   maximum displ.:     0.1215716 α      in ANC's #28, #8, #25, ...

........................................................................
.............................. CYCLE   31 ..............................
........................................................................

 iter      E             dE          RMSdq      gap      omega  full diag
   1   -106.2894471 -0.106289E+03  0.487E-02    2.71       0.0  T
   2   -106.2894493 -0.215367E-05  0.288E-02    2.71       1.0  T
   3   -106.2894479  0.135229E-05  0.574E-03    2.71       2.1  T
   4   -106.2894494 -0.146802E-05  0.219E-03    2.71       5.4  T
   5   -106.2894496 -0.242674E-06  0.709E-04    2.71      16.7  T
   6   -106.2894496 -0.348685E-08  0.359E-04    2.71      33.1  T
     SCC iter.                  ...        0 min,  0.027 sec
     gradient                   ...        0 min,  0.011 sec
 * total energy  :  -104.8347292 Eh     change       -0.1513270E-04 Eh
   gradient norm :     0.0054287 Eh/α   predicted    -0.3853628E-04 ( 154.66%)
   displ. norm   :     0.0870769 α      lambda       -0.1039575E-03
   maximum displ.:     0.0285105 α      in ANC's #8, #10, #27, ...

........................................................................
.............................. CYCLE   32 ..............................
........................................................................

 iter      E             dE          RMSdq      gap      omega  full diag
   1   -106.2927630 -0.106293E+03  0.201E-02    2.71       0.0  T
   2   -106.2927642 -0.121835E-05  0.115E-02    2.71       1.0  T
   3   -106.2927641  0.734488E-07  0.289E-03    2.71       4.1  T
   4   -106.2927643 -0.153909E-06  0.105E-03    2.71      11.3  T
   5   -106.2927643 -0.558545E-07  0.448E-04    2.71      26.5  T
   6   -106.2927643 -0.133409E-08  0.245E-04    2.71      48.5  T
     SCC iter.                  ...        0 min,  0.053 sec
     gradient                   ...        0 min,  0.013 sec
 * total energy  :  -104.8347722 Eh     change       -0.4301831E-04 Eh
   gradient norm :     0.0024218 Eh/α   predicted    -0.5238525E-04 (  21.77%)
   displ. norm   :     0.0604907 α      lambda       -0.2982963E-04
   maximum displ.:     0.0232861 α      in ANC's #3, #1, #24, ...

........................................................................
.............................. CYCLE   33 ..............................
........................................................................

 iter      E             dE          RMSdq      gap      omega  full diag
   1   -106.2925524 -0.106293E+03  0.116E-02    2.71       0.0  T
   2   -106.2925525 -0.545604E-07  0.693E-03    2.71       1.7  T
   3   -106.2925525  0.384629E-07  0.958E-04    2.71      12.4  T
   4   -106.2925525 -0.531488E-07  0.353E-04    2.71      33.6  T
     SCC iter.                  ...        0 min,  0.078 sec
     gradient                   ...        0 min,  0.008 sec
 * total energy  :  -104.8347921 Eh     change       -0.1992707E-04 Eh
   gradient norm :     0.0014861 Eh/α   predicted    -0.1497005E-04 ( -24.88%)
   displ. norm   :     0.2192910 α      lambda       -0.2954124E-04
   maximum displ.:     0.0832520 α      in ANC's #3, #28, #1, ...

........................................................................
.............................. CYCLE   34 ..............................
........................................................................

 iter      E             dE          RMSdq      gap      omega  full diag
   1   -106.2912768 -0.106291E+03  0.350E-02    2.71       0.0  T
   2   -106.2912773 -0.502215E-06  0.207E-02    2.71       1.0  T
   3   -106.2912770  0.350036E-06  0.300E-03    2.71       4.0  T
   4   -106.2912774 -0.454980E-06  0.117E-03    2.71      10.1  T
   5   -106.2912775 -0.512274E-07  0.503E-04    2.71      23.6  T
   6   -106.2912775  0.234593E-09  0.204E-04    2.71      58.1  T
     SCC iter.                  ...        0 min,  0.030 sec
     gradient                   ...        0 min,  0.009 sec
 * total energy  :  -104.8348154 Eh     change       -0.2324809E-04 Eh
   gradient norm :     0.0028393 Eh/α   predicted    -0.1508735E-04 ( -35.10%)
   displ. norm   :     0.0603755 α      lambda       -0.2129172E-04
   maximum displ.:     0.0279117 α      in ANC's #3, #9, #1, ...

........................................................................
.............................. CYCLE   35 ..............................
........................................................................

 iter      E             dE          RMSdq      gap      omega  full diag
   1   -106.2920108 -0.106292E+03  0.109E-02    2.71       0.0  T
   2   -106.2920109 -0.100425E-06  0.640E-03    2.71       1.9  T
   3   -106.2920108  0.704111E-07  0.131E-03    2.71       9.1  T
   4   -106.2920109 -0.830548E-07  0.474E-04    2.71      25.0  T
   5   -106.2920109 -0.103023E-07  0.190E-04    2.71      62.4  T
     SCC iter.                  ...        0 min,  0.042 sec
     gradient                   ...        0 min,  0.009 sec
 * total energy  :  -104.8348326 Eh     change       -0.1715834E-04 Eh
   gradient norm :     0.0019058 Eh/α   predicted    -0.1068534E-04 ( -37.73%)
   displ. norm   :     0.3176374 α      lambda       -0.4353197E-04
   maximum displ.:     0.1459150 α      in ANC's #3, #1, #9, ...

........................................................................
.............................. CYCLE   36 ..............................
........................................................................

 iter      E             dE          RMSdq      gap      omega  full diag
   1   -106.2923782 -0.106292E+03  0.550E-02    2.71       0.0  T
   2   -106.2923789 -0.755751E-06  0.324E-02    2.71       1.0  T
   3   -106.2923784  0.487613E-06  0.379E-03    2.71       3.1  T
   4   -106.2923793 -0.851577E-06  0.146E-03    2.71       8.1  T
   5   -106.2923793 -0.325766E-07  0.795E-04    2.71      14.9  T
   6   -106.2923793 -0.480409E-08  0.325E-04    2.71      36.5  T
     SCC iter.                  ...        0 min,  0.043 sec
     gradient                   ...        0 min,  0.024 sec
 * total energy  :  -104.8348725 Eh     change       -0.3998538E-04 Eh
   gradient norm :     0.0020706 Eh/α   predicted    -0.2274307E-04 ( -43.12%)
   displ. norm   :     0.1655507 α      lambda       -0.2321057E-04
   maximum displ.:     0.0759580 α      in ANC's #3, #1, #9, ...

........................................................................
.............................. CYCLE   37 ..............................
........................................................................

 iter      E             dE          RMSdq      gap      omega  full diag
   1   -106.2920698 -0.106292E+03  0.272E-02    2.71       0.0  T
   2   -106.2920701 -0.212998E-06  0.160E-02    2.71       1.0  T
   3   -106.2920700  0.503924E-07  0.155E-03    2.71       7.7  T
   4   -106.2920701 -0.132672E-06  0.702E-04    2.71      16.9  T
   5   -106.2920702 -0.100461E-07  0.391E-04    2.71      30.4  T
     SCC iter.                  ...        0 min,  0.040 sec
     gradient                   ...        0 min,  0.013 sec
 * total energy  :  -104.8348917 Eh     change       -0.1919963E-04 Eh
   gradient norm :     0.0015701 Eh/α   predicted    -0.1192490E-04 ( -37.89%)
   displ. norm   :     0.3510278 α      lambda       -0.3503522E-04
   maximum displ.:     0.1701591 α      in ANC's #3, #1, #9, ...

........................................................................
.............................. CYCLE   38 ..............................
........................................................................

 iter      E             dE          RMSdq      gap      omega  full diag
   1   -106.2920955 -0.106292E+03  0.589E-02    2.71       0.0  T
   2   -106.2920963 -0.880831E-06  0.347E-02    2.71       1.0  T
   3   -106.2920956  0.721448E-06  0.415E-03    2.71       2.9  T
   4   -106.2920968 -0.117625E-05  0.147E-03    2.71       8.1  T
   5   -106.2920968 -0.206703E-07  0.855E-04    2.71      13.9  T
   6   -106.2920968 -0.109932E-07  0.343E-04    2.71      34.6  T
     SCC iter.                  ...        0 min,  0.031 sec
     gradient                   ...        0 min,  0.011 sec
 * total energy  :  -104.8349190 Eh     change       -0.2724750E-04 Eh
   gradient norm :     0.0016067 Eh/α   predicted    -0.1847879E-04 ( -32.18%)
   displ. norm   :     0.0691161 α      lambda       -0.9410699E-05
   maximum displ.:     0.0347278 α      in ANC's #3, #1, #9, ...

........................................................................
.............................. CYCLE   39 ..............................
........................................................................

 iter      E             dE          RMSdq      gap      omega  full diag
   1   -106.2925433 -0.106293E+03  0.130E-02    2.71       0.0  T
   2   -106.2925435 -0.123954E-06  0.762E-03    2.71       1.6  T
   3   -106.2925434  0.145009E-07  0.886E-04    2.71      13.4  T
   4   -106.2925435 -0.306503E-07  0.435E-04    2.71      27.3  T
     SCC iter.                  ...        0 min,  0.019 sec
     gradient                   ...        0 min,  0.015 sec
 * total energy  :  -104.8349294 Eh     change       -0.1045915E-04 Eh
   gradient norm :     0.0010927 Eh/α   predicted    -0.4716556E-05 ( -54.90%)
   displ. norm   :     0.2092537 α      lambda       -0.2302333E-04
   maximum displ.:     0.1053227 α      in ANC's #3, #1, #9, ...

........................................................................
.............................. CYCLE   40 ..............................
........................................................................

 iter      E             dE          RMSdq      gap      omega  full diag
   1   -106.2927828 -0.106293E+03  0.371E-02    2.71       0.0  T
   2   -106.2927835 -0.770433E-06  0.218E-02    2.71       1.0  T
   3   -106.2927835  0.274569E-07  0.200E-03    2.71       5.9  T
   4   -106.2927836 -0.145601E-06  0.111E-03    2.71      10.7  T
   5   -106.2927837 -0.446867E-07  0.528E-04    2.71      22.5  T
   6   -106.2927837 -0.143902E-08  0.254E-04    2.71      46.8  T
     SCC iter.                  ...        0 min,  0.055 sec
     gradient                   ...        0 min,  0.016 sec
 * total energy  :  -104.8349416 Eh     change       -0.1213376E-04 Eh
   gradient norm :     0.0032337 Eh/α   predicted    -0.1173617E-04 (  -3.28%)
   displ. norm   :     0.1076193 α      lambda       -0.2243825E-04
   maximum displ.:     0.0538741 α      in ANC's #3, #1, #9, ...

........................................................................
.............................. CYCLE   41 ..............................
........................................................................

 iter      E             dE          RMSdq      gap      omega  full diag
   1   -106.2926489 -0.106293E+03  0.178E-02    2.71       0.0  T
   2   -106.2926491 -0.225734E-06  0.104E-02    2.71       1.1  T
   3   -106.2926491  0.364390E-07  0.131E-03    2.71       9.1  T
   4   -106.2926491 -0.539273E-07  0.678E-04    2.71      17.5  T
   5   -106.2926491 -0.222118E-07  0.273E-04    2.71      43.5  T
     SCC iter.                  ...        0 min,  0.038 sec
     gradient                   ...        0 min,  0.014 sec
 * total energy  :  -104.8349575 Eh     change       -0.1587898E-04 Eh
   gradient norm :     0.0018792 Eh/α   predicted    -0.1135016E-04 ( -28.52%)
   displ. norm   :     0.2138875 α      lambda       -0.2099462E-04
   maximum displ.:     0.1090377 α      in ANC's #3, #1, #9, ...

........................................................................
.............................. CYCLE   42 ..............................
........................................................................

 iter      E             dE          RMSdq      gap      omega  full diag
   1   -106.2926904 -0.106293E+03  0.355E-02    2.71       0.0  T
   2   -106.2926909 -0.482837E-06  0.209E-02    2.71       1.0  T
   3   -106.2926908  0.101942E-06  0.208E-03    2.71       5.7  T
   4   -106.2926910 -0.204221E-06  0.996E-04    2.71      11.9  T
   5   -106.2926910 -0.373963E-07  0.495E-04    2.71      24.0  T
     SCC iter.                  ...        0 min,  0.030 sec
     gradient                   ...        0 min,  0.016 sec
 * total energy  :  -104.8349786 Eh     change       -0.2113367E-04 Eh
   gradient norm :     0.0019189 Eh/α   predicted    -0.1071150E-04 ( -49.32%)
   displ. norm   :     0.2459965 α      lambda       -0.2062703E-04
   maximum displ.:     0.1257469 α      in ANC's #3, #1, #9, ...
 * RMSD in coord.:     0.3725863 α      energy gain  -0.1009811E-02 Eh

generating ANC from exact Hessian ...
Using Lindh-Hessian (1995)
 Shifting diagonal of input Hessian by   9.967437440017745E-003
 Lowest  eigenvalues of input Hessian
    0.000000    0.000000    0.000000    0.000000    0.000000    0.000000
    0.010000    0.010085    0.010150    0.010186    0.010230    0.010458
    0.010522    0.010716    0.011046    0.011217    0.011483    0.011740
 Highest eigenvalues
    2.008956    2.011837    2.119943    2.124102    2.380464    2.381451
 

........................................................................
.............................. CYCLE   43 ..............................
........................................................................

 iter      E             dE          RMSdq      gap      omega  full diag
   1   -106.2923477 -0.106292E+03  0.398E-02    2.71       0.0  T
   2   -106.2923480 -0.362886E-06  0.235E-02    2.71       1.0  T
   3   -106.2923480  0.963121E-07  0.209E-03    2.71       5.7  T
   4   -106.2923482 -0.255259E-06  0.898E-04    2.71      13.2  T
   5   -106.2923482 -0.977734E-08  0.517E-04    2.71      22.9  T
     SCC iter.                  ...        0 min,  0.044 sec
     gradient                   ...        0 min,  0.016 sec
 * total energy  :  -104.8350055 Eh     change       -0.2689240E-04 Eh
   gradient norm :     0.0019326 Eh/α   predicted     0.0000000E+00 (-100.00%)
   displ. norm   :     0.0335441 α      lambda       -0.1267996E-04
   maximum displ.:     0.0153851 α      in ANC's #12, #10, #13, ...

........................................................................
.............................. CYCLE   44 ..............................
........................................................................

 iter      E             dE          RMSdq      gap      omega  full diag
   1   -106.2926903 -0.106293E+03  0.825E-03    2.71       0.0  T
   2   -106.2926905 -0.205160E-06  0.481E-03    2.71       2.5  T
   3   -106.2926904  0.731284E-07  0.159E-03    2.71       7.5  T
   4   -106.2926905 -0.738569E-07  0.639E-04    2.71      18.6  T
   5   -106.2926905 -0.241997E-07  0.164E-04    2.71      72.3  T
     SCC iter.                  ...        0 min,  0.041 sec
     gradient                   ...        0 min,  0.017 sec
 * total energy  :  -104.8350185 Eh     change       -0.1301760E-04 Eh
   gradient norm :     0.0006125 Eh/α   predicted    -0.6438517E-05 ( -50.54%)
   displ. norm   :     0.0740509 α      lambda       -0.1355446E-04
   maximum displ.:     0.0359159 α      in ANC's #12, #10, #1, ...

........................................................................
.............................. CYCLE   45 ..............................
........................................................................

 iter      E             dE          RMSdq      gap      omega  full diag
   1   -106.2928853 -0.106293E+03  0.151E-02    2.71       0.0  T
   2   -106.2928856 -0.220350E-06  0.889E-03    2.71       1.3  T
   3   -106.2928855  0.890892E-07  0.151E-03    2.71       7.8  T
   4   -106.2928856 -0.100892E-06  0.576E-04    2.71      20.6  T
   5   -106.2928856 -0.191081E-07  0.204E-04    2.71      58.1  T
     SCC iter.                  ...        0 min,  0.041 sec
     gradient                   ...        0 min,  0.017 sec
 * total energy  :  -104.8350327 Eh     change       -0.1415334E-04 Eh
   gradient norm :     0.0015232 Eh/α   predicted    -0.6799002E-05 ( -51.96%)
   displ. norm   :     0.1564059 α      lambda       -0.2240032E-04
   maximum displ.:     0.0749971 α      in ANC's #12, #10, #1, ...

........................................................................
.............................. CYCLE   46 ..............................
........................................................................

 iter      E             dE          RMSdq      gap      omega  full diag
   1   -106.2927444 -0.106293E+03  0.301E-02    2.71       0.0  T
   2   -106.2927447 -0.332833E-06  0.178E-02    2.71       1.0  T
   3   -106.2927445  0.174921E-06  0.199E-03    2.71       6.0  T
   4   -106.2927447 -0.232399E-06  0.750E-04    2.71      15.8  T
   5   -106.2927448 -0.246695E-07  0.338E-04    2.71      35.1  T
     SCC iter.                  ...        0 min,  0.032 sec
     gradient                   ...        0 min,  0.012 sec
 * total energy  :  -104.8350523 Eh     change       -0.1964576E-04 Eh
   gradient norm :     0.0024390 Eh/α   predicted    -0.1132461E-04 ( -42.36%)
   displ. norm   :     0.0871555 α      lambda       -0.1685471E-04
   maximum displ.:     0.0424511 α      in ANC's #10, #12, #1, ...

........................................................................
.............................. CYCLE   47 ..............................
........................................................................

 iter      E             dE          RMSdq      gap      omega  full diag
   1   -106.2926532 -0.106293E+03  0.162E-02    2.70       0.0  T
   2   -106.2926532 -0.549099E-07  0.953E-03    2.70       1.2  T
   3   -106.2926532  0.206766E-07  0.778E-04    2.70      15.3  T
   4   -106.2926532 -0.387183E-07  0.293E-04    2.70      40.5  T
     SCC iter.                  ...        0 min,  0.019 sec
     gradient                   ...        0 min,  0.013 sec
 * total energy  :  -104.8350670 Eh     change       -0.1469382E-04 Eh
   gradient norm :     0.0019064 Eh/α   predicted    -0.8501324E-05 ( -42.14%)
   displ. norm   :     0.3286052 α      lambda       -0.3997910E-04
   maximum displ.:     0.1594222 α      in ANC's #10, #12, #1, ...

........................................................................
.............................. CYCLE   48 ..............................
........................................................................

 iter      E             dE          RMSdq      gap      omega  full diag
   1   -106.2919716 -0.106292E+03  0.605E-02    2.70       0.0  T
   2   -106.2919728 -0.112685E-05  0.357E-02    2.70       1.0  T
   3   -106.2919725  0.301696E-06  0.307E-03    2.70       3.9  T
   4   -106.2919730 -0.535804E-06  0.122E-03    2.70       9.8  T
   5   -106.2919730 -0.519481E-07  0.646E-04    2.70      18.4  T
   6   -106.2919730 -0.564312E-08  0.310E-04    2.70      38.3  T
     SCC iter.                  ...        0 min,  0.027 sec
     gradient                   ...        0 min,  0.012 sec
 * total energy  :  -104.8351033 Eh     change       -0.3627166E-04 Eh
   gradient norm :     0.0018371 Eh/α   predicted    -0.2095112E-04 ( -42.24%)
   displ. norm   :     0.1662379 α      lambda       -0.1953993E-04
   maximum displ.:     0.0824167 α      in ANC's #10, #1, #12, ...

........................................................................
.............................. CYCLE   49 ..............................
........................................................................

 iter      E             dE          RMSdq      gap      omega  full diag
   1   -106.2922500 -0.106292E+03  0.307E-02    2.70       0.0  T
   2   -106.2922502 -0.206645E-06  0.181E-02    2.70       1.0  T
   3   -106.2922501  0.979040E-07  0.161E-03    2.70       7.4  T
   4   -106.2922502 -0.152491E-06  0.624E-04    2.70      19.0  T
   5   -106.2922502 -0.141349E-07  0.308E-04    2.70      38.5  T
     SCC iter.                  ...        0 min,  0.028 sec
     gradient                   ...        0 min,  0.017 sec
 * total energy  :  -104.8351291 Eh     change       -0.2587304E-04 Eh
   gradient norm :     0.0021846 Eh/α   predicted    -0.9931842E-05 ( -61.61%)
   displ. norm   :     0.3065900 α      lambda       -0.6333688E-04
   maximum displ.:     0.1483875 α      in ANC's #10, #9, #1, ...

........................................................................
.............................. CYCLE   50 ..............................
........................................................................

 iter      E             dE          RMSdq      gap      omega  full diag
   1   -106.2922513 -0.106292E+03  0.577E-02    2.70       0.0  T
   2   -106.2922518 -0.511682E-06  0.340E-02    2.70       1.0  T
   3   -106.2922516  0.206359E-06  0.259E-03    2.70       4.6  T
   4   -106.2922520 -0.413798E-06  0.944E-04    2.70      12.6  T
   5   -106.2922520 -0.154187E-07  0.551E-04    2.70      21.5  T
     SCC iter.                  ...        0 min,  0.034 sec
     gradient                   ...        0 min,  0.011 sec
 * total energy  :  -104.8351817 Eh     change       -0.5253472E-04 Eh
   gradient norm :     0.0023982 Eh/α   predicted    -0.3464557E-04 ( -34.05%)
   displ. norm   :     0.4820426 α      lambda       -0.8439986E-04
   maximum displ.:     0.2302422 α      in ANC's #10, #9, #1, ...

........................................................................
.............................. CYCLE   51 ..............................
........................................................................

 iter      E             dE          RMSdq      gap      omega  full diag
   1   -106.2906293 -0.106291E+03  0.911E-02    2.69       0.0  T
   2   -106.2906305 -0.121187E-05  0.537E-02    2.69       1.0  T
   3   -106.2906301  0.400393E-06  0.392E-03    2.69       3.0  T
   4   -106.2906310 -0.927974E-06  0.145E-03    2.69       8.2  T
   5   -106.2906311 -0.251488E-07  0.851E-04    2.69      14.0  T
   6   -106.2906311 -0.125674E-07  0.316E-04    2.69      37.5  T
     SCC iter.                  ...        0 min,  0.034 sec
     gradient                   ...        0 min,  0.010 sec
 * total energy  :  -104.8352417 Eh     change       -0.6002115E-04 Eh
   gradient norm :     0.0032672 Eh/α   predicted    -0.5200752E-04 ( -13.35%)
   displ. norm   :     0.3257887 α      lambda       -0.5668478E-04
   maximum displ.:     0.1498635 α      in ANC's #10, #9, #1, ...

........................................................................
.............................. CYCLE   52 ..............................
........................................................................

 iter      E             dE          RMSdq      gap      omega  full diag
   1   -106.2907643 -0.106291E+03  0.622E-02    2.68       0.0  T
   2   -106.2907649 -0.577187E-06  0.366E-02    2.68       1.0  T
   3   -106.2907649  0.623652E-07  0.231E-03    2.68       5.1  T
   4   -106.2907652 -0.299830E-06  0.966E-04    2.68      12.3  T
   5   -106.2907652 -0.122592E-07  0.552E-04    2.68      21.5  T
     SCC iter.                  ...        0 min,  0.028 sec
     gradient                   ...        0 min,  0.011 sec
 * total energy  :  -104.8352871 Eh     change       -0.4541063E-04 Eh
   gradient norm :     0.0031559 Eh/α   predicted    -0.3135283E-04 ( -30.96%)
   displ. norm   :     0.3758950 α      lambda       -0.8470153E-04
   maximum displ.:     0.1641246 α      in ANC's #10, #9, #1, ...

........................................................................
.............................. CYCLE   53 ..............................
........................................................................

 iter      E             dE          RMSdq      gap      omega  full diag
   1   -106.2918711 -0.106292E+03  0.724E-02    2.68       0.0  T
   2   -106.2918720 -0.932887E-06  0.426E-02    2.68       1.0  T
   3   -106.2918717  0.378110E-06  0.332E-03    2.68       3.6  T
   4   -106.2918724 -0.732909E-06  0.125E-03    2.68       9.5  T
   5   -106.2918724 -0.301840E-07  0.710E-04    2.68      16.7  T
   6   -106.2918724 -0.680913E-08  0.311E-04    2.68      38.1  T
     SCC iter.                  ...        0 min,  0.035 sec
     gradient                   ...        0 min,  0.012 sec
 * total energy  :  -104.8353589 Eh     change       -0.7183579E-04 Eh
   gradient norm :     0.0023649 Eh/α   predicted    -0.4833901E-04 ( -32.71%)
   displ. norm   :     0.5961265 α      lambda       -0.1324311E-03
   maximum displ.:     0.2578601 α      in ANC's #10, #9, #1, ...

........................................................................
.............................. CYCLE   54 ..............................
........................................................................

 iter      E             dE          RMSdq      gap      omega  full diag
   1   -106.2895075 -0.106290E+03  0.116E-01    2.67       0.0  T
   2   -106.2895098 -0.223610E-05  0.681E-02    2.67       1.0  T
   3   -106.2895086  0.120296E-05  0.588E-03    2.67       2.0  T
   4   -106.2895107 -0.212624E-05  0.210E-03    2.67       5.6  T
   5   -106.2895108 -0.741167E-07  0.119E-03    2.67       9.9  T
   6   -106.2895108 -0.277494E-07  0.436E-04    2.67      27.2  T
   7   -106.2895108 -0.562220E-08  0.121E-04    2.67      97.7  T
     SCC iter.                  ...        0 min,  0.040 sec
     gradient                   ...        0 min,  0.010 sec
 * total energy  :  -104.8354628 Eh     change       -0.1038843E-03 Eh
   gradient norm :     0.0033896 Eh/α   predicted    -0.8974667E-04 ( -13.61%)
   displ. norm   :     0.4335776 α      lambda       -0.1863926E-03
   maximum displ.:     0.2025576 α      in ANC's #9, #1, #8, ...

........................................................................
.............................. CYCLE   55 ..............................
........................................................................

 iter      E             dE          RMSdq      gap      omega  full diag
   1   -106.2960535 -0.106296E+03  0.873E-02    2.67       0.0  T
   2   -106.2960565 -0.300787E-05  0.515E-02    2.67       1.0  T
   3   -106.2960536  0.290820E-05  0.739E-03    2.67       1.6  T
   4   -106.2960572 -0.361737E-05  0.237E-03    2.67       5.0  T
   5   -106.2960575 -0.235285E-06  0.113E-03    2.67      10.5  T
   6   -106.2960575 -0.174339E-07  0.558E-04    2.67      21.3  T
   7   -106.2960575 -0.599240E-08  0.177E-04    2.67      67.1  T
     SCC iter.                  ...        0 min,  0.053 sec
     gradient                   ...        0 min,  0.010 sec
 * total energy  :  -104.8355264 Eh     change       -0.6354521E-04 Eh
   gradient norm :     0.0060781 Eh/α   predicted    -0.1107207E-03 (  74.24%)
   displ. norm   :     0.5474251 α      lambda       -0.1538695E-03
   maximum displ.:     0.2405251 α      in ANC's #9, #10, #1, ...

........................................................................
.............................. CYCLE   56 ..............................
........................................................................

 iter      E             dE          RMSdq      gap      omega  full diag
   1   -106.2870952 -0.106287E+03  0.108E-01    2.66       0.0  T
   2   -106.2870975 -0.226910E-05  0.638E-02    2.66       1.0  T
   3   -106.2870970  0.531327E-06  0.501E-03    2.65       2.4  T
   4   -106.2870984 -0.138102E-05  0.180E-03    2.65       6.6  T
   5   -106.2870984 -0.263623E-07  0.111E-03    2.65      10.7  T
   6   -106.2870984 -0.262960E-07  0.430E-04    2.65      27.6  T
   7   -106.2870984 -0.569899E-08  0.119E-04    2.65      99.6  T
     SCC iter.                  ...        0 min,  0.036 sec
     gradient                   ...        0 min,  0.010 sec
 * total energy  :  -104.8355943 Eh     change       -0.6791466E-04 Eh
   gradient norm :     0.0057050 Eh/α   predicted    -0.9999105E-04 (  47.23%)
   displ. norm   :     0.0869299 α      lambda       -0.7761009E-04
   maximum displ.:     0.0339914 α      in ANC's #10, #9, #13, ...

........................................................................
.............................. CYCLE   57 ..............................
........................................................................

 iter      E             dE          RMSdq      gap      omega  full diag
   1   -106.2905400 -0.106291E+03  0.192E-02    2.66       0.0  T
   2   -106.2905406 -0.630799E-06  0.113E-02    2.66       1.1  T
   3   -106.2905403  0.333285E-06  0.306E-03    2.66       3.9  T
   4   -106.2905407 -0.408751E-06  0.797E-04    2.66      14.9  T
   5   -106.2905407 -0.317073E-07  0.331E-04    2.66      35.8  T
     SCC iter.                  ...        0 min,  0.026 sec
     gradient                   ...        0 min,  0.011 sec
 * total energy  :  -104.8356443 Eh     change       -0.5001138E-04 Eh
   gradient norm :     0.0028230 Eh/α   predicted    -0.3910299E-04 ( -21.81%)
   displ. norm   :     0.3057768 α      lambda       -0.9979343E-04
   maximum displ.:     0.1589012 α      in ANC's #9, #1, #11, ...

........................................................................
.............................. CYCLE   58 ..............................
........................................................................

 iter      E             dE          RMSdq      gap      omega  full diag
   1   -106.2926815 -0.106293E+03  0.624E-02    2.66       0.0  T
   2   -106.2926824 -0.912955E-06  0.368E-02    2.66       1.0  T
   3   -106.2926824  0.147892E-07  0.233E-03    2.66       5.1  T
   4   -106.2926827 -0.251897E-06  0.997E-04    2.66      11.9  T
   5   -106.2926827 -0.202275E-07  0.544E-04    2.66      21.8  T
     SCC iter.                  ...        0 min,  0.023 sec
     gradient                   ...        0 min,  0.012 sec
 * total energy  :  -104.8357224 Eh     change       -0.7808334E-04 Eh
   gradient norm :     0.0018207 Eh/α   predicted    -0.5456664E-04 ( -30.12%)
   displ. norm   :     0.8598797 α      lambda       -0.1239118E-03
   maximum displ.:     0.4432683 α      in ANC's #9, #1, #10, ...

........................................................................
.............................. CYCLE   59 ..............................
........................................................................

 iter      E             dE          RMSdq      gap      omega  full diag
   1   -106.2894828 -0.106289E+03  0.173E-01    2.65       0.0  T
   2   -106.2894881 -0.522663E-05  0.102E-01    2.65       1.0  T
   3   -106.2894889 -0.796965E-06  0.508E-03    2.65       2.3  T
   4   -106.2894898 -0.971122E-06  0.259E-03    2.65       4.6  T
   5   -106.2894899 -0.100779E-06  0.139E-03    2.65       8.5  T
   6   -106.2894900 -0.246375E-07  0.587E-04    2.65      20.2  T
   7   -106.2894900 -0.149872E-07  0.174E-04    2.65      68.3  T
     SCC iter.                  ...        0 min,  0.030 sec
     gradient                   ...        0 min,  0.010 sec
 * total energy  :  -104.8358339 Eh     change       -0.1115098E-03 Eh
   gradient norm :     0.0060172 Eh/α   predicted    -0.8232112E-04 ( -26.18%)
   displ. norm   :     0.1771524 α      lambda       -0.8787317E-04
   maximum displ.:     0.0883109 α      in ANC's #9, #1, #14, ...

........................................................................
.............................. CYCLE   60 ..............................
........................................................................

 iter      E             dE          RMSdq      gap      omega  full diag
   1   -106.2936404 -0.106294E+03  0.364E-02    2.65       0.0  T
   2   -106.2936407 -0.311175E-06  0.215E-02    2.66       1.0  T
   3   -106.2936404  0.293080E-06  0.239E-03    2.66       5.0  T
   4   -106.2936408 -0.415508E-06  0.687E-04    2.66      17.3  T
[...]
         :: -> isotropic ES            0.122665136137 Eh    ::
         :: -> anisotropic ES          0.010382375442 Eh    ::
         :: -> anisotropic XC          0.035362461567 Eh    ::
         :: -> dispersion             -0.068492069837 Eh    ::
         :: repulsion energy           1.458280868824 Eh    ::
         :: add. restraining           0.000000000000 Eh    ::
         :: total charge              -0.000000000000 e     ::
         :::::::::::::::::::::::::::::::::::::::::::::::::::::

           -------------------------------------------------
          |                Property Printout                |
           -------------------------------------------------

    * Orbital Energies and Occupations

         #    Occupation            Energy/Eh            Energy/eV
      -------------------------------------------------------------
         1        2.0000           -0.7428827             -20.2149
       ...           ...                  ...                  ...
        82        2.0000           -0.4320753             -11.7574
        83        2.0000           -0.4255954             -11.5810
        84        2.0000           -0.4195212             -11.4158
        85        2.0000           -0.4189930             -11.4014
        86        2.0000           -0.4164244             -11.3315
        87        2.0000           -0.4131498             -11.2424
        88        2.0000           -0.4120225             -11.2117
        89        2.0000           -0.4090819             -11.1317
        90        2.0000           -0.4064409             -11.0598
        91        2.0000           -0.4000157             -10.8850
        92        2.0000           -0.3987480             -10.8505
        93        2.0000           -0.3736002             -10.1662
        94        2.0000           -0.3670565              -9.9881 (HOMO)
        95                         -0.2715136              -7.3883 (LUMO)
        96                         -0.2672445              -7.2721
        97                         -0.2188751              -5.9559
        98                         -0.2158776              -5.8743
        99                         -0.2092423              -5.6938
       100                         -0.2057477              -5.5987
       101                         -0.1634494              -4.4477
       102                         -0.1617982              -4.4028
       103                         -0.0853688              -2.3230
       104                         -0.0846888              -2.3045
       105                         -0.0123774              -0.3368
       ...                                ...                  ...
       176                          0.7031019              19.1324
      -------------------------------------------------------------
                  HL-Gap            0.0955430 Eh            2.5999 eV
             Fermi-level           -0.3192851 Eh           -8.6882 eV

     #   Z          covCN         q      C6AA      α(0)
     1   6 C        3.759    -0.111    22.668     6.788
     2   6 C        2.937    -0.008    28.212     8.711
     3   6 C        2.844    -0.083    30.064     8.986
     4   6 C        2.725     0.351    21.047     7.510
     5   8 O        0.856    -0.409    21.867     6.270
     6   8 O        1.704    -0.270    18.475     5.803
     7   6 C        3.702     0.078    19.430     6.303
     8   6 C        3.800    -0.070    21.835     6.653
     9   6 C        3.694     0.083    19.363     6.295
    10   8 O        1.706    -0.277    18.601     5.823
    11   6 C        2.864     0.139    24.973     8.191
    12   6 C        2.920    -0.057    29.416     8.894
    13   6 C        2.924    -0.039    28.970     8.827
    14   6 C        2.978     0.000    28.020     8.683
    15   6 C        2.928    -0.037    28.910     8.818
    16   6 C        2.916    -0.069    29.722     8.940
    17   6 C        3.909     0.018    20.214     6.391
    18   6 C        3.763    -0.104    22.530     6.766
    19   6 C        3.763    -0.104    22.527     6.766
    20   6 C        2.978     0.000    28.014     8.682
    21   6 C        2.929    -0.036    28.903     8.817
    22   6 C        2.916    -0.068    29.700     8.937
    23   6 C        2.864     0.139    24.965     8.190
    24   8 O        1.706    -0.276    18.584     5.820
    25   6 C        3.694     0.084    19.350     6.294
    26   6 C        3.800    -0.072    21.874     6.659
    27   6 C        3.704     0.075    19.465     6.308
    28   8 O        1.704    -0.267    18.426     5.796
    29   6 C        2.727     0.351    21.046     7.510
    30   8 O        0.856    -0.411    21.900     6.274
    31   6 C        2.937    -0.007    28.201     8.709
    32   6 C        3.759    -0.111    22.669     6.788
    33   6 C        2.844    -0.082    30.036     8.982
    34   6 C        2.920    -0.057    29.418     8.894
    35   6 C        2.924    -0.039    28.972     8.827
    36   1 H        0.925     0.069     2.095     2.264
    37   1 H        0.925     0.051     2.313     2.378
    38   1 H        0.925     0.062     2.173     2.305
    39   1 H        0.926     0.061     2.186     2.312
    40   1 H        0.926     0.055     2.256     2.349
    41   1 H        0.924     0.073     2.054     2.241
    42   1 H        0.924     0.054     2.268     2.355
    43   1 H        0.924     0.050     2.318     2.381
    44   1 H        0.924     0.072     2.061     2.245
    45   1 H        0.923     0.028     2.617     2.530
    46   1 H        0.923     0.035     2.514     2.479
    47   1 H        0.926     0.048     2.348     2.396
    48   1 H        0.926     0.042     2.424     2.435
    49   1 H        0.926     0.031     2.569     2.506
    50   1 H        0.926     0.027     2.629     2.536
    51   1 H        0.925     0.040     2.443     2.444
    52   1 H        0.925     0.037     2.491     2.468
    53   1 H        0.925     0.038     2.471     2.458
    54   1 H        0.925     0.037     2.489     2.467
    55   1 H        0.925     0.040     2.446     2.446
    56   1 H        0.925     0.038     2.477     2.461
    57   1 H        0.926     0.032     2.560     2.502
    58   1 H        0.926     0.028     2.619     2.531
    59   1 H        0.923     0.027     2.633     2.538
    60   1 H        0.923     0.033     2.544     2.494
    61   1 H        0.924     0.071     2.074     2.252
    62   1 H        0.924     0.063     2.169     2.303
    63   1 H        0.924     0.054     2.266     2.354
    64   1 H        0.924     0.059     2.215     2.327
    65   1 H        0.925     0.065     2.140     2.288
    66   1 H        0.925     0.067     2.120     2.277
    67   1 H        0.925     0.051     2.304     2.374
    68   1 H        0.926     0.057     2.234     2.337
    69   1 H        0.926     0.063     2.160     2.298
    70   1 H        0.926     0.045     2.381     2.413
    71   1 H        0.926     0.041     2.431     2.438

 Mol. C6AA /au·bohr⁶  :      51190.105772
 Mol. C8AA /au·bohr⁸  :    1185628.810306
 Mol. α(0) /au        :        349.087792


Wiberg/Mayer (AO) data.
largest (>0.10) Wiberg bond orders for each atom

 ---------------------------------------------------------------------------
     #   Z sym  total        # sym  WBO       # sym  WBO       # sym  WBO
 ---------------------------------------------------------------------------
     1   6 C    3.994 --     2 C    1.030    37 H    0.984    36 H    0.968
                            38 H    0.965
     2   6 C    3.986 --     3 C    1.880     1 C    1.030     4 C    0.991
     3   6 C    3.989 --     2 C    1.880    40 H    0.974    39 H    0.973
     4   6 C    3.917 --     5 O    1.733     6 O    1.117     2 C    0.991
     5   8 O    2.038 --     4 C    1.733     6 O    0.170
     6   8 O    2.301 --     4 C    1.117     7 C    0.946     5 O    0.170
     7   6 C    3.927 --     8 C    0.998    42 H    0.971    41 H    0.966
                             6 O    0.946
     8   6 C    3.993 --     9 C    1.002     7 C    0.998    43 H    0.975
                            44 H    0.973
     9   6 C    3.954 --     8 C    1.002    10 O    0.976    46 H    0.966
                            45 H    0.966
    10   8 O    2.221 --    11 C    1.050     9 C    0.976
    11   6 C    3.930 --    16 C    1.373    12 C    1.355    10 O    1.050
    12   6 C    3.987 --    13 C    1.464    11 C    1.355    47 H    0.968
                            15 C    0.110
    13   6 C    3.990 --    12 C    1.464    14 C    1.401    48 H    0.965
                            16 C    0.101
    14   6 C    3.986 --    15 C    1.413    13 C    1.401    17 C    0.978
    15   6 C    3.992 --    16 C    1.445    14 C    1.413    49 H    0.968
                            12 C    0.110
    16   6 C    3.987 --    15 C    1.445    11 C    1.373    50 H    0.967
                            13 C    0.101
    17   6 C    3.991 --    19 C    0.985    18 C    0.984    20 C    0.978
                            14 C    0.978
    18   6 C    3.995 --    52 H    0.985    53 H    0.985    17 C    0.984
                            51 H    0.982
    19   6 C    3.995 --    54 H    0.985    56 H    0.985    17 C    0.985
                            55 H    0.982
    20   6 C    3.986 --    21 C    1.412    35 C    1.401    17 C    0.978
    21   6 C    3.992 --    22 C    1.445    20 C    1.412    57 H    0.968
                            34 C    0.110
    22   6 C    3.988 --    21 C    1.445    23 C    1.373    58 H    0.967
                            35 C    0.101
    23   6 C    3.930 --    22 C    1.373    34 C    1.356    24 O    1.049
    24   8 O    2.219 --    23 C    1.049    25 C    0.977
    25   6 C    3.954 --    26 C    1.001    24 O    0.977    60 H    0.967
                            59 H    0.967
    26   6 C    3.990 --    25 C    1.001    27 C    0.997    62 H    0.974
                            61 H    0.973
    27   6 C    3.932 --    26 C    0.997    63 H    0.971    64 H    0.966
                            28 O    0.950
    28   8 O    2.300 --    29 C    1.113    27 C    0.950    30 O    0.168
    29   6 C    3.916 --    30 O    1.732    28 O    1.113    31 C    0.995
    30   8 O    2.035 --    29 C    1.732    28 O    0.168
    31   6 C    3.986 --    33 C    1.877    32 C    1.030    29 C    0.995
    32   6 C    3.994 --    31 C    1.030    67 H    0.985    65 H    0.966
                            66 H    0.966
    33   6 C    3.988 --    31 C    1.877    68 H    0.974    69 H    0.972
    34   6 C    3.986 --    35 C    1.463    23 C    1.356    70 H    0.968
                            21 C    0.110
    35   6 C    3.990 --    34 C    1.463    20 C    1.401    71 H    0.966
                            22 C    0.101
    36   1 H    0.995 --     1 C    0.968
    37   1 H    0.997 --     1 C    0.984
    38   1 H    0.996 --     1 C    0.965
    39   1 H    0.996 --     3 C    0.973
    40   1 H    0.997 --     3 C    0.974
    41   1 H    0.995 --     7 C    0.966
    42   1 H    0.997 --     7 C    0.971
    43   1 H    0.997 --     8 C    0.975
    44   1 H    0.995 --     8 C    0.973
    45   1 H    0.999 --     9 C    0.966
    46   1 H    0.999 --     9 C    0.966
    47   1 H    0.997 --    12 C    0.968
    48   1 H    0.998 --    13 C    0.965
    49   1 H    0.999 --    15 C    0.968
    50   1 H    0.999 --    16 C    0.967
    51   1 H    0.997 --    18 C    0.982
    52   1 H    0.998 --    18 C    0.985
    53   1 H    0.999 --    18 C    0.985
    54   1 H    0.998 --    19 C    0.985
    55   1 H    0.997 --    19 C    0.982
    56   1 H    0.999 --    19 C    0.985
    57   1 H    0.999 --    21 C    0.968
    58   1 H    0.999 --    22 C    0.967
    59   1 H    0.999 --    25 C    0.967
    60   1 H    0.999 --    25 C    0.967
    61   1 H    0.995 --    26 C    0.973
    62   1 H    0.996 --    26 C    0.974
    63   1 H    0.997 --    27 C    0.971
    64   1 H    0.997 --    27 C    0.966
    65   1 H    0.996 --    32 C    0.966
    66   1 H    0.996 --    32 C    0.966
    67   1 H    0.997 --    32 C    0.985
    68   1 H    0.997 --    33 C    0.974
    69   1 H    0.996 --    33 C    0.972
    70   1 H    0.998 --    34 C    0.968
    71   1 H    0.998 --    35 C    0.966
 ---------------------------------------------------------------------------

Topologies differ in total number of bonds
Writing topology from bond orders to xtbtopo.mol

molecular dipole:
                 x           y           z       tot (Debye)
 q only:       -0.103      -1.307       0.406
   full:       -0.125      -1.725       0.373       4.497
molecular quadrupole (traceless):
                xx          xy          yy          xz          yz          zz
 q only:        6.221      -2.018       5.348      -4.902       4.261     -11.569
  q+dip:       -0.236      -2.271       8.612      -4.965       2.845      -8.376
   full:       -0.622      -2.621       7.173      -2.184       4.393      -6.551

           -------------------------------------------------
          |                Geometry Summary                 |
           -------------------------------------------------

      molecular mass/u    :      480.5936376
   center of mass at/Å    :       -0.0009076      -0.0484866      -0.0335919
  moments of inertia/u·Å² :        0.3360690E+04   0.2011035E+05   0.2277240E+05
rotational constants/cm⁻¹ :        0.5016122E-02   0.8382566E-03   0.7402659E-03

 * 66 selected distances

     #   Z          #   Z                                           value/Å
     2   6 C        3   6 C                                       1.3285738
     4   6 C        5   8 O                                       1.2063486
     4   6 C        6   8 O                                       1.3419151
     6   8 O        7   6 C                                       1.4238435
     7   6 C        8   6 C                                       1.5279594
     8   6 C        9   6 C                                       1.5248095
     9   6 C       10   8 O                                       1.4087218
    10   8 O       11   6 C                                       1.3641407
    11   6 C       12   6 C                                       1.3931269
    12   6 C       13   6 C                                       1.3797852
    13   6 C       14   6 C                                       1.3898144
    14   6 C       15   6 C                                       1.3891565
    11   6 C       16   6 C                                       1.3896886
    15   6 C       16   6 C                                       1.3836091
    17   6 C       18   6 C                                       1.5356854 (max)
    17   6 C       19   6 C                                       1.5355438
    20   6 C       21   6 C                                       1.3893069
    21   6 C       22   6 C                                       1.3834661
    22   6 C       23   6 C                                       1.3896686
    23   6 C       24   8 O                                       1.3647309
    24   8 O       25   6 C                                       1.4091965
    25   6 C       26   6 C                                       1.5246352
    26   6 C       27   6 C                                       1.5263454
    27   6 C       28   8 O                                       1.4224105
    28   8 O       29   6 C                                       1.3437178
    29   6 C       30   8 O                                       1.2067729
    31   6 C       33   6 C                                       1.3287067
    23   6 C       34   6 C                                       1.3931273
    20   6 C       35   6 C                                       1.3896817
    34   6 C       35   6 C                                       1.3799101
     1   6 C       36   1 H                                       1.0884327
     1   6 C       37   1 H                                       1.0860468
     1   6 C       38   1 H                                       1.0894954
     3   6 C       39   1 H                                       1.0755229
     3   6 C       40   1 H                                       1.0773140
     7   6 C       41   1 H                                       1.0941864
     7   6 C       42   1 H                                       1.0928416
     8   6 C       43   1 H                                       1.0914391
     8   6 C       44   1 H                                       1.0907572
     9   6 C       45   1 H                                       1.1001631
     9   6 C       46   1 H                                       1.0990673
    12   6 C       47   1 H                                       1.0786774
    13   6 C       48   1 H                                       1.0781464
    15   6 C       49   1 H                                       1.0806711
    16   6 C       50   1 H                                       1.0790308
    18   6 C       51   1 H                                       1.0874187
    18   6 C       52   1 H                                       1.0884618
    18   6 C       53   1 H                                       1.0870687
    19   6 C       54   1 H                                       1.0884085
    19   6 C       55   1 H                                       1.0874326
    19   6 C       56   1 H                                       1.0871280
    21   6 C       57   1 H                                       1.0806255
    22   6 C       58   1 H                                       1.0789807
    25   6 C       59   1 H                                       1.1002387
    25   6 C       60   1 H                                       1.0989206
    26   6 C       61   1 H                                       1.0910545
    26   6 C       62   1 H                                       1.0912863
    27   6 C       63   1 H                                       1.0924988
    27   6 C       64   1 H                                       1.0958276
    32   6 C       65   1 H                                       1.0887777
    32   6 C       66   1 H                                       1.0886648
    32   6 C       67   1 H                                       1.0859556
    33   6 C       68   1 H                                       1.0772307
    33   6 C       69   1 H                                       1.0754355 (min)
    34   6 C       70   1 H                                       1.0787586
    35   6 C       71   1 H                                       1.0781725

 * 3 distinct bonds (by element types)

   Z      Z             #   av. dist./Å        max./Å        min./Å
   1 H    6 C          36     1.0869483     1.1002387     1.0754355
   6 C    6 C          20     1.4241300     1.5356854     1.3285738
   6 C    8 O          10     1.3491798     1.4238435     1.2063486


optimized geometry written to: xtbopt.xyz


           -------------------------------------------------
          | TOTAL ENERGY             -104.838627382152 Eh   |
          | GRADIENT NORM               0.000709312269 Eh/α |
          | HOMO-LUMO GAP               2.599856686927 eV   |
           -------------------------------------------------

------------------------------------------------------------------------
 * finished run on 2025/12/01 at 14:18:17.796     
------------------------------------------------------------------------
 total:
 * wall-time:     0 d,  0 h,  0 min,  9.113 sec
 *  cpu-time:     0 d,  0 h,  3 min, 27.998 sec
 * ratio c/w:    22.824 speedup
 SCF:
 * wall-time:     0 d,  0 h,  0 min,  0.094 sec
 *  cpu-time:     0 d,  0 h,  0 min,  2.144 sec
 * ratio c/w:    22.805 speedup
 ANC optimizer:
 * wall-time:     0 d,  0 h,  0 min,  8.985 sec
 *  cpu-time:     0 d,  0 h,  3 min, 25.399 sec
 * ratio c/w:    22.861 speedup

normal termination of xtb
