      -----------------------------------------------------------      
     |                   =====================                   |     
     |                           x T B                           |     
     |                   =====================                   |     
     |                         S. Grimme                         |     
     |          Mulliken Center for Theoretical Chemistry        |     
     |                    University of Bonn                     |     
      -----------------------------------------------------------      

   * xtb version 6.7.1 (edcfbbe) compiled by 'albert@albert-system' on 2024-07-22

   xtb is free software: you can redistribute it and/or modify it under
   the terms of the GNU Lesser General Public License as published by
   the Free Software Foundation, either version 3 of the License, or
   (at your option) any later version.
   
   xtb is distributed in the hope that it will be useful,
   but WITHOUT ANY WARRANTY; without even the implied warranty of
   MERCHANTABILITY or FITNESS FOR A PARTICULAR PURPOSE.  See the
   GNU Lesser General Public License for more details.
   
   Cite this work as:
   * C. Bannwarth, E. Caldeweyher, S. Ehlert, A. Hansen, P. Pracht,
     J. Seibert, S. Spicher, S. Grimme, WIREs Comput. Mol. Sci., 2020, 11,
     e01493. DOI: 10.1002/wcms.1493
   
   for GFN2-xTB:
   * C. Bannwarth, S. Ehlert and S. Grimme., J. Chem. Theory Comput., 2019,
     15, 1652-1671. DOI: 10.1021/acs.jctc.8b01176
   for GFN1-xTB:
   * S. Grimme, C. Bannwarth, P. Shushkov, J. Chem. Theory Comput., 2017,
     13, 1989-2009. DOI: 10.1021/acs.jctc.7b00118
   for GFN0-xTB:
   * P. Pracht, E. Caldeweyher, S. Ehlert, S. Grimme, ChemRxiv, 2019, preprint.
     DOI: 10.26434/chemrxiv.8326202.v1
   for GFN-FF:
   * S. Spicher and S. Grimme, Angew. Chem. Int. Ed., 2020, 59, 15665-15673.
     DOI: 10.1002/anie.202004239
   
   for ALPB and GBSA implicit solvation:
   * S. Ehlert, M. Stahn, S. Spicher, S. Grimme, J. Chem. Theory Comput.,
     2021, 17, 4250-4261. DOI: 10.1021/acs.jctc.1c00471
   
   for ddCOSMO and CPCM-X implicit solvation:
   * M. Stahn, S. Ehlert, S. Grimme, J. Phys. Chem. A,
     2023, XX, XXXX-XXXX. DOI: 10.1021/acs.jpca.3c04382
   
   for DFT-D4:
   * E. Caldeweyher, C. Bannwarth and S. Grimme, J. Chem. Phys., 2017,
     147, 034112. DOI: 10.1063/1.4993215
   * E. Caldeweyher, S. Ehlert, A. Hansen, H. Neugebauer, S. Spicher,
     C. Bannwarth and S. Grimme, J. Chem. Phys., 2019, 150, 154122.
     DOI: 10.1063/1.5090222
   * E. Caldeweyher, J.-M. Mewes, S. Ehlert and S. Grimme, Phys. Chem. Chem. Phys.
     2020, 22, 8499-8512. DOI: 10.1039/D0CP00502A
   
   for sTDA-xTB:
   * S. Grimme and C. Bannwarth, J. Chem. Phys., 2016, 145, 054103.
     DOI: 10.1063/1.4959605
   
   in the mass-spec context:
   * V. Asgeirsson, C. Bauer and S. Grimme, Chem. Sci., 2017, 8, 4879.
     DOI: 10.1039/c7sc00601b
   * J. Koopman and S. Grimme, ACS Omega 2019, 4, 12, 15120-15133.
     DOI: 10.1021/acsomega.9b02011
   
   for metadynamics refer to:
   * S. Grimme, J. Chem. Theory Comput., 2019, 155, 2847-2862
     DOI: 10.1021/acs.jctc.9b00143
   
   for SPH calculations refer to:
   * S. Spicher and S. Grimme, J. Chem. Theory Comput., 2021, 17, 1701-1714
     DOI: 10.1021/acs.jctc.0c01306
   
   for ONIOM refer to:
   * C. Plett, A. Katbashev, S. Ehlert, S. Grimme, M. Bursch,
     Phys. Chem. Chem. Phys., 2023, 25, 17860-17868. DOI: 10.1039/D3CP02178E
   
   for DIPRO refer to:
   * J. Kohn, N. Gildemeister, S. Grimme, D. Fazzi, A. Hansen,
     J. Chem. Phys., 2023, just accepted.
   
   for PTB refer to:
   * S. Grimme, M. Mueller, A. Hansen, J. Chem. Phys., 2023, 158, 124111.
     DOI: 10.1063/5.0137838
   
   with help from (in alphabetical order)
   P. Atkinson, C. Bannwarth, F. Bohle, G. Brandenburg, E. Caldeweyher
   M. Checinski, S. Dohm, S. Ehlert, S. Ehrlich, I. Gerasimov, C. Hölzer
   A. Katbashev, J. Kohn, J. Koopman, C. Lavigne, S. Lehtola, F. März, M. Müller,
   F. Musil, H. Neugebauer, J. Pisarek, C. Plett, P. Pracht, F. Pultar,
   J. Seibert, P. Shushkov, S. Spicher, M. Stahn, M. Steiner, T. Strunk,
   J. Stückrath, T. Rose, and J. Unsleber
   
 * started run on 2025/12/01 at 14:18:22.473     
   ID    Z sym.   atoms
    1    6 C      1-4, 7-9, 11-23, 25-27, 29, 31-35
    2    8 O      5, 6, 10, 24, 28, 30
    3    1 H      36-71

           -------------------------------------------------
          |                Calculation Setup                |
           -------------------------------------------------

          program call               : xtb pipeline_data/3_conformer_xyz/acrylates/rdkit/OPZLDVPRAIERSE-UHFFFAOYSA-N_conf84.xyz --opt --gfn 2-xTB --iterations 250
          coordinate file            : pipeline_data/3_conformer_xyz/acrylates/rdkit/OPZLDVPRAIERSE-UHFFFAOYSA-N_conf84.xyz
          omp threads                :                    24

########################################################################
[WARNING] Please study the warnings concerning your input carefully
-1- readin_getIntValue: could not parse '2-xTB'
########################################################################

           -------------------------------------------------
          |                 G F N 2 - x T B                 |
           -------------------------------------------------

        Reference                      10.1021/acs.jctc.8b01176
      * Hamiltonian:
        H0-scaling (s, p, d)           1.850000    2.230000    2.230000
        zeta-weighting                 0.500000
      * Dispersion:
        s8                             2.700000
        a1                             0.520000
        a2                             5.000000
        s9                             5.000000
      * Repulsion:
        kExp                           1.500000    1.000000
        rExp                           1.000000
      * Coulomb:
        alpha                          2.000000
        third order                    shell-resolved
        anisotropic                    true
        a3                             3.000000
        a5                             4.000000
        cn-shift                       1.200000
        cn-exp                         4.000000
        max-rad                        5.000000

q/qsh data taken from xtbrestart
CAMM data taken from xtbrestart

          ...................................................
          :                      SETUP                      :
          :.................................................:
          :  # basis functions                 176          :
          :  # atomic orbitals                 176          :
          :  # shells                          106          :
          :  # electrons                       188          :
          :  max. iterations                   250          :
          :  Hamiltonian                  GFN2-xTB          :
          :  restarted?                       true          :
          :  GBSA solvation                  false          :
          :  PC potential                    false          :
          :  electronic temp.          300.0000000     K    :
          :  accuracy                    1.0000000          :
          :  -> integral cutoff          0.2500000E+02      :
          :  -> integral neglect         0.1000000E-07      :
          :  -> SCF convergence          0.1000000E-05 Eh   :
          :  -> wf. convergence          0.1000000E-03 e    :
          :  Broyden damping             0.4000000          :
          :  net charge                          0          :
          :  unpaired electrons                  0          :
          ...................................................

 iter      E             dE          RMSdq      gap      omega  full diag
   1   -106.1529791 -0.106153E+03  0.480E+00    2.47       0.0  T
   2   -106.1643572 -0.113781E-01  0.285E+00    2.49       1.0  T
   3   -106.1604544  0.390282E-02  0.368E-01    2.41       1.0  T
   4   -106.1683443 -0.788997E-02  0.155E-01    2.38       1.0  T
   5   -106.1687816 -0.437277E-03  0.889E-02    2.40       1.0  T
   6   -106.1688483 -0.667055E-04  0.390E-02    2.42       1.0  T
   7   -106.1689257 -0.773809E-04  0.120E-02    2.41       1.0  T
   8   -106.1689280 -0.230368E-05  0.654E-03    2.41       1.8  T
   9   -106.1689293 -0.127997E-05  0.269E-03    2.41       4.4  T
  10   -106.1689294 -0.118667E-06  0.123E-03    2.41       9.6  T
  11   -106.1689294 -0.333520E-07  0.522E-04    2.41      22.7  T
  12   -106.1689295 -0.711445E-08  0.237E-04    2.41      50.0  T

   *** convergence criteria satisfied after 12 iterations ***

         #    Occupation            Energy/Eh            Energy/eV
      -------------------------------------------------------------
         1        2.0000           -0.7308798             -19.8883
       ...           ...                  ...                  ...
        88        2.0000           -0.4056263             -11.0377
        89        2.0000           -0.4047354             -11.0134
        90        2.0000           -0.4038626             -10.9897
        91        2.0000           -0.4007778             -10.9057
        92        2.0000           -0.4004334             -10.8963
        93        2.0000           -0.3770704             -10.2606
        94        2.0000           -0.3708146             -10.0904 (HOMO)
        95                         -0.2823720              -7.6837 (LUMO)
        96                         -0.2775902              -7.5536
        97                         -0.2223517              -6.0505
        98                         -0.2211544              -6.0179
        99                         -0.2125971              -5.7851
       ...                                ...                  ...
       176                          0.6807210              18.5234
      -------------------------------------------------------------
                  HL-Gap            0.0884426 Eh            2.4066 eV
             Fermi-level           -0.3265933 Eh           -8.8871 eV

 SCC (total)                   0 d,  0 h,  0 min,  0.094 sec
 SCC setup                      ...        0 min,  0.001 sec (  0.583%)
 Dispersion                     ...        0 min,  0.002 sec (  1.643%)
 classical contributions        ...        0 min,  0.000 sec (  0.138%)
 integral evaluation            ...        0 min,  0.005 sec (  5.583%)
 iterations                     ...        0 min,  0.074 sec ( 79.213%)
 molecular gradient             ...        0 min,  0.011 sec ( 11.977%)
 printout                       ...        0 min,  0.001 sec (  0.808%)

         :::::::::::::::::::::::::::::::::::::::::::::::::::::
         ::                     SUMMARY                     ::
         :::::::::::::::::::::::::::::::::::::::::::::::::::::
         :: total energy            -104.771792939287 Eh    ::
         :: gradient norm              0.219143377258 Eh/a0 ::
         :: HOMO-LUMO gap              2.406645315339 eV    ::
         ::.................................................::
         :: SCC energy              -106.169102137208 Eh    ::
         :: -> isotropic ES            0.132542987061 Eh    ::
         :: -> anisotropic ES          0.008085753693 Eh    ::
         :: -> anisotropic XC          0.037144638123 Eh    ::
         :: -> dispersion             -0.068125272007 Eh    ::
         :: repulsion energy           1.397309197921 Eh    ::
         :: add. restraining           0.000000000000 Eh    ::
         :: total charge              -0.000000000000 e     ::
         :::::::::::::::::::::::::::::::::::::::::::::::::::::

      ----------------------------------------------------------- 
     |                   =====================                   |
     |                        A N C O P T                        |
     |                   =====================                   |
     |               Approximate Normal Coordinate               |
     |                Rational Function Optimizer                |
      ----------------------------------------------------------- 
      ----------------------------------------------------------- 
     |                   =====================                   |
     |                        A N C O P T                        |
     |                   =====================                   |
     |               Approximate Normal Coordinate               |
     |                Rational Function Optimizer                |
      ----------------------------------------------------------- 

          ...................................................
          :                      SETUP                      :
          :.................................................:
          :   optimization level            normal          :
          :   max. optcycles                   213          :
          :   ANC micro-cycles                  20          :
          :   degrees of freedom               207          :
          :.................................................:
          :   RF solver                   davidson          :
          :   write xtbopt.log                true          :
          :   linear?                        false          :
          :   energy convergence         0.5000000E-05 Eh   :
          :   grad. convergence          0.1000000E-02 Eh/α :
          :   maxmium RF displ.          1.0000000          :
          :   Hlow (freq-cutoff)         0.1000000E-01      :
          :   Hmax (freq-cutoff)         5.0000000          :
          :   S6 in model hess.         20.0000000          :
          ...................................................

generating ANC from exact Hessian ...
Using Lindh-Hessian (1995)
 Shifting diagonal of input Hessian by   9.976327849649370E-003
 Lowest  eigenvalues of input Hessian
    0.000000    0.000000    0.000000    0.000000    0.000000    0.000000
    0.010000    0.010064    0.010143    0.010176    0.010238    0.010390
    0.010404    0.010860    0.011030    0.011208    0.011498    0.011732
 Highest eigenvalues
    2.020322    2.043078    2.057145    2.083596    2.153613    2.178075
 

........................................................................
.............................. CYCLE    1 ..............................
........................................................................

 iter      E             dE          RMSdq      gap      omega  full diag
   1   -106.1689295 -0.106169E+03  0.112E-04    2.41       0.0  T
   2   -106.1689295 -0.102816E-09  0.886E-05    2.41     134.0  T
   3   -106.1689295 -0.325173E-09  0.429E-05    2.41     276.5  T
     SCC iter.                  ...        0 min,  0.017 sec
     gradient                   ...        0 min,  0.010 sec
 * total energy  :  -104.7717929 Eh     change       -0.1604718E-08 Eh
   gradient norm :     0.2191427 Eh/α   predicted     0.0000000E+00 (-100.00%)
   displ. norm   :     0.4603753 α      lambda       -0.5699658E-01
   maximum displ.:     0.1667345 α      in ANC's #56, #83, #96, ...

........................................................................
.............................. CYCLE    2 ..............................
........................................................................

 iter      E             dE          RMSdq      gap      omega  full diag
   1   -106.2457662 -0.106246E+03  0.279E-01    2.62       0.0  T
   2   -106.2464512 -0.684952E-03  0.174E-01    2.60       1.0  T
   3   -106.2462616  0.189588E-03  0.938E-02    2.59       1.0  T
   4   -106.2465454 -0.283787E-03  0.327E-02    2.58       1.0  T
   5   -106.2466028 -0.573810E-04  0.875E-03    2.58       1.4  T
   6   -106.2466057 -0.297531E-05  0.401E-03    2.58       3.0  T
   7   -106.2466060 -0.260553E-06  0.187E-03    2.58       6.3  T
   8   -106.2466061 -0.973107E-07  0.699E-04    2.58      17.0  T
   9   -106.2466061 -0.848290E-08  0.305E-04    2.58      38.9  T
     SCC iter.                  ...        0 min,  0.047 sec
     gradient                   ...        0 min,  0.011 sec
 * total energy  :  -104.8129844 Eh     change       -0.4119146E-01 Eh
   gradient norm :     0.0958198 Eh/α   predicted    -0.3458898E-01 ( -16.03%)
   displ. norm   :     0.4614917 α      lambda       -0.2180239E-01
   maximum displ.:     0.1605625 α      in ANC's #56, #16, #39, ...

........................................................................
.............................. CYCLE    3 ..............................
........................................................................

 iter      E             dE          RMSdq      gap      omega  full diag
   1   -106.2850301 -0.106285E+03  0.209E-01    2.71       0.0  T
   2   -106.2854421 -0.412063E-03  0.128E-01    2.69       1.0  T
   3   -106.2853562  0.859450E-04  0.708E-02    2.69       1.0  T
   4   -106.2854990 -0.142865E-03  0.249E-02    2.68       1.0  T
   5   -106.2855312 -0.321693E-04  0.708E-03    2.68       1.7  T
   6   -106.2855333 -0.209205E-05  0.291E-03    2.68       4.1  T
   7   -106.2855335 -0.160389E-06  0.125E-03    2.68       9.5  T
   8   -106.2855335 -0.450458E-07  0.517E-04    2.68      23.0  T
   9   -106.2855335 -0.481029E-08  0.233E-04    2.68      51.0  T
     SCC iter.                  ...        0 min,  0.046 sec
     gradient                   ...        0 min,  0.010 sec
 * total energy  :  -104.8265373 Eh     change       -0.1355287E-01 Eh
   gradient norm :     0.0241306 Eh/α   predicted    -0.1322288E-01 (  -2.43%)
   displ. norm   :     0.4470486 α      lambda       -0.5413227E-02
   maximum displ.:     0.2134120 α      in ANC's #16, #15, #39, ...

........................................................................
.............................. CYCLE    4 ..............................
........................................................................

 iter      E             dE          RMSdq      gap      omega  full diag
   1   -106.2831864 -0.106283E+03  0.985E-02    2.68       0.0  T
   2   -106.2832120 -0.255829E-04  0.595E-02    2.68       1.0  T
   3   -106.2831848  0.271621E-04  0.249E-02    2.68       1.0  T
   4   -106.2832164 -0.315834E-04  0.663E-03    2.68       1.8  T
   5   -106.2832187 -0.225478E-05  0.232E-03    2.68       5.1  T
   6   -106.2832189 -0.202421E-06  0.106E-03    2.68      11.2  T
   7   -106.2832189 -0.162729E-07  0.499E-04    2.68      23.8  T
   8   -106.2832189 -0.681220E-08  0.191E-04    2.68      62.2  T
     SCC iter.                  ...        0 min,  0.091 sec
     gradient                   ...        0 min,  0.025 sec
 * total energy  :  -104.8304424 Eh     change       -0.3905171E-02 Eh
   gradient norm :     0.0135561 Eh/α   predicted    -0.3247734E-02 ( -16.84%)
   displ. norm   :     0.4996414 α      lambda       -0.3068476E-02
   maximum displ.:     0.2602199 α      in ANC's #16, #15, #10, ...

........................................................................
.............................. CYCLE    5 ..............................
........................................................................

 iter      E             dE          RMSdq      gap      omega  full diag
   1   -106.2817423 -0.106282E+03  0.811E-02    2.68       0.0  T
   2   -106.2817565 -0.141956E-04  0.486E-02    2.68       1.0  T
   3   -106.2817443  0.121577E-04  0.167E-02    2.68       1.0  T
   4   -106.2817570 -0.126252E-04  0.628E-03    2.68       1.9  T
   5   -106.2817590 -0.206502E-05  0.146E-03    2.68       8.2  T
   6   -106.2817591 -0.331357E-07  0.791E-04    2.68      15.0  T
   7   -106.2817591 -0.829777E-08  0.286E-04    2.68      41.5  T
     SCC iter.                  ...        0 min,  0.069 sec
     gradient                   ...        0 min,  0.014 sec
 * total energy  :  -104.8326869 Eh     change       -0.2244466E-02 Eh
   gradient norm :     0.0100090 Eh/α   predicted    -0.1917287E-02 ( -14.58%)
   displ. norm   :     0.5117172 α      lambda       -0.1978949E-02
   maximum displ.:     0.2712435 α      in ANC's #16, #15, #10, ...

........................................................................
.............................. CYCLE    6 ..............................
........................................................................

 iter      E             dE          RMSdq      gap      omega  full diag
   1   -106.2832015 -0.106283E+03  0.763E-02    2.69       0.0  T
   2   -106.2832089 -0.731662E-05  0.453E-02    2.69       1.0  T
   3   -106.2831994  0.948561E-05  0.134E-02    2.69       1.0  T
   4   -106.2832099 -0.104973E-04  0.428E-03    2.69       2.8  T
   5   -106.2832108 -0.913581E-06  0.138E-03    2.69       8.6  T
   6   -106.2832108 -0.229552E-07  0.790E-04    2.69      15.0  T
   7   -106.2832108 -0.100917E-07  0.298E-04    2.69      39.9  T
     SCC iter.                  ...        0 min,  0.048 sec
     gradient                   ...        0 min,  0.015 sec
 * total energy  :  -104.8341375 Eh     change       -0.1450623E-02 Eh
   gradient norm :     0.0096530 Eh/α   predicted    -0.1248572E-02 ( -13.93%)
   displ. norm   :     0.5203203 α      lambda       -0.1485766E-02
   maximum displ.:     0.2524116 α      in ANC's #16, #15, #10, ...

........................................................................
.............................. CYCLE    7 ..............................
........................................................................

 iter      E             dE          RMSdq      gap      omega  full diag
   1   -106.2861801 -0.106286E+03  0.856E-02    2.68       0.0  T
   2   -106.2861858 -0.567152E-05  0.507E-02    2.68       1.0  T
   3   -106.2861805  0.526517E-05  0.986E-03    2.68       1.2  T
   4   -106.2861869 -0.635339E-05  0.304E-03    2.68       3.9  T
   5   -106.2861873 -0.410411E-06  0.140E-03    2.68       8.5  T
   6   -106.2861873 -0.188077E-07  0.799E-04    2.68      14.9  T
   7   -106.2861873 -0.126434E-07  0.282E-04    2.68      42.1  T
     SCC iter.                  ...        0 min,  0.056 sec
     gradient                   ...        0 min,  0.014 sec
 * total energy  :  -104.8352084 Eh     change       -0.1070844E-02 Eh
   gradient norm :     0.0109845 Eh/α   predicted    -0.9440064E-03 ( -11.84%)
   displ. norm   :     0.4856295 α      lambda       -0.1076435E-02
   maximum displ.:     0.2111617 α      in ANC's #15, #16, #9, ...

........................................................................
.............................. CYCLE    8 ..............................
........................................................................

 iter      E             dE          RMSdq      gap      omega  full diag
   1   -106.2906626 -0.106291E+03  0.792E-02    2.69       0.0  T
   2   -106.2906663 -0.371644E-05  0.468E-02    2.69       1.0  T
   3   -106.2906612  0.502774E-05  0.102E-02    2.68       1.2  T
   4   -106.2906672 -0.593394E-05  0.281E-03    2.69       4.2  T
   5   -106.2906675 -0.327619E-06  0.131E-03    2.69       9.0  T
   6   -106.2906675 -0.229424E-07  0.675E-04    2.69      17.6  T
   7   -106.2906675 -0.778165E-08  0.242E-04    2.69      49.0  T
     SCC iter.                  ...        0 min,  0.077 sec
     gradient                   ...        0 min,  0.012 sec
 * total energy  :  -104.8359964 Eh     change       -0.7879953E-03 Eh
   gradient norm :     0.0084481 Eh/α   predicted    -0.6651494E-03 ( -15.59%)
   displ. norm   :     0.4476571 α      lambda       -0.7330948E-03
   maximum displ.:     0.1847128 α      in ANC's #15, #9, #13, ...

........................................................................
.............................. CYCLE    9 ..............................
........................................................................

 iter      E             dE          RMSdq      gap      omega  full diag
   1   -106.2932524 -0.106293E+03  0.770E-02    2.69       0.0  T
   2   -106.2932547 -0.233948E-05  0.454E-02    2.69       1.0  T
   3   -106.2932544  0.313540E-06  0.455E-03    2.69       2.6  T
   4   -106.2932553 -0.876890E-06  0.178E-03    2.69       6.7  T
   5   -106.2932553 -0.624461E-07  0.999E-04    2.69      11.9  T
   6   -106.2932553 -0.871140E-08  0.518E-04    2.69      22.9  T
     SCC iter.                  ...        0 min,  0.031 sec
     gradient                   ...        0 min,  0.012 sec
 * total energy  :  -104.8365405 Eh     change       -0.5441375E-03 Eh
   gradient norm :     0.0062693 Eh/α   predicted    -0.4400086E-03 ( -19.14%)
   displ. norm   :     0.4111262 α      lambda       -0.5108328E-03
   maximum displ.:     0.1713390 α      in ANC's #9, #13, #15, ...

........................................................................
.............................. CYCLE   10 ..............................
........................................................................

 iter      E             dE          RMSdq      gap      omega  full diag
   1   -106.2941221 -0.106294E+03  0.759E-02    2.69       0.0  T
   2   -106.2941241 -0.201169E-05  0.447E-02    2.69       1.0  T
   3   -106.2941228  0.134914E-05  0.570E-03    2.69       2.1  T
   4   -106.2941246 -0.182383E-05  0.202E-03    2.69       5.9  T
   5   -106.2941248 -0.150484E-06  0.984E-04    2.69      12.1  T
   6   -106.2941248 -0.108002E-07  0.488E-04    2.69      24.3  T
     SCC iter.                  ...        0 min,  0.031 sec
     gradient                   ...        0 min,  0.011 sec
 * total energy  :  -104.8369124 Eh     change       -0.3719185E-03 Eh
   gradient norm :     0.0054968 Eh/α   predicted    -0.2986079E-03 ( -19.71%)
   displ. norm   :     0.3701791 α      lambda       -0.3774860E-03
   maximum displ.:     0.1734125 α      in ANC's #9, #13, #28, ...

........................................................................
.............................. CYCLE   11 ..............................
........................................................................

 iter      E             dE          RMSdq      gap      omega  full diag
   1   -106.2946460 -0.106295E+03  0.712E-02    2.71       0.0  T
   2   -106.2946482 -0.225014E-05  0.419E-02    2.71       1.0  T
   3   -106.2946472  0.996193E-06  0.483E-03    2.70       2.5  T
   4   -106.2946486 -0.140047E-05  0.166E-03    2.70       7.1  T
   5   -106.2946487 -0.100709E-06  0.830E-04    2.70      14.3  T
   6   -106.2946487 -0.871326E-08  0.437E-04    2.71      27.2  T
     SCC iter.                  ...        0 min,  0.033 sec
     gradient                   ...        0 min,  0.010 sec
 * total energy  :  -104.8371833 Eh     change       -0.2708849E-03 Eh
   gradient norm :     0.0070389 Eh/α   predicted    -0.2146081E-03 ( -20.78%)
   displ. norm   :     0.3649892 α      lambda       -0.3584167E-03
   maximum displ.:     0.1904167 α      in ANC's #9, #13, #28, ...

........................................................................
.............................. CYCLE   12 ..............................
........................................................................

 iter      E             dE          RMSdq      gap      omega  full diag
   1   -106.2940141 -0.106294E+03  0.741E-02    2.70       0.0  T
   2   -106.2940160 -0.193474E-05  0.437E-02    2.70       1.0  T
   3   -106.2940125  0.356624E-05  0.810E-03    2.70       1.5  T
   4   -106.2940165 -0.406008E-05  0.201E-03    2.70       5.9  T
   5   -106.2940167 -0.178169E-06  0.802E-04    2.70      14.8  T
   6   -106.2940167 -0.373089E-08  0.429E-04    2.70      27.7  T
     SCC iter.                  ...        0 min,  0.036 sec
     gradient                   ...        0 min,  0.013 sec
 * total energy  :  -104.8374424 Eh     change       -0.2590625E-03 Eh
   gradient norm :     0.0063726 Eh/α   predicted    -0.2030848E-03 ( -21.61%)
   displ. norm   :     0.3712941 α      lambda       -0.3754518E-03
   maximum displ.:     0.2022777 α      in ANC's #9, #13, #5, ...

........................................................................
.............................. CYCLE   13 ..............................
........................................................................

 iter      E             dE          RMSdq      gap      omega  full diag
   1   -106.2953628 -0.106295E+03  0.739E-02    2.73       0.0  T
   2   -106.2953651 -0.234438E-05  0.436E-02    2.72       1.0  T
   3   -106.2953616  0.358297E-05  0.797E-03    2.72       1.5  T
   4   -106.2953656 -0.400395E-05  0.226E-03    2.72       5.3  T
   5   -106.2953658 -0.242890E-06  0.733E-04    2.72      16.2  T
   6   -106.2953658 -0.405902E-08  0.392E-04    2.72      30.3  T
     SCC iter.                  ...        0 min,  0.043 sec
     gradient                   ...        0 min,  0.009 sec
 * total energy  :  -104.8377214 Eh     change       -0.2790515E-03 Eh
   gradient norm :     0.0076863 Eh/α   predicted    -0.2136088E-03 ( -23.45%)
   displ. norm   :     0.4236513 α      lambda       -0.4041685E-03
   maximum displ.:     0.2394350 α      in ANC's #9, #13, #5, ...

........................................................................
.............................. CYCLE   14 ..............................
........................................................................

 iter      E             dE          RMSdq      gap      omega  full diag
   1   -106.2932068 -0.106293E+03  0.822E-02    2.72       0.0  T
   2   -106.2932098 -0.291113E-05  0.484E-02    2.72       1.0  T
   3   -106.2932089  0.875073E-06  0.470E-03    2.72       2.5  T
   4   -106.2932101 -0.118832E-05  0.202E-03    2.72       5.9  T
   5   -106.2932103 -0.197464E-06  0.830E-04    2.72      14.3  T
   6   -106.2932103 -0.610936E-08  0.443E-04    2.72      26.8  T
     SCC iter.                  ...        0 min,  0.042 sec
     gradient                   ...        0 min,  0.014 sec
 * total energy  :  -104.8380108 Eh     change       -0.2893564E-03 Eh
   gradient norm :     0.0070702 Eh/α   predicted    -0.2383547E-03 ( -17.63%)
   displ. norm   :     0.4040603 α      lambda       -0.4337415E-03
   maximum displ.:     0.2278703 α      in ANC's #9, #16, #5, ...

........................................................................
.............................. CYCLE   15 ..............................
........................................................................

 iter      E             dE          RMSdq      gap      omega  full diag
   1   -106.2968982 -0.106297E+03  0.780E-02    2.73       0.0  T
   2   -106.2969011 -0.294558E-05  0.458E-02    2.73       1.0  T
   3   -106.2968961  0.497167E-05  0.965E-03    2.73       1.2  T
   4   -106.2969017 -0.557609E-05  0.251E-03    2.73       4.7  T
   5   -106.2969020 -0.288749E-06  0.878E-04    2.73      13.5  T
   6   -106.2969020 -0.625130E-08  0.474E-04    2.73      25.1  T
     SCC iter.                  ...        0 min,  0.034 sec
     gradient                   ...        0 min,  0.010 sec
 * total energy  :  -104.8382597 Eh     change       -0.2488960E-03 Eh
   gradient norm :     0.0074579 Eh/α   predicted    -0.2522793E-03 (   1.36%)
   displ. norm   :     0.5254749 α      lambda       -0.4516674E-03
   maximum displ.:     0.2937858 α      in ANC's #9, #28, #5, ...

........................................................................
.............................. CYCLE   16 ..............................
........................................................................

 iter      E             dE          RMSdq      gap      omega  full diag
   1   -106.2894323 -0.106289E+03  0.103E-01    2.74       0.0  T
   2   -106.2894414 -0.903986E-05  0.604E-02    2.74       1.0  T
   3   -106.2894371  0.426352E-05  0.106E-02    2.74       1.1  T
   4   -106.2894418 -0.468063E-05  0.421E-03    2.74       2.8  T
   5   -106.2894428 -0.952812E-06  0.137E-03    2.74       8.7  T
   6   -106.2894428 -0.156609E-07  0.666E-04    2.74      17.8  T
   7   -106.2894428 -0.109549E-07  0.182E-04    2.74      65.4  T
     SCC iter.                  ...        0 min,  0.035 sec
     gradient                   ...        0 min,  0.014 sec
 * total energy  :  -104.8383958 Eh     change       -0.1361179E-03 Eh
   gradient norm :     0.0131874 Eh/α   predicted    -0.2881960E-03 ( 111.73%)
   displ. norm   :     0.1155039 α      lambda       -0.4065474E-03
   maximum displ.:     0.0457952 α      in ANC's #13, #10, #12, ...

........................................................................
.............................. CYCLE   17 ..............................
........................................................................

 iter      E             dE          RMSdq      gap      omega  full diag
   1   -106.2950970 -0.106295E+03  0.292E-02    2.73       0.0  T
   2   -106.2950995 -0.255445E-05  0.169E-02    2.73       1.0  T
   3   -106.2950989  0.659119E-06  0.533E-03    2.73       2.2  T
   4   -106.2950996 -0.729885E-06  0.214E-03    2.73       5.6  T
   5   -106.2950999 -0.249894E-06  0.664E-04    2.73      17.9  T
   6   -106.2950999 -0.673498E-08  0.323E-04    2.73      36.8  T
     SCC iter.                  ...        0 min,  0.031 sec
     gradient                   ...        0 min,  0.008 sec
 * total energy  :  -104.8386503 Eh     change       -0.2544667E-03 Eh
   gradient norm :     0.0060423 Eh/α   predicted    -0.2059878E-03 ( -19.05%)
   displ. norm   :     0.2895698 α      lambda       -0.2483701E-03
   maximum displ.:     0.1639210 α      in ANC's #9, #5, #23, ...

........................................................................
.............................. CYCLE   18 ..............................
........................................................................

 iter      E             dE          RMSdq      gap      omega  full diag
   1   -106.2940487 -0.106294E+03  0.574E-02    2.73       0.0  T
   2   -106.2940503 -0.154277E-05  0.338E-02    2.73       1.0  T
   3   -106.2940496  0.658185E-06  0.401E-03    2.73       3.0  T
   4   -106.2940505 -0.857809E-06  0.163E-03    2.73       7.3  T
   5   -106.2940506 -0.124002E-06  0.666E-04    2.73      17.8  T
   6   -106.2940506 -0.224223E-08  0.355E-04    2.73      33.4  T
     SCC iter.                  ...        0 min,  0.026 sec
     gradient                   ...        0 min,  0.010 sec
 * total energy  :  -104.8388135 Eh     change       -0.1632186E-03 Eh
   gradient norm :     0.0053618 Eh/α   predicted    -0.1346007E-03 ( -17.53%)
   displ. norm   :     0.3851897 α      lambda       -0.2574685E-03
   maximum displ.:     0.2099468 α      in ANC's #9, #5, #23, ...

........................................................................
.............................. CYCLE   19 ..............................
........................................................................

 iter      E             dE          RMSdq      gap      omega  full diag
   1   -106.2955238 -0.106296E+03  0.758E-02    2.72       0.0  T
   2   -106.2955261 -0.228746E-05  0.446E-02    2.72       1.0  T
   3   -106.2955246  0.153150E-05  0.594E-03    2.72       2.0  T
   4   -106.2955264 -0.187245E-05  0.213E-03    2.72       5.6  T
   5   -106.2955266 -0.210428E-06  0.912E-04    2.72      13.0  T
   6   -106.2955266 -0.625543E-08  0.435E-04    2.72      27.3  T
     SCC iter.                  ...        0 min,  0.026 sec
     gradient                   ...        0 min,  0.010 sec
 * total energy  :  -104.8389633 Eh     change       -0.1498318E-03 Eh
   gradient norm :     0.0053011 Eh/α   predicted    -0.1478356E-03 (  -1.33%)
   displ. norm   :     0.3427724 α      lambda       -0.1538719E-03
   maximum displ.:     0.1897576 α      in ANC's #9, #5, #28, ...

........................................................................
.............................. CYCLE   20 ..............................
........................................................................

 iter      E             dE          RMSdq      gap      omega  full diag
   1   -106.2936111 -0.106294E+03  0.639E-02    2.73       0.0  T
   2   -106.2936126 -0.143684E-05  0.376E-02    2.72       1.0  T
   3   -106.2936124  0.188046E-06  0.309E-03    2.72       3.8  T
   4   -106.2936128 -0.454234E-06  0.129E-03    2.72       9.2  T
   5   -106.2936129 -0.513656E-07  0.689E-04    2.72      17.2  T
   6   -106.2936129 -0.211465E-08  0.357E-04    2.72      33.3  T
     SCC iter.                  ...        0 min,  0.026 sec
     gradient                   ...        0 min,  0.010 sec
 * total energy  :  -104.8390580 Eh     change       -0.9470531E-04 Eh
   gradient norm :     0.0057543 Eh/α   predicted    -0.8598001E-04 (  -9.21%)
   displ. norm   :     0.1895964 α      lambda       -0.1509503E-03
   maximum displ.:     0.0934858 α      in ANC's #5, #9, #14, ...
 * RMSD in coord.:     0.6586536 α      energy gain  -0.6726508E-01 Eh

generating ANC from exact Hessian ...
Using Lindh-Hessian (1995)
 Shifting diagonal of input Hessian by   9.971646595059412E-003
 Lowest  eigenvalues of input Hessian
    0.000000    0.000000    0.000000    0.000000    0.000000    0.000000
    0.010000    0.010078    0.010152    0.010205    0.010266    0.010457
    0.010466    0.010808    0.011041    0.011314    0.011452    0.011827
 Highest eigenvalues
    2.008719    2.012096    2.117941    2.121217    2.380331    2.388572
 

........................................................................
.............................. CYCLE   21 ..............................
........................................................................

 iter      E             dE          RMSdq      gap      omega  full diag
   1   -106.2975590 -0.106298E+03  0.368E-02    2.73       0.0  T
   2   -106.2975608 -0.176530E-05  0.216E-02    2.72       1.0  T
   3   -106.2975602  0.625209E-06  0.440E-03    2.72       2.7  T
   4   -106.2975610 -0.824768E-06  0.136E-03    2.72       8.7  T
   5   -106.2975611 -0.755649E-07  0.607E-04    2.72      19.6  T
   6   -106.2975611 -0.657668E-08  0.345E-04    2.72      34.4  T
     SCC iter.                  ...        0 min,  0.027 sec
     gradient                   ...        0 min,  0.010 sec
 * total energy  :  -104.8391434 Eh     change       -0.8535522E-04 Eh
   gradient norm :     0.0045465 Eh/α   predicted     0.0000000E+00 (-100.00%)
   displ. norm   :     0.0438899 α      lambda       -0.6160914E-04
   maximum displ.:     0.0180893 α      in ANC's #16, #20, #17, ...

........................................................................
.............................. CYCLE   22 ..............................
........................................................................

 iter      E             dE          RMSdq      gap      omega  full diag
   1   -106.2976441 -0.106298E+03  0.131E-02    2.72       0.0  T
   2   -106.2976444 -0.224165E-06  0.776E-03    2.72       1.5  T
   3   -106.2976442  0.174198E-06  0.198E-03    2.72       6.0  T
   4   -106.2976444 -0.211878E-06  0.546E-04    2.72      21.7  T
   5   -106.2976444 -0.126050E-07  0.246E-04    2.72      48.2  T
     SCC iter.                  ...        0 min,  0.023 sec
     gradient                   ...        0 min,  0.010 sec
 * total energy  :  -104.8391856 Eh     change       -0.4225629E-04 Eh
   gradient norm :     0.0020342 Eh/α   predicted    -0.3196099E-04 ( -24.36%)
   displ. norm   :     0.0827515 α      lambda       -0.5979226E-04
   maximum displ.:     0.0371862 α      in ANC's #16, #20, #17, ...

........................................................................
.............................. CYCLE   23 ..............................
........................................................................

 iter      E             dE          RMSdq      gap      omega  full diag
   1   -106.2976225 -0.106298E+03  0.179E-02    2.72       0.0  T
   2   -106.2976228 -0.294468E-06  0.106E-02    2.72       1.1  T
   3   -106.2976224  0.345127E-06  0.261E-03    2.72       4.5  T
   4   -106.2976228 -0.416123E-06  0.659E-04    2.72      18.0  T
   5   -106.2976229 -0.155806E-07  0.311E-04    2.72      38.2  T
     SCC iter.                  ...        0 min,  0.026 sec
     gradient                   ...        0 min,  0.013 sec
 * total energy  :  -104.8392243 Eh     change       -0.3868689E-04 Eh
   gradient norm :     0.0023256 Eh/α   predicted    -0.3015189E-04 ( -22.06%)
   displ. norm   :     0.1032169 α      lambda       -0.4419441E-04
   maximum displ.:     0.0449464 α      in ANC's #16, #17, #5, ...

........................................................................
.............................. CYCLE   24 ..............................
........................................................................

 iter      E             dE          RMSdq      gap      omega  full diag
   1   -106.2973824 -0.106297E+03  0.182E-02    2.72       0.0  T
   2   -106.2973825 -0.110535E-06  0.108E-02    2.72       1.1  T
   3   -106.2973822  0.287842E-06  0.233E-03    2.72       5.1  T
   4   -106.2973825 -0.346824E-06  0.513E-04    2.72      23.1  T
   5   -106.2973825 -0.507231E-08  0.293E-04    2.72      40.5  T
     SCC iter.                  ...        0 min,  0.023 sec
     gradient                   ...        0 min,  0.014 sec
 * total energy  :  -104.8392594 Eh     change       -0.3507209E-04 Eh
   gradient norm :     0.0031336 Eh/α   predicted    -0.2233873E-04 ( -36.31%)
   displ. norm   :     0.2062929 α      lambda       -0.7623873E-04
   maximum displ.:     0.0837206 α      in ANC's #16, #5, #17, ...

........................................................................
.............................. CYCLE   25 ..............................
........................................................................

 iter      E             dE          RMSdq      gap      omega  full diag
   1   -106.2966805 -0.106297E+03  0.338E-02    2.73       0.0  T
   2   -106.2966809 -0.339884E-06  0.200E-02    2.73       1.0  T
   3   -106.2966805  0.368936E-06  0.303E-03    2.73       3.9  T
   4   -106.2966810 -0.526617E-06  0.981E-04    2.73      12.1  T
   5   -106.2966811 -0.192534E-07  0.518E-04    2.73      22.9  T
     SCC iter.                  ...        0 min,  0.026 sec
     gradient                   ...        0 min,  0.013 sec
 * total energy  :  -104.8393130 Eh     change       -0.5357035E-04 Eh
   gradient norm :     0.0034266 Eh/α   predicted    -0.3975413E-04 ( -25.79%)
   displ. norm   :     0.1676713 α      lambda       -0.4998707E-04
   maximum displ.:     0.0663131 α      in ANC's #5, #16, #17, ...

........................................................................
.............................. CYCLE   26 ..............................
........................................................................

 iter      E             dE          RMSdq      gap      omega  full diag
   1   -106.2965075 -0.106297E+03  0.271E-02    2.73       0.0  T
   2   -106.2965078 -0.253162E-06  0.160E-02    2.73       1.0  T
   3   -106.2965077  0.702450E-07  0.178E-03    2.73       6.7  T
   4   -106.2965079 -0.180095E-06  0.687E-04    2.73      17.3  T
   5   -106.2965079 -0.411033E-08  0.392E-04    2.73      30.3  T
     SCC iter.                  ...        0 min,  0.022 sec
     gradient                   ...        0 min,  0.012 sec
 * total energy  :  -104.8393499 Eh     change       -0.3697177E-04 Eh
   gradient norm :     0.0027714 Eh/α   predicted    -0.2570288E-04 ( -30.48%)
   displ. norm   :     0.1634745 α      lambda       -0.4705960E-04
   maximum displ.:     0.0695100 α      in ANC's #5, #18, #17, ...

........................................................................
.............................. CYCLE   27 ..............................
........................................................................

 iter      E             dE          RMSdq      gap      omega  full diag
   1   -106.2970066 -0.106297E+03  0.260E-02    2.73       0.0  T
   2   -106.2970068 -0.281842E-06  0.154E-02    2.73       1.0  T
   3   -106.2970065  0.320423E-06  0.255E-03    2.73       4.6  T
   4   -106.2970070 -0.456698E-06  0.713E-04    2.73      16.6  T
   5   -106.2970070 -0.311324E-08  0.457E-04    2.73      26.0  T
     SCC iter.                  ...        0 min,  0.022 sec
     gradient                   ...        0 min,  0.012 sec
 * total energy  :  -104.8393841 Eh     change       -0.3416070E-04 Eh
   gradient norm :     0.0018874 Eh/α   predicted    -0.2416121E-04 ( -29.27%)
   displ. norm   :     0.2241167 α      lambda       -0.3632468E-04
   maximum displ.:     0.1013045 α      in ANC's #5, #18, #2, ...

........................................................................
.............................. CYCLE   28 ..............................
........................................................................

 iter      E             dE          RMSdq      gap      omega  full diag
   1   -106.2977955 -0.106298E+03  0.350E-02    2.73       0.0  T
   2   -106.2977960 -0.471667E-06  0.207E-02    2.73       1.0  T
   3   -106.2977954  0.607345E-06  0.340E-03    2.73       3.5  T
   4   -106.2977962 -0.857739E-06  0.904E-04    2.73      13.1  T
   5   -106.2977962 -0.221017E-08  0.572E-04    2.73      20.7  T
     SCC iter.                  ...        0 min,  0.022 sec
     gradient                   ...        0 min,  0.013 sec
 * total energy  :  -104.8394165 Eh     change       -0.3245268E-04 Eh
   gradient norm :     0.0022926 Eh/α   predicted    -0.1857693E-04 ( -42.76%)
   displ. norm   :     0.0783741 α      lambda       -0.2039841E-04
   maximum displ.:     0.0370410 α      in ANC's #5, #2, #3, ...

........................................................................
.............................. CYCLE   29 ..............................
........................................................................

 iter      E             dE          RMSdq      gap      omega  full diag
   1   -106.2981195 -0.106298E+03  0.122E-02    2.73       0.0  T
   2   -106.2981195 -0.466004E-07  0.719E-03    2.73       1.7  T
   3   -106.2981195  0.382143E-07  0.102E-03    2.73      11.6  T
   4   -106.2981195 -0.600651E-07  0.340E-04    2.73      34.9  T
   5   -106.2981195 -0.159439E-08  0.197E-04    2.73      60.3  T
     SCC iter.                  ...        0 min,  0.022 sec
     gradient                   ...        0 min,  0.013 sec
 * total energy  :  -104.8394325 Eh     change       -0.1595041E-04 Eh
   gradient norm :     0.0019661 Eh/α   predicted    -0.1026203E-04 ( -35.66%)
   displ. norm   :     0.2521316 α      lambda       -0.3726806E-04
   maximum displ.:     0.1196909 α      in ANC's #5, #2, #3, ...

........................................................................
.............................. CYCLE   30 ..............................
........................................................................

 iter      E             dE          RMSdq      gap      omega  full diag
   1   -106.2982935 -0.106298E+03  0.351E-02    2.72       0.0  T
   2   -106.2982939 -0.379375E-06  0.207E-02    2.73       1.0  T
   3   -106.2982938  0.124477E-06  0.245E-03    2.73       4.8  T
   4   -106.2982940 -0.280796E-06  0.929E-04    2.73      12.8  T
   5   -106.2982940 -0.110697E-07  0.535E-04    2.73      22.2  T
     SCC iter.                  ...        0 min,  0.022 sec
     gradient                   ...        0 min,  0.012 sec
 * total energy  :  -104.8394599 Eh     change       -0.2740754E-04 Eh
   gradient norm :     0.0022387 Eh/α   predicted    -0.1916167E-04 ( -30.09%)
   displ. norm   :     0.0456278 α      lambda       -0.1184844E-04
   maximum displ.:     0.0224112 α      in ANC's #5, #2, #9, ...

........................................................................
.............................. CYCLE   31 ..............................
........................................................................

 iter      E             dE          RMSdq      gap      omega  full diag
   1   -106.2981799 -0.106298E+03  0.689E-03    2.73       0.0  T
   2   -106.2981799 -0.442405E-07  0.407E-03    2.73       2.9  T
   3   -106.2981799  0.269184E-07  0.781E-04    2.73      15.2  T
   4   -106.2981799 -0.299742E-07  0.332E-04    2.73      35.8  T
     SCC iter.                  ...        0 min,  0.018 sec
     gradient                   ...        0 min,  0.012 sec
 * total energy  :  -104.8394701 Eh     change       -0.1020840E-04 Eh
   gradient norm :     0.0015451 Eh/α   predicted    -0.5940813E-05 ( -41.80%)
   displ. norm   :     0.1867031 α      lambda       -0.3049767E-04
   maximum displ.:     0.0872693 α      in ANC's #5, #2, #9, ...

........................................................................
.............................. CYCLE   32 ..............................
........................................................................

 iter      E             dE          RMSdq      gap      omega  full diag
   1   -106.2980339 -0.106298E+03  0.280E-02    2.73       0.0  T
   2   -106.2980344 -0.491163E-06  0.165E-02    2.73       1.0  T
   3   -106.2980334  0.101415E-05  0.429E-03    2.73       2.8  T
   4   -106.2980345 -0.115350E-05  0.108E-03    2.73      11.0  T
   5   -106.2980346 -0.487665E-07  0.401E-04    2.73      29.6  T
   6   -106.2980346 -0.195490E-08  0.201E-04    2.73      59.2  T
     SCC iter.                  ...        0 min,  0.032 sec
     gradient                   ...        0 min,  0.012 sec
 * total energy  :  -104.8394903 Eh     change       -0.2020317E-04 Eh
   gradient norm :     0.0022447 Eh/α   predicted    -0.1548686E-04 ( -23.34%)
   displ. norm   :     0.0524847 α      lambda       -0.8634333E-05
   maximum displ.:     0.0270221 α      in ANC's #5, #2, #3, ...

........................................................................
.............................. CYCLE   33 ..............................
........................................................................

 iter      E             dE          RMSdq      gap      omega  full diag
   1   -106.2975723 -0.106298E+03  0.818E-03    2.73       0.0  T
   2   -106.2975723 -0.483682E-07  0.484E-03    2.73       2.4  T
   3   -106.2975723  0.286810E-07  0.819E-04    2.73      14.5  T
   4   -106.2975723 -0.371891E-07  0.281E-04    2.73      42.2  T
     SCC iter.                  ...        0 min,  0.020 sec
     gradient                   ...        0 min,  0.012 sec
 * total energy  :  -104.8394974 Eh     change       -0.7114724E-05 Eh
   gradient norm :     0.0017565 Eh/α   predicted    -0.4333024E-05 ( -39.10%)
   displ. norm   :     0.1690252 α      lambda       -0.2500794E-04
   maximum displ.:     0.0846217 α      in ANC's #5, #2, #9, ...

........................................................................
.............................. CYCLE   34 ..............................
........................................................................

 iter      E             dE          RMSdq      gap      omega  full diag
   1   -106.2981831 -0.106298E+03  0.265E-02    2.73       0.0  T
   2   -106.2981837 -0.601471E-06  0.157E-02    2.73       1.0  T
   3   -106.2981832  0.467768E-06  0.315E-03    2.73       3.8  T
   4   -106.2981837 -0.521440E-06  0.111E-03    2.73      10.7  T
   5   -106.2981838 -0.631450E-07  0.372E-04    2.73      31.9  T
   6   -106.2981838 -0.222400E-08  0.194E-04    2.73      61.1  T
     SCC iter.                  ...        0 min,  0.028 sec
     gradient                   ...        0 min,  0.011 sec
 * total energy  :  -104.8395181 Eh     change       -0.2066740E-04 Eh
   gradient norm :     0.0021457 Eh/α   predicted    -0.1266690E-04 ( -38.71%)
   displ. norm   :     0.1208596 α      lambda       -0.1578640E-04
   maximum displ.:     0.0611894 α      in ANC's #5, #2, #9, ...

........................................................................
.............................. CYCLE   35 ..............................
........................................................................

 iter      E             dE          RMSdq      gap      omega  full diag
   1   -106.2976620 -0.106298E+03  0.181E-02    2.73       0.0  T
   2   -106.2976621 -0.108989E-06  0.107E-02    2.73       1.1  T
   3   -106.2976620  0.268638E-07  0.989E-04    2.73      12.0  T
   4   -106.2976621 -0.495910E-07  0.448E-04    2.73      26.5  T
     SCC iter.                  ...        0 min,  0.019 sec
     gradient                   ...        0 min,  0.011 sec
 * total energy  :  -104.8395314 Eh     change       -0.1331611E-04 Eh
   gradient norm :     0.0020046 Eh/α   predicted    -0.8009990E-05 ( -39.85%)
   displ. norm   :     0.2817309 α      lambda       -0.3654724E-04
   maximum displ.:     0.1376926 α      in ANC's #5, #2, #9, ...

........................................................................
.............................. CYCLE   36 ..............................
........................................................................

 iter      E             dE          RMSdq      gap      omega  full diag
   1   -106.2970597 -0.106297E+03  0.440E-02    2.73       0.0  T
   2   -106.2970601 -0.371680E-06  0.260E-02    2.73       1.0  T
   3   -106.2970601  0.131332E-07  0.172E-03    2.73       6.9  T
   4   -106.2970602 -0.139557E-06  0.808E-04    2.73      14.7  T
   5   -106.2970602 -0.119930E-07  0.452E-04    2.73      26.2  T
     SCC iter.                  ...        0 min,  0.023 sec
     gradient                   ...        0 min,  0.016 sec
 * total energy  :  -104.8395595 Eh     change       -0.2810328E-04 Eh
   gradient norm :     0.0015964 Eh/α   predicted    -0.1972621E-04 ( -29.81%)
   displ. norm   :     0.4679804 α      lambda       -0.2953270E-04
   maximum displ.:     0.2278134 α      in ANC's #5, #2, #9, ...

........................................................................
.............................. CYCLE   37 ..............................
........................................................................

 iter      E             dE          RMSdq      gap      omega  full diag
   1   -106.2958663 -0.106296E+03  0.732E-02    2.73       0.0  T
   2   -106.2958673 -0.965942E-06  0.433E-02    2.73       1.0  T
   3   -106.2958673 -0.746724E-08  0.260E-03    2.73       4.6  T
   4   -106.2958676 -0.338224E-06  0.122E-03    2.73       9.7  T
   5   -106.2958676 -0.249394E-07  0.660E-04    2.73      18.0  T
   6   -106.2958677 -0.875396E-08  0.246E-04    2.73      48.3  T
     SCC iter.                  ...        0 min,  0.050 sec
     gradient                   ...        0 min,  0.012 sec
 * total energy  :  -104.8395840 Eh     change       -0.2446640E-04 Eh
   gradient norm :     0.0024006 Eh/α   predicted    -0.1620580E-04 ( -33.76%)
   displ. norm   :     0.0836985 α      lambda       -0.1702116E-04
   maximum displ.:     0.0386465 α      in ANC's #2, #5, #9, ...

........................................................................
.............................. CYCLE   38 ..............................
........................................................................

 iter      E             dE          RMSdq      gap      omega  full diag
   1   -106.2972236 -0.106297E+03  0.130E-02    2.73       0.0  T
   2   -106.2972237 -0.673957E-07  0.769E-03    2.73       1.5  T
   3   -106.2972236  0.113822E-06  0.149E-03    2.73       8.0  T
   4   -106.2972237 -0.131523E-06  0.401E-04    2.73      29.6  T
   5   -106.2972237 -0.641410E-08  0.155E-04    2.73      76.5  T
     SCC iter.                  ...        0 min,  0.026 sec
     gradient                   ...        0 min,  0.011 sec
 * total energy  :  -104.8395974 Eh     change       -0.1337095E-04 Eh
   gradient norm :     0.0014768 Eh/α   predicted    -0.8573795E-05 ( -35.88%)
   displ. norm   :     0.3972470 α      lambda       -0.2797396E-04
   maximum displ.:     0.1944781 α      in ANC's #5, #2, #9, ...

........................................................................
.............................. CYCLE   39 ..............................
........................................................................

 iter      E             dE          RMSdq      gap      omega  full diag
   1   -106.2982638 -0.106298E+03  0.590E-02    2.73       0.0  T
   2   -106.2982644 -0.640958E-06  0.348E-02    2.73       1.0  T
   3   -106.2982642  0.187231E-06  0.286E-03    2.73       4.2  T
   4   -106.2982646 -0.404595E-06  0.125E-03    2.73       9.5  T
   5   -106.2982647 -0.395953E-07  0.606E-04    2.73      19.6  T
   6   -106.2982647 -0.443291E-08  0.228E-04    2.73      52.1  T
     SCC iter.                  ...        0 min,  0.031 sec
     gradient                   ...        0 min,  0.010 sec
 * total energy  :  -104.8396196 Eh     change       -0.2227765E-04 Eh
   gradient norm :     0.0016441 Eh/α   predicted    -0.1496961E-04 ( -32.80%)
   displ. norm   :     0.2139112 α      lambda       -0.1153507E-04
   maximum displ.:     0.1053503 α      in ANC's #2, #5, #9, ...

........................................................................
.............................. CYCLE   40 ..............................
........................................................................

 iter      E             dE          RMSdq      gap      omega  full diag
   1   -106.2979597 -0.106298E+03  0.331E-02    2.73       0.0  T
   2   -106.2979599 -0.248171E-06  0.195E-02    2.73       1.0  T
   3   -106.2979599  0.525802E-07  0.154E-03    2.73       7.7  T
   4   -106.2979600 -0.118223E-06  0.703E-04    2.73      16.9  T
   5   -106.2979600 -0.153156E-07  0.352E-04    2.73      33.7  T
     SCC iter.                  ...        0 min,  0.024 sec
     gradient                   ...        0 min,  0.012 sec
 * total energy  :  -104.8396301 Eh     change       -0.1050333E-04 Eh
   gradient norm :     0.0010339 Eh/α   predicted    -0.5887027E-05 ( -43.95%)
   displ. norm   :     0.1898062 α      lambda       -0.1040606E-04
   maximum displ.:     0.0951618 α      in ANC's #2, #5, #3, ...

........................................................................
.............................. CYCLE   41 ..............................
........................................................................

 iter      E             dE          RMSdq      gap      omega  full diag
   1   -106.2975052 -0.106298E+03  0.271E-02    2.73       0.0  T
   2   -106.2975053 -0.162099E-06  0.160E-02    2.73       1.0  T
   3   -106.2975053  0.344629E-07  0.132E-03    2.73       9.0  T
   4   -106.2975054 -0.937912E-07  0.523E-04    2.73      22.7  T
   5   -106.2975054 -0.384358E-08  0.291E-04    2.73      40.8  T
     SCC iter.                  ...        0 min,  0.026 sec
     gradient                   ...        0 min,  0.012 sec
 * total energy  :  -104.8396422 Eh     change       -0.1207319E-04 Eh
   gradient norm :     0.0009186 Eh/α   predicted    -0.5288098E-05 ( -56.20%)
   displ. norm   :     0.2191634 α      lambda       -0.1536979E-04
   maximum displ.:     0.1117661 α      in ANC's #2, #5, #12, ...

........................................................................
.............................. CYCLE   42 ..............................
........................................................................

 iter      E             dE          RMSdq      gap      omega  full diag
   1   -106.2987463 -0.106299E+03  0.304E-02    2.73       0.0  T
   2   -106.2987466 -0.240517E-06  0.180E-02    2.73       1.0  T
   3   -106.2987464  0.107145E-06  0.185E-03    2.73       6.4  T
   4   -106.2987466 -0.193270E-06  0.635E-04    2.73      18.7  T
   5   -106.2987466 -0.526029E-08  0.370E-04    2.73      32.0  T
     SCC iter.                  ...        0 min,  0.021 sec
     gradient                   ...        0 min,  0.012 sec
 * total energy  :  -104.8396563 Eh     change       -0.1410667E-04 Eh
   gradient norm :     0.0012603 Eh/α   predicted    -0.7852858E-05 ( -44.33%)
   displ. norm   :     0.2758021 α      lambda       -0.1043522E-04
   maximum displ.:     0.1428633 α      in ANC's #2, #5, #3, ...
 * RMSD in coord.:     0.4106833 α      energy gain  -0.5982952E-03 Eh

generating ANC from exact Hessian ...
Using Lindh-Hessian (1995)
 Shifting diagonal of input Hessian by   9.970166510128543E-003
 Lowest  eigenvalues of input Hessian
    0.000000    0.000000    0.000000    0.000000    0.000000    0.000000
    0.010000    0.010074    0.010147    0.010212    0.010257    0.010447
    0.010471    0.010812    0.011013    0.011347    0.011451    0.011833
 Highest eigenvalues
    2.010128    2.011977    2.117839    2.122384    2.378983    2.383528
 

........................................................................
.............................. CYCLE   43 ..............................
........................................................................

 iter      E             dE          RMSdq      gap      omega  full diag
   1   -106.2970226 -0.106297E+03  0.398E-02    2.73       0.0  T
   2   -106.2970229 -0.334664E-06  0.235E-02    2.73       1.0  T
   3   -106.2970227  0.218800E-06  0.245E-03    2.73       4.8  T
   4   -106.2970231 -0.344400E-06  0.860E-04    2.73      13.8  T
   5   -106.2970231 -0.162179E-07  0.461E-04    2.73      25.8  T
     SCC iter.                  ...        0 min,  0.025 sec
     gradient                   ...        0 min,  0.008 sec
 * total energy  :  -104.8396636 Eh     change       -0.7322086E-05 Eh
   gradient norm :     0.0017133 Eh/α   predicted     0.0000000E+00 (-100.00%)
   displ. norm   :     0.0219151 α      lambda       -0.3043311E-05
   maximum displ.:     0.0096236 α      in ANC's #22, #5, #2, ...

........................................................................
.............................. CYCLE   44 ..............................
........................................................................

 iter      E             dE          RMSdq      gap      omega  full diag
   1   -106.2986321 -0.106299E+03  0.679E-03    2.73       0.0  T
   2   -106.2986322 -0.874455E-07  0.398E-03    2.73       3.0  T
   3   -106.2986321  0.111928E-06  0.161E-03    2.73       7.4  T
   4   -106.2986322 -0.128944E-06  0.449E-04    2.73      26.5  T
   5   -106.2986322 -0.895193E-08  0.123E-04    2.73      96.4  T
     SCC iter.                  ...        0 min,  0.025 sec
     gradient                   ...        0 min,  0.009 sec
 * total energy  :  -104.8396711 Eh     change       -0.7511043E-05 Eh
   gradient norm :     0.0005975 Eh/α   predicted    -0.4647509E-05 ( -38.12%)
   displ. norm   :     0.0256098 α      lambda       -0.3592254E-05
   maximum displ.:     0.0104693 α      in ANC's #22, #5, #11, ...

........................................................................
.............................. CYCLE   45 ..............................
........................................................................

 iter      E             dE          RMSdq      gap      omega  full diag
   1   -106.2987526 -0.106299E+03  0.472E-03    2.73       0.0  T
   2   -106.2987527 -0.143267E-07  0.280E-03    2.73       4.2  T
   3   -106.2987526  0.147140E-07  0.553E-04    2.73      21.5  T
   4   -106.2987527 -0.187085E-07  0.122E-04    2.73      97.0  T
     SCC iter.                  ...        0 min,  0.022 sec
     gradient                   ...        0 min,  0.021 sec
 * total energy  :  -104.8396749 Eh     change       -0.3733040E-05 Eh
   gradient norm :     0.0005714 Eh/α   predicted    -0.1798249E-05 ( -51.83%)
   displ. norm   :     0.0617593 α      lambda       -0.5910498E-05
   maximum displ.:     0.0240901 α      in ANC's #22, #5, #11, ...

   *** GEOMETRY OPTIMIZATION CONVERGED AFTER 45 ITERATIONS ***

------------------------------------------------------------------------
 total energy gain   :        -0.0678819 Eh      -42.5966 kcal/mol
 total RMSD          :         0.8925167 a0        0.4723 Å
 total power (kW/mol):        -3.9605335 (step)  -72.9499 (real)
------------------------------------------------------------------------

 ANCopt (total)                0 d,  0 h,  0 min,  2.443 sec
 optimizer setup                ...        0 min,  0.000 sec (  0.006%)
 model hessian                  ...        0 min,  0.118 sec (  4.850%)
 ANC generation                 ...        0 min,  0.012 sec (  0.504%)
 coordinate transformation      ...        0 min,  0.008 sec (  0.344%)
 single point calculation       ...        0 min,  2.228 sec ( 91.180%)
 optimization log               ...        0 min,  0.031 sec (  1.285%)
 hessian update                 ...        0 min,  0.020 sec (  0.825%)
 rational function              ...        0 min,  0.014 sec (  0.555%)

================
 final structure:
================
71
 xtb: 6.7.1 (edcfbbe)
C          -10.88452561675556       -1.96660010907564       -1.54810499087029
C           -9.54079213177811       -2.50188177307273       -1.92709442769179
C           -9.35413526963768       -3.56857895295791       -2.69661553778040
C           -8.39478898890275       -1.74190602602323       -1.35510619802825
O           -8.51948857759728       -0.80645298815620       -0.60336546474024
O           -7.20581783159630       -2.20438792409744       -1.77114938777376
C           -6.04753703160056       -1.54352113559389       -1.27191356400826
C           -5.69964230721227       -2.00705174284777        0.14198823193703
C           -4.34736587336058       -1.45891201689520        0.58388494309413
O           -4.42348857992957       -0.05168958886662        0.57798788606449
C           -3.34239493554006        0.66838052588023        0.99377483689751
C           -2.13488636843959        0.13055891858975        1.42256608174590
C           -1.11075559281807        0.97069990362940        1.82161736284092
C           -1.24522885229469        2.35314065151284        1.80054494586304
C           -2.45893027912526        2.87887465509799        1.37396602585996
C           -3.49054426866420        2.05363146358772        0.97577191757380
C           -0.08831065766128        3.20933594356093        2.29109234184504
C           -0.10352748524966        3.14391759652821        3.82506280728361
C           -0.21105021531887        4.68034597733717        1.86757332908489
C            1.20251790693736        2.67915710443074        1.68823497675257
C            1.24313900454181        2.41674259450058        0.32456128076070
C            2.38814981965724        1.95146777236540       -0.29662657219507
C            3.54034414452810        1.73713940160986        0.44975923577438
O            4.72526027130675        1.27251491977154       -0.04461838686826
C            4.79793563047709        0.90717230374930       -1.40446325793962
C            6.18233541147216        0.31975392123931       -1.65691174315394
C            6.37375349329843       -0.97266465870995       -0.87395284336395
O            7.68945115084205       -1.46289628071642       -1.11015772006395
C            7.88061426523994       -2.78234106439503       -0.98223910328856
O            7.00449696872477       -3.55702583835060       -0.68226601307054
C            9.29143126746277       -3.16721963531720       -1.25945538151464
C           10.23403882661968       -2.08370820258828       -1.67242739878177
C            9.63231454870134       -4.44446115797262       -1.12228342038338
C            3.51517823677460        2.01081724013296        1.81509504608539
C            2.36546551676620        2.47549291165987        2.42077489701564
H          -10.97430569567831       -0.93122527572586       -1.87196411820570
H          -11.67908943416774       -2.55683855974307       -1.99483636518893
H          -10.99126917069166       -1.97343695535850       -0.46469284977669
H          -10.18638019346881       -4.11847459440004       -3.10369578069979
H           -8.36812712363715       -3.92206214528044       -2.94021564406252
H           -6.21262845444172       -0.46210332757806       -1.26963020087928
H           -5.24937906479836       -1.79895303667375       -1.97267544761898
H           -6.47176911685862       -1.65356963420775        0.82635210420495
H           -5.67075362400921       -3.09777819592351        0.17124568554432
H           -4.11574571786604       -1.82582632503977        1.59343757059265
H           -3.55888470135054       -1.79923377851259       -0.10375332499839
H           -1.97714558995752       -0.93630171396837        1.45144137998857
H           -0.17803223571844        0.53389100062704        2.14857965359115
H           -2.61568570260097        3.94521715756060        1.34600830401805
H           -4.43216269771425        2.46281933178331        0.64500302471586
H            0.62712480617961        3.82670030795725        4.25219726080094
H            0.10280888396937        2.13460863532322        4.17219192145329
H           -1.08908502263093        3.43191569626466        4.18596740642423
H            0.70144532628950        5.20865225745961        2.13759722665219
H           -0.34702863606051        4.76503922620251        0.79241278305017
H           -1.04414919900831        5.16350911622305        2.37222940861177
H            0.35357627483063        2.56703696799179       -0.26999355213998
H            2.36717020254887        1.76130419316752       -1.35832644593014
H            4.64587840058624        1.78784415414830       -2.04408480458237
H            4.02567058604739        0.16176148833462       -1.64069433993878
H            6.93945863067456        1.03855876390633       -1.34335725927716
H            6.30439646135964        0.12688806494644       -2.72314722181394
H            6.25052826656744       -0.78505841094009        0.19743009632994
H            5.64867403629199       -1.73560338477078       -1.17871053940322
H           10.28463432146384       -1.31723795608243       -0.90153751740300
H            9.88007107309781       -1.60651282233667       -2.58445910255375
H           11.22817700291208       -2.48814601979219       -1.84231481078207
H           10.63466603555692       -4.79223533589122       -1.30426534965158
H            8.90050811793329       -5.17351831203353       -0.81853590947758
H            4.41505284897452        1.84819216104808        2.38729079630086
H            2.38856650552570        2.67233255173232        3.48041722714144
 
 Bond Distances (Angstroems)
 ---------------------------
C1-C2=1.4953         C1-H36=1.0886        C1-H37=1.0859        C1-H38=1.0887        C2-C1=1.4953         C2-C3=1.3285         
C2-C4=1.4893         C3-C2=1.3285         C3-H39=1.0774        C3-H40=1.0754        C4-C2=1.4893         C4-O5=1.2065         
C4-O6=1.3419         O5-C4=1.2065         O6-C4=1.3419         O6-C7=1.4239         C7-O6=1.4239         C7-C8=1.5281         
C7-H41=1.0939        C7-H42=1.0924        C8-C7=1.5281         C8-C9=1.5246         C8-H43=1.0906        C8-H44=1.0915        
C9-C8=1.5246         C9-O10=1.4093        C9-H45=1.0988        C9-H46=1.1002        O10-C9=1.4093        O10-C11=1.3639       
C11-O10=1.3639       C11-C12=1.3897       C11-C16=1.3933       C12-C11=1.3897       C12-C13=1.3834       C12-H47=1.0788       
C13-C12=1.3834       C13-C14=1.3891       C13-H48=1.0806       C14-C13=1.3891       C14-C15=1.3898       C14-C17=1.5206       
C15-C14=1.3898       C15-C16=1.3798       C15-H49=1.0782       C16-C11=1.3933       C16-C15=1.3798       C16-H50=1.0787       
C17-C14=1.5206       C17-C18=1.5354       C17-C19=1.5357       C17-C20=1.5201       C18-C17=1.5354       C18-H51=1.0874       
C18-H52=1.0871       C18-H53=1.0884       C19-C17=1.5357       C19-H54=1.0884       C19-H55=1.0870       C19-H56=1.0873       
C20-C17=1.5201       C20-C21=1.3893       C20-C35=1.3894       C21-C20=1.3893       C21-C22=1.3833       C21-H57=1.0805       
C22-C21=1.3833       C22-C23=1.3895       C22-H58=1.0788       C23-C22=1.3895       C23-O24=1.3654       C23-C34=1.3927       
O24-C23=1.3654       O24-C25=1.4099       C25-O24=1.4099       C25-C26=1.5249       C25-H59=1.0990       C25-H60=1.0990       
C26-C25=1.5249       C26-C27=1.5232       C26-H61=1.0901       C26-H62=1.0904       C27-C26=1.5232       C27-O28=1.4238       
C27-H63=1.0946       C27-H64=1.0958       O28-C27=1.4238       O28-C29=1.3393       C29-O28=1.3393       C29-O30=1.2074       
C29-C31=1.4884       O30-C29=1.2074       C31-C29=1.4884       C31-C32=1.4943       C31-C33=1.3290       C32-C31=1.4943       
C32-H65=1.0883       C32-H66=1.0885       C32-H67=1.0866       C33-C31=1.3290       C33-H68=1.0765       C33-H69=1.0767       
C34-C23=1.3927       C34-C35=1.3801       C34-H70=1.0787       C35-C20=1.3894       C35-C34=1.3801       C35-H71=1.0780       
H36-C1=1.0886        H37-C1=1.0859        H38-C1=1.0887        H39-C3=1.0774        H40-C3=1.0754        H41-C7=1.0939        
H42-C7=1.0924        H43-C8=1.0906        H44-C8=1.0915        H45-C9=1.0988        H46-C9=1.1002        H47-C12=1.0788       
H48-C13=1.0806       H49-C15=1.0782       H50-C16=1.0787       H51-C18=1.0874       H52-C18=1.0871       H53-C18=1.0884       
H54-C19=1.0884       H55-C19=1.0870       H56-C19=1.0873       H57-C21=1.0805       H58-C22=1.0788       H59-C25=1.0990       
H60-C25=1.0990       H61-C26=1.0901       H62-C26=1.0904       H63-C27=1.0946       H64-C27=1.0958       H65-C32=1.0883       
H66-C32=1.0885       H67-C32=1.0866       H68-C33=1.0765       H69-C33=1.0767       H70-C34=1.0787       H71-C35=1.0780       
 C  H  Rav=1.0869 sigma=0.0072  Rmin=1.0754  Rmax=1.1002    36
 C  C  Rav=1.4418 sigma=0.0704  Rmin=1.3285  Rmax=1.5357    26
 O  C  Rav=1.3491 sigma=0.0772  Rmin=1.2065  Rmax=1.4239    10
 
 selected bond angles (degree)
 --------------------
H36-C1-C2=109.83               H37-C1-C2=111.02               H37-C1-H36=109.53              H38-C1-C2=109.76               
H38-C1-H36=107.10              H38-C1-H37=109.53              C3-C2-C1=124.09                C4-C2-C1=114.30                
C4-C2-C3=121.61                H39-C3-C2=121.34               H40-C3-C2=121.60               H40-C3-H39=117.06              
O5-C4-C2=123.74                O6-C4-C2=112.76                O6-C4-O5=123.50                C7-O6-C4=116.88                
C8-C7-O6=111.64                H41-C7-O6=109.68               H41-C7-C8=109.41               H42-C7-O6=105.12               
H42-C7-C8=110.87               H42-C7-H41=110.04              C9-C8-C7=111.17                H43-C8-C7=108.73               
H43-C8-C9=109.24               H44-C8-C7=109.51               H44-C8-C9=109.15               H44-C8-H43=109.01              
O10-C9-C8=108.05               H45-C9-C8=109.46               H45-C9-O10=110.40              H46-C9-C8=110.08               
H46-C9-O10=110.18              H46-C9-H45=108.66              C11-O10-C9=118.89              
 
 selected dihedral angles (degree)
 ---------------------------------
C3-C2-C1-H36=238.00           C3-C2-C1-H37=359.28           C3-C2-C1-H38=120.51           C4-C2-C1-H36= 58.56           
C4-C2-C1-H37=179.84           C4-C2-C1-H38=301.07           H39-C3-C2-C1=  0.26           H39-C3-C2-C4=179.65           
H40-C3-C2-C1=180.31           H40-C3-C2-C4=359.71           O5-C4-C2-C1=  2.98            O5-C4-C2-C3=183.52            
O6-C4-C2-C1=183.32            O6-C4-C2-C3=  3.86            C7-O6-C4-C2=180.27            C7-O6-C4-O5=  0.61            
C8-C7-O6-C4= 79.76            H41-C7-O6-C4=318.32           H42-C7-O6-C4=200.05           C9-C8-C7-O6=171.30            
C9-C8-C7-H41=292.89           C9-C8-C7-H42= 54.44           H43-C8-C7-O6=291.59           H43-C8-C7-H41= 53.19          
H43-C8-C7-H42=174.74          H44-C8-C7-O6= 50.61           H44-C8-C7-H41=172.20          H44-C8-C7-H42=293.75          
O10-C9-C8-C7= 60.92           O10-C9-C8-H43=300.93          O10-C9-C8-H44=181.82          H45-C9-C8-C7=181.19           
H45-C9-C8-H43= 61.20          H45-C9-C8-H44=302.09          H46-C9-C8-C7=300.56           H46-C9-C8-H43=180.57          
H46-C9-C8-H44= 61.46          C11-O10-C9-C8=177.31          C11-O10-C9-H45= 57.63         C11-O10-C9-H46=297.61         
           -------------------------------------------------
          |                Final Singlepoint                |
           -------------------------------------------------

          ...................................................
          :                      SETUP                      :
          :.................................................:
          :  # basis functions                 176          :
          :  # atomic orbitals                 176          :
          :  # shells                          106          :
          :  # electrons                       188          :
          :  max. iterations                   250          :
          :  Hamiltonian                  GFN2-xTB          :
          :  restarted?                      false          :
          :  GBSA solvation                  false          :
          :  PC potential                    false          :
          :  electronic temp.          300.0000000     K    :
          :  accuracy                    1.0000000          :
          :  -> integral cutoff          0.2500000E+02      :
          :  -> integral neglect         0.1000000E-07      :
          :  -> SCF convergence          0.1000000E-05 Eh   :
          :  -> wf. convergence          0.1000000E-03 e    :
          :  Broyden damping             0.4000000          :
          :  net charge                          0          :
          :  unpaired electrons                  0          :
          ...................................................

 iter      E             dE          RMSdq      gap      omega  full diag
   1   -106.2987527 -0.106299E+03  0.668E-05    2.73       0.0  T
   2   -106.2987527 -0.180052E-10  0.471E-05    2.73     251.7  T
   3   -106.2987527 -0.586340E-10  0.279E-05    2.73     426.0  T

   *** convergence criteria satisfied after 3 iterations ***

         #    Occupation            Energy/Eh            Energy/eV
      -------------------------------------------------------------
         1        2.0000           -0.7394793             -20.1223
       ...           ...                  ...                  ...
        88        2.0000           -0.4103035             -11.1649
        89        2.0000           -0.4082616             -11.1094
        90        2.0000           -0.4073739             -11.0852
        91        2.0000           -0.4015806             -10.9276
        92        2.0000           -0.3991058             -10.8602
        93        2.0000           -0.3749545             -10.2030
        94        2.0000           -0.3678349             -10.0093 (HOMO)
        95                         -0.2675330              -7.2799 (LUMO)
        96                         -0.2669022              -7.2628
        97                         -0.2203028              -5.9947
        98                         -0.2163229              -5.8864
        99                         -0.2105152              -5.7284
       ...                                ...                  ...
       176                          0.7044086              19.1679
      -------------------------------------------------------------
                  HL-Gap            0.1003019 Eh            2.7294 eV
             Fermi-level           -0.3176839 Eh           -8.6446 eV

 SCC (total)                   0 d,  0 h,  0 min,  0.044 sec
 SCC setup                      ...        0 min,  0.002 sec (  4.213%)
 Dispersion                     ...        0 min,  0.000 sec (  1.004%)
 classical contributions        ...        0 min,  0.000 sec (  0.059%)
 integral evaluation            ...        0 min,  0.002 sec (  4.824%)
 iterations                     ...        0 min,  0.028 sec ( 64.043%)
 molecular gradient             ...        0 min,  0.011 sec ( 24.096%)
[...]
         :: -> isotropic ES            0.123684634556 Eh    ::
         :: -> anisotropic ES          0.009705809591 Eh    ::
         :: -> anisotropic XC          0.035335784300 Eh    ::
         :: -> dispersion             -0.068582978422 Eh    ::
         :: repulsion energy           1.459315677849 Eh    ::
         :: add. restraining           0.000000000000 Eh    ::
         :: total charge              -0.000000000000 e     ::
         :::::::::::::::::::::::::::::::::::::::::::::::::::::

           -------------------------------------------------
          |                Property Printout                |
           -------------------------------------------------

    * Orbital Energies and Occupations

         #    Occupation            Energy/Eh            Energy/eV
      -------------------------------------------------------------
         1        2.0000           -0.7394793             -20.1223
       ...           ...                  ...                  ...
        82        2.0000           -0.4314586             -11.7406
        83        2.0000           -0.4268720             -11.6158
        84        2.0000           -0.4208709             -11.4525
        85        2.0000           -0.4173883             -11.3577
        86        2.0000           -0.4161878             -11.3250
        87        2.0000           -0.4124623             -11.2237
        88        2.0000           -0.4103035             -11.1649
        89        2.0000           -0.4082616             -11.1094
        90        2.0000           -0.4073739             -11.0852
        91        2.0000           -0.4015806             -10.9276
        92        2.0000           -0.3991058             -10.8602
        93        2.0000           -0.3749545             -10.2030
        94        2.0000           -0.3678349             -10.0093 (HOMO)
        95                         -0.2675330              -7.2799 (LUMO)
        96                         -0.2669022              -7.2628
        97                         -0.2203028              -5.9947
        98                         -0.2163229              -5.8864
        99                         -0.2105152              -5.7284
       100                         -0.2064956              -5.6190
       101                         -0.1606136              -4.3705
       102                         -0.1599338              -4.3520
       103                         -0.0870157              -2.3678
       104                         -0.0849408              -2.3114
       105                         -0.0031838              -0.0866
       ...                                ...                  ...
       176                          0.7044086              19.1679
      -------------------------------------------------------------
                  HL-Gap            0.1003019 Eh            2.7294 eV
             Fermi-level           -0.3176839 Eh           -8.6446 eV

     #   Z          covCN         q      C6AA      α(0)
     1   6 C        3.759    -0.110    22.661     6.787
     2   6 C        2.937    -0.008    28.217     8.712
     3   6 C        2.844    -0.083    30.057     8.985
     4   6 C        2.726     0.350    21.052     7.512
     5   8 O        0.856    -0.410    21.881     6.271
     6   8 O        1.704    -0.270    18.478     5.804
     7   6 C        3.703     0.079    19.415     6.300
     8   6 C        3.800    -0.070    21.842     6.654
     9   6 C        3.694     0.083    19.367     6.296
    10   8 O        1.706    -0.278    18.605     5.824
    11   6 C        2.864     0.139    24.966     8.190
    12   6 C        2.916    -0.069    29.719     8.940
    13   6 C        2.928    -0.037    28.911     8.818
    14   6 C        2.978    -0.000    28.030     8.685
    15   6 C        2.924    -0.039    28.970     8.827
    16   6 C        2.920    -0.057    29.418     8.894
    17   6 C        3.909     0.018    20.215     6.391
    18   6 C        3.763    -0.104    22.529     6.766
    19   6 C        3.762    -0.104    22.528     6.766
    20   6 C        2.978     0.001    28.002     8.680
    21   6 C        2.929    -0.036    28.895     8.816
    22   6 C        2.917    -0.068    29.706     8.938
    23   6 C        2.864     0.138    24.982     8.193
    24   8 O        1.706    -0.281    18.664     5.833
    25   6 C        3.694     0.082    19.378     6.298
    26   6 C        3.801    -0.071    21.849     6.655
    27   6 C        3.703     0.079    19.411     6.299
    28   8 O        1.705    -0.263    18.354     5.784
    29   6 C        2.730     0.350    21.060     7.513
    30   8 O        0.856    -0.419    22.072     6.299
    31   6 C        2.938    -0.009    28.238     8.715
    32   6 C        3.757    -0.112    22.695     6.792
    33   6 C        2.850    -0.078    29.946     8.969
    34   6 C        2.920    -0.057    29.419     8.895
    35   6 C        2.924    -0.039    28.969     8.826
    36   1 H        0.925     0.065     2.142     2.288
    37   1 H        0.925     0.050     2.317     2.380
    38   1 H        0.925     0.066     2.130     2.282
    39   1 H        0.926     0.055     2.254     2.348
    40   1 H        0.926     0.062     2.176     2.307
    41   1 H        0.924     0.072     2.069     2.249
    42   1 H        0.924     0.055     2.259     2.350
    43   1 H        0.924     0.074     2.045     2.236
    44   1 H        0.924     0.050     2.319     2.381
    45   1 H        0.923     0.036     2.506     2.476
    46   1 H        0.923     0.028     2.613     2.528
    47   1 H        0.926     0.028     2.614     2.528
    48   1 H        0.926     0.032     2.564     2.504
    49   1 H        0.926     0.041     2.432     2.439
    50   1 H        0.926     0.047     2.355     2.400
    51   1 H        0.925     0.040     2.449     2.447
    52   1 H        0.925     0.038     2.472     2.458
    53   1 H        0.925     0.037     2.483     2.464
    54   1 H        0.925     0.036     2.496     2.471
    55   1 H        0.925     0.038     2.474     2.460
    56   1 H        0.925     0.041     2.440     2.443
    57   1 H        0.926     0.032     2.552     2.498
    58   1 H        0.926     0.028     2.612     2.528
    59   1 H        0.923     0.035     2.512     2.479
    60   1 H        0.923     0.032     2.557     2.501
    61   1 H        0.925     0.070     2.081     2.256
    62   1 H        0.924     0.054     2.272     2.357
    63   1 H        0.924     0.063     2.170     2.304
    64   1 H        0.924     0.059     2.215     2.327
    65   1 H        0.925     0.062     2.180     2.309
    66   1 H        0.925     0.059     2.208     2.323
    67   1 H        0.925     0.052     2.297     2.370
    68   1 H        0.926     0.057     2.236     2.338
    69   1 H        0.926     0.071     2.071     2.250
    70   1 H        0.926     0.044     2.390     2.418
    71   1 H        0.926     0.042     2.424     2.435

 Mol. C6AA /au·bohr⁶  :      51182.191489
 Mol. C8AA /au·bohr⁸  :    1185516.356099
 Mol. α(0) /au        :        349.057096


Wiberg/Mayer (AO) data.
largest (>0.10) Wiberg bond orders for each atom

 ---------------------------------------------------------------------------
     #   Z sym  total        # sym  WBO       # sym  WBO       # sym  WBO
 ---------------------------------------------------------------------------
     1   6 C    3.994 --     2 C    1.030    37 H    0.985    36 H    0.967
                            38 H    0.966
     2   6 C    3.987 --     3 C    1.879     1 C    1.030     4 C    0.993
     3   6 C    3.989 --     2 C    1.879    39 H    0.974    40 H    0.973
     4   6 C    3.917 --     5 O    1.732     6 O    1.117     2 C    0.993
     5   8 O    2.036 --     4 C    1.732     6 O    0.169
     6   8 O    2.301 --     4 C    1.117     7 C    0.946     5 O    0.169
     7   6 C    3.927 --     8 C    0.998    42 H    0.971    41 H    0.966
                             6 O    0.946
     8   6 C    3.992 --     9 C    1.002     7 C    0.998    44 H    0.975
                            43 H    0.972
     9   6 C    3.953 --     8 C    1.002    10 O    0.976    46 H    0.966
                            45 H    0.966
    10   8 O    2.221 --    11 C    1.051     9 C    0.976
    11   6 C    3.930 --    12 C    1.373    16 C    1.355    10 O    1.051
    12   6 C    3.987 --    13 C    1.445    11 C    1.373    47 H    0.967
                            15 C    0.101
    13   6 C    3.992 --    12 C    1.445    14 C    1.413    48 H    0.968
                            16 C    0.110
    14   6 C    3.986 --    13 C    1.413    15 C    1.401    17 C    0.977
    15   6 C    3.990 --    16 C    1.464    14 C    1.401    49 H    0.966
                            12 C    0.101
    16   6 C    3.986 --    15 C    1.464    11 C    1.355    50 H    0.968
                            13 C    0.110
    17   6 C    3.991 --    18 C    0.984    19 C    0.984    20 C    0.978
                            14 C    0.977
    18   6 C    3.995 --    53 H    0.985    52 H    0.985    17 C    0.984
                            51 H    0.982
    19   6 C    3.995 --    54 H    0.985    55 H    0.985    17 C    0.984
                            56 H    0.982
    20   6 C    3.986 --    21 C    1.411    35 C    1.402    17 C    0.978
    21   6 C    3.992 --    22 C    1.446    20 C    1.411    57 H    0.968
                            34 C    0.110
    22   6 C    3.988 --    21 C    1.446    23 C    1.373    58 H    0.967
                            35 C    0.101
    23   6 C    3.930 --    22 C    1.373    34 C    1.357    24 O    1.047
    24   8 O    2.216 --    23 C    1.047    25 C    0.976
    25   6 C    3.953 --    26 C    1.002    24 O    0.976    59 H    0.967
                            60 H    0.967
    26   6 C    3.992 --    27 C    1.005    25 C    1.002    62 H    0.975
                            61 H    0.973
    27   6 C    3.929 --    26 C    1.005    64 H    0.966    63 H    0.965
                            28 O    0.945
    28   8 O    2.309 --    29 C    1.125    27 C    0.945    30 O    0.172
    29   6 C    3.917 --    30 O    1.721    28 O    1.125    31 C    0.993
    30   8 O    2.030 --    29 C    1.721    28 O    0.172
    31   6 C    3.986 --    33 C    1.877    32 C    1.030    29 C    0.993
    32   6 C    3.995 --    31 C    1.030    67 H    0.984    66 H    0.969
                            65 H    0.968
    33   6 C    3.986 --    31 C    1.877    68 H    0.975    69 H    0.971
    34   6 C    3.987 --    35 C    1.462    23 C    1.357    70 H    0.968
                            21 C    0.110
    35   6 C    3.990 --    34 C    1.462    20 C    1.402    71 H    0.966
                            22 C    0.101
    36   1 H    0.996 --     1 C    0.967
    37   1 H    0.997 --     1 C    0.985
    38   1 H    0.996 --     1 C    0.966
    39   1 H    0.997 --     3 C    0.974
    40   1 H    0.996 --     3 C    0.973
    41   1 H    0.995 --     7 C    0.966
    42   1 H    0.997 --     7 C    0.971
    43   1 H    0.995 --     8 C    0.972
    44   1 H    0.997 --     8 C    0.975
    45   1 H    0.999 --     9 C    0.966
    46   1 H    0.999 --     9 C    0.966
    47   1 H    0.999 --    12 C    0.967
    48   1 H    0.999 --    13 C    0.968
    49   1 H    0.998 --    15 C    0.966
    50   1 H    0.997 --    16 C    0.968
    51   1 H    0.997 --    18 C    0.982
    52   1 H    0.999 --    18 C    0.985
    53   1 H    0.998 --    18 C    0.985
    54   1 H    0.998 --    19 C    0.985
    55   1 H    0.999 --    19 C    0.985
    56   1 H    0.997 --    19 C    0.982
    57   1 H    0.999 --    21 C    0.968
    58   1 H    0.999 --    22 C    0.967
    59   1 H    0.998 --    25 C    0.967
    60   1 H    0.999 --    25 C    0.967
    61   1 H    0.995 --    26 C    0.973
    62   1 H    0.997 --    26 C    0.975
    63   1 H    0.996 --    27 C    0.965
    64   1 H    0.997 --    27 C    0.966
    65   1 H    0.996 --    32 C    0.968
    66   1 H    0.996 --    32 C    0.969
    67   1 H    0.997 --    32 C    0.984
    68   1 H    0.996 --    33 C    0.975
    69   1 H    0.995 --    33 C    0.971
    70   1 H    0.998 --    34 C    0.968
    71   1 H    0.998 --    35 C    0.966
 ---------------------------------------------------------------------------

Topologies differ in total number of bonds
Writing topology from bond orders to xtbtopo.mol

molecular dipole:
                 x           y           z       tot (Debye)
 q only:        0.602       0.075      -0.682
   full:        0.700      -0.108      -0.899       2.909
molecular quadrupole (traceless):
                xx          xy          yy          xz          yz          zz
 q only:       15.052      23.044     -10.286      -2.611       4.972      -4.766
  q+dip:       11.807      24.913     -10.013      -1.160       4.589      -1.794
   full:        9.854      26.070     -10.212      -2.169       3.195       0.358

           -------------------------------------------------
          |                Geometry Summary                 |
           -------------------------------------------------

      molecular mass/u    :      480.5936376
   center of mass at/Å    :       -0.0183444      -0.0670995       0.0231126
  moments of inertia/u·Å² :        0.3851553E+04   0.1804461E+05   0.2114963E+05
rotational constants/cm⁻¹ :        0.4376840E-02   0.9342197E-03   0.7970650E-03

 * 66 selected distances

     #   Z          #   Z                                           value/Å
     2   6 C        3   6 C                                       1.3284753
     4   6 C        5   8 O                                       1.2065392
     4   6 C        6   8 O                                       1.3418771
     6   8 O        7   6 C                                       1.4239368
     7   6 C        8   6 C                                       1.5280740
     8   6 C        9   6 C                                       1.5245924
     9   6 C       10   8 O                                       1.4092923
    10   8 O       11   6 C                                       1.3638708
    11   6 C       12   6 C                                       1.3896731
    12   6 C       13   6 C                                       1.3834461
    13   6 C       14   6 C                                       1.3891256
    14   6 C       15   6 C                                       1.3897616
    11   6 C       16   6 C                                       1.3932670
    15   6 C       16   6 C                                       1.3797872
    17   6 C       18   6 C                                       1.5354403
    17   6 C       19   6 C                                       1.5356772 (max)
    20   6 C       21   6 C                                       1.3892868
    21   6 C       22   6 C                                       1.3832589
    22   6 C       23   6 C                                       1.3894533
    23   6 C       24   8 O                                       1.3653980
    24   8 O       25   6 C                                       1.4099416
    25   6 C       26   6 C                                       1.5249111
    26   6 C       27   6 C                                       1.5231585
    27   6 C       28   8 O                                       1.4237909
    28   8 O       29   6 C                                       1.3393436
    29   6 C       30   8 O                                       1.2073534
    31   6 C       33   6 C                                       1.3290462
    23   6 C       34   6 C                                       1.3927222
    20   6 C       35   6 C                                       1.3894392
    34   6 C       35   6 C                                       1.3800765
     1   6 C       36   1 H                                       1.0885525
     1   6 C       37   1 H                                       1.0859476
     1   6 C       38   1 H                                       1.0886795
     3   6 C       39   1 H                                       1.0773724
     3   6 C       40   1 H                                       1.0754086 (min)
     7   6 C       41   1 H                                       1.0939493
     7   6 C       42   1 H                                       1.0924143
     8   6 C       43   1 H                                       1.0906345
     8   6 C       44   1 H                                       1.0915012
     9   6 C       45   1 H                                       1.0988497
     9   6 C       46   1 H                                       1.1001673
    12   6 C       47   1 H                                       1.0788456
    13   6 C       48   1 H                                       1.0805922
    15   6 C       49   1 H                                       1.0781653
    16   6 C       50   1 H                                       1.0786511
    18   6 C       51   1 H                                       1.0874231
    18   6 C       52   1 H                                       1.0870962
    18   6 C       53   1 H                                       1.0883561
    19   6 C       54   1 H                                       1.0884249
    19   6 C       55   1 H                                       1.0870297
    19   6 C       56   1 H                                       1.0872803
    21   6 C       57   1 H                                       1.0804656
    22   6 C       58   1 H                                       1.0787999
    25   6 C       59   1 H                                       1.0990088
    25   6 C       60   1 H                                       1.0990159
    26   6 C       61   1 H                                       1.0900608
    26   6 C       62   1 H                                       1.0903919
    27   6 C       63   1 H                                       1.0946425
    27   6 C       64   1 H                                       1.0957615
    32   6 C       65   1 H                                       1.0882591
    32   6 C       66   1 H                                       1.0884901
    32   6 C       67   1 H                                       1.0866198
    33   6 C       68   1 H                                       1.0764632
    33   6 C       69   1 H                                       1.0767208
    34   6 C       70   1 H                                       1.0787166
    35   6 C       71   1 H                                       1.0780174

 * 3 distinct bonds (by element types)

   Z      Z             #   av. dist./Å        max./Å        min./Å
   1 H    6 C          36     1.0868549     1.1001673     1.0754086
   6 C    6 C          20     1.4239336     1.5356772     1.3284753
   6 C    8 O          10     1.3491344     1.4239368     1.2065392


optimized geometry written to: xtbopt.xyz


           -------------------------------------------------
          | TOTAL ENERGY             -104.839674878341 Eh   |
          | GRADIENT NORM               0.000571333005 Eh/α |
          | HOMO-LUMO GAP               2.729352837308 eV   |
           -------------------------------------------------

------------------------------------------------------------------------
 * finished run on 2025/12/01 at 14:18:25.091     
------------------------------------------------------------------------
 total:
 * wall-time:     0 d,  0 h,  0 min,  2.617 sec
 *  cpu-time:     0 d,  0 h,  0 min, 58.904 sec
 * ratio c/w:    22.508 speedup
 SCF:
 * wall-time:     0 d,  0 h,  0 min,  0.094 sec
 *  cpu-time:     0 d,  0 h,  0 min,  2.145 sec
 * ratio c/w:    22.790 speedup
 ANC optimizer:
 * wall-time:     0 d,  0 h,  0 min,  2.488 sec
 *  cpu-time:     0 d,  0 h,  0 min, 56.272 sec
 * ratio c/w:    22.615 speedup

normal termination of xtb
