      -----------------------------------------------------------      
     |                   =====================                   |     
     |                           x T B                           |     
     |                   =====================                   |     
     |                         S. Grimme                         |     
     |          Mulliken Center for Theoretical Chemistry        |     
     |                    University of Bonn                     |     
      -----------------------------------------------------------      

   * xtb version 6.7.1 (edcfbbe) compiled by 'albert@albert-system' on 2024-07-22

   xtb is free software: you can redistribute it and/or modify it under
   the terms of the GNU Lesser General Public License as published by
   the Free Software Foundation, either version 3 of the License, or
   (at your option) any later version.
   
   xtb is distributed in the hope that it will be useful,
   but WITHOUT ANY WARRANTY; without even the implied warranty of
   MERCHANTABILITY or FITNESS FOR A PARTICULAR PURPOSE.  See the
   GNU Lesser General Public License for more details.
   
   Cite this work as:
   * C. Bannwarth, E. Caldeweyher, S. Ehlert, A. Hansen, P. Pracht,
     J. Seibert, S. Spicher, S. Grimme, WIREs Comput. Mol. Sci., 2020, 11,
     e01493. DOI: 10.1002/wcms.1493
   
   for GFN2-xTB:
   * C. Bannwarth, S. Ehlert and S. Grimme., J. Chem. Theory Comput., 2019,
     15, 1652-1671. DOI: 10.1021/acs.jctc.8b01176
   for GFN1-xTB:
   * S. Grimme, C. Bannwarth, P. Shushkov, J. Chem. Theory Comput., 2017,
     13, 1989-2009. DOI: 10.1021/acs.jctc.7b00118
   for GFN0-xTB:
   * P. Pracht, E. Caldeweyher, S. Ehlert, S. Grimme, ChemRxiv, 2019, preprint.
     DOI: 10.26434/chemrxiv.8326202.v1
   for GFN-FF:
   * S. Spicher and S. Grimme, Angew. Chem. Int. Ed., 2020, 59, 15665-15673.
     DOI: 10.1002/anie.202004239
   
   for ALPB and GBSA implicit solvation:
   * S. Ehlert, M. Stahn, S. Spicher, S. Grimme, J. Chem. Theory Comput.,
     2021, 17, 4250-4261. DOI: 10.1021/acs.jctc.1c00471
   
   for ddCOSMO and CPCM-X implicit solvation:
   * M. Stahn, S. Ehlert, S. Grimme, J. Phys. Chem. A,
     2023, XX, XXXX-XXXX. DOI: 10.1021/acs.jpca.3c04382
   
   for DFT-D4:
   * E. Caldeweyher, C. Bannwarth and S. Grimme, J. Chem. Phys., 2017,
     147, 034112. DOI: 10.1063/1.4993215
   * E. Caldeweyher, S. Ehlert, A. Hansen, H. Neugebauer, S. Spicher,
     C. Bannwarth and S. Grimme, J. Chem. Phys., 2019, 150, 154122.
     DOI: 10.1063/1.5090222
   * E. Caldeweyher, J.-M. Mewes, S. Ehlert and S. Grimme, Phys. Chem. Chem. Phys.
     2020, 22, 8499-8512. DOI: 10.1039/D0CP00502A
   
   for sTDA-xTB:
   * S. Grimme and C. Bannwarth, J. Chem. Phys., 2016, 145, 054103.
     DOI: 10.1063/1.4959605
   
   in the mass-spec context:
   * V. Asgeirsson, C. Bauer and S. Grimme, Chem. Sci., 2017, 8, 4879.
     DOI: 10.1039/c7sc00601b
   * J. Koopman and S. Grimme, ACS Omega 2019, 4, 12, 15120-15133.
     DOI: 10.1021/acsomega.9b02011
   
   for metadynamics refer to:
   * S. Grimme, J. Chem. Theory Comput., 2019, 155, 2847-2862
     DOI: 10.1021/acs.jctc.9b00143
   
   for SPH calculations refer to:
   * S. Spicher and S. Grimme, J. Chem. Theory Comput., 2021, 17, 1701-1714
     DOI: 10.1021/acs.jctc.0c01306
   
   for ONIOM refer to:
   * C. Plett, A. Katbashev, S. Ehlert, S. Grimme, M. Bursch,
     Phys. Chem. Chem. Phys., 2023, 25, 17860-17868. DOI: 10.1039/D3CP02178E
   
   for DIPRO refer to:
   * J. Kohn, N. Gildemeister, S. Grimme, D. Fazzi, A. Hansen,
     J. Chem. Phys., 2023, just accepted.
   
   for PTB refer to:
   * S. Grimme, M. Mueller, A. Hansen, J. Chem. Phys., 2023, 158, 124111.
     DOI: 10.1063/5.0137838
   
   with help from (in alphabetical order)
   P. Atkinson, C. Bannwarth, F. Bohle, G. Brandenburg, E. Caldeweyher
   M. Checinski, S. Dohm, S. Ehlert, S. Ehrlich, I. Gerasimov, C. Hölzer
   A. Katbashev, J. Kohn, J. Koopman, C. Lavigne, S. Lehtola, F. März, M. Müller,
   F. Musil, H. Neugebauer, J. Pisarek, C. Plett, P. Pracht, F. Pultar,
   J. Seibert, P. Shushkov, S. Spicher, M. Stahn, M. Steiner, T. Strunk,
   J. Stückrath, T. Rose, and J. Unsleber
   
 * started run on 2025/12/01 at 14:18:17.822     
   ID    Z sym.   atoms
    1    6 C      1-4, 7-9, 11-23, 25-27, 29, 31-35
    2    8 O      5, 6, 10, 24, 28, 30
    3    1 H      36-71

           -------------------------------------------------
          |                Calculation Setup                |
           -------------------------------------------------

          program call               : xtb pipeline_data/3_conformer_xyz/acrylates/rdkit/OPZLDVPRAIERSE-UHFFFAOYSA-N_conf231.xyz --opt --gfn 2-xTB --iterations 250
          coordinate file            : pipeline_data/3_conformer_xyz/acrylates/rdkit/OPZLDVPRAIERSE-UHFFFAOYSA-N_conf231.xyz
          omp threads                :                    24

########################################################################
[WARNING] Please study the warnings concerning your input carefully
-1- readin_getIntValue: could not parse '2-xTB'
########################################################################

           -------------------------------------------------
          |                 G F N 2 - x T B                 |
           -------------------------------------------------

        Reference                      10.1021/acs.jctc.8b01176
      * Hamiltonian:
        H0-scaling (s, p, d)           1.850000    2.230000    2.230000
        zeta-weighting                 0.500000
      * Dispersion:
        s8                             2.700000
        a1                             0.520000
        a2                             5.000000
        s9                             5.000000
      * Repulsion:
        kExp                           1.500000    1.000000
        rExp                           1.000000
      * Coulomb:
        alpha                          2.000000
        third order                    shell-resolved
        anisotropic                    true
        a3                             3.000000
        a5                             4.000000
        cn-shift                       1.200000
        cn-exp                         4.000000
        max-rad                        5.000000

q/qsh data taken from xtbrestart
CAMM data taken from xtbrestart

          ...................................................
          :                      SETUP                      :
          :.................................................:
          :  # basis functions                 176          :
          :  # atomic orbitals                 176          :
          :  # shells                          106          :
          :  # electrons                       188          :
          :  max. iterations                   250          :
          :  Hamiltonian                  GFN2-xTB          :
          :  restarted?                       true          :
          :  GBSA solvation                  false          :
          :  PC potential                    false          :
          :  electronic temp.          300.0000000     K    :
          :  accuracy                    1.0000000          :
          :  -> integral cutoff          0.2500000E+02      :
          :  -> integral neglect         0.1000000E-07      :
          :  -> SCF convergence          0.1000000E-05 Eh   :
          :  -> wf. convergence          0.1000000E-03 e    :
          :  Broyden damping             0.4000000          :
          :  net charge                          0          :
          :  unpaired electrons                  0          :
          ...................................................

 iter      E             dE          RMSdq      gap      omega  full diag
   1   -106.1711672 -0.106171E+03  0.391E+00    2.40       0.0  T
   2   -106.1820992 -0.109320E-01  0.231E+00    2.34       1.0  T
   3   -106.1683733  0.137260E-01  0.512E-01    2.41       1.0  T
   4   -106.1856447 -0.172714E-01  0.139E-01    2.40       1.0  T
   5   -106.1861388 -0.494094E-03  0.816E-02    2.42       1.0  T
   6   -106.1862395 -0.100667E-03  0.351E-02    2.42       1.0  T
   7   -106.1862697 -0.302271E-04  0.771E-03    2.42       1.5  T
   8   -106.1862721 -0.242321E-05  0.377E-03    2.42       3.2  T
   9   -106.1862725 -0.386914E-06  0.157E-03    2.42       7.6  T
  10   -106.1862726 -0.511907E-07  0.817E-04    2.42      14.5  T
  11   -106.1862726 -0.193047E-07  0.373E-04    2.42      31.8  T

   *** convergence criteria satisfied after 11 iterations ***

         #    Occupation            Energy/Eh            Energy/eV
      -------------------------------------------------------------
         1        2.0000           -0.7337571             -19.9665
       ...           ...                  ...                  ...
        88        2.0000           -0.4072439             -11.0817
        89        2.0000           -0.4065860             -11.0638
        90        2.0000           -0.4048709             -11.0171
        91        2.0000           -0.4014925             -10.9252
        92        2.0000           -0.3997690             -10.8783
        93        2.0000           -0.3752779             -10.2118
        94        2.0000           -0.3714406             -10.1074 (HOMO)
        95                         -0.2826811              -7.6921 (LUMO)
        96                         -0.2805019              -7.6328
        97                         -0.2200784              -5.9886
        98                         -0.2181548              -5.9363
        99                         -0.2150435              -5.8516
       ...                                ...                  ...
       176                          0.6813996              18.5418
      -------------------------------------------------------------
                  HL-Gap            0.0887595 Eh            2.4153 eV
             Fermi-level           -0.3270608 Eh           -8.8998 eV

 SCC (total)                   0 d,  0 h,  0 min,  0.090 sec
 SCC setup                      ...        0 min,  0.001 sec (  0.657%)
 Dispersion                     ...        0 min,  0.003 sec (  2.829%)
 classical contributions        ...        0 min,  0.001 sec (  0.914%)
 integral evaluation            ...        0 min,  0.005 sec (  5.544%)
 iterations                     ...        0 min,  0.068 sec ( 74.831%)
 molecular gradient             ...        0 min,  0.013 sec ( 14.367%)
 printout                       ...        0 min,  0.001 sec (  0.807%)

         :::::::::::::::::::::::::::::::::::::::::::::::::::::
         ::                     SUMMARY                     ::
         :::::::::::::::::::::::::::::::::::::::::::::::::::::
         :: total energy            -104.772669557303 Eh    ::
         :: gradient norm              0.212681965563 Eh/a0 ::
         :: HOMO-LUMO gap              2.415270251259 eV    ::
         ::.................................................::
         :: SCC energy              -106.186588130106 Eh    ::
         :: -> isotropic ES            0.131135340547 Eh    ::
         :: -> anisotropic ES          0.007137602565 Eh    ::
         :: -> anisotropic XC          0.034857096604 Eh    ::
         :: -> dispersion             -0.068110080427 Eh    ::
         :: repulsion energy           1.413918572803 Eh    ::
         :: add. restraining           0.000000000000 Eh    ::
         :: total charge               0.000000000000 e     ::
         :::::::::::::::::::::::::::::::::::::::::::::::::::::

      ----------------------------------------------------------- 
     |                   =====================                   |
     |                        A N C O P T                        |
     |                   =====================                   |
     |               Approximate Normal Coordinate               |
     |                Rational Function Optimizer                |
      ----------------------------------------------------------- 
      ----------------------------------------------------------- 
     |                   =====================                   |
     |                        A N C O P T                        |
     |                   =====================                   |
     |               Approximate Normal Coordinate               |
     |                Rational Function Optimizer                |
      ----------------------------------------------------------- 

          ...................................................
          :                      SETUP                      :
          :.................................................:
          :   optimization level            normal          :
          :   max. optcycles                   213          :
          :   ANC micro-cycles                  20          :
          :   degrees of freedom               207          :
          :.................................................:
          :   RF solver                   davidson          :
          :   write xtbopt.log                true          :
          :   linear?                        false          :
          :   energy convergence         0.5000000E-05 Eh   :
          :   grad. convergence          0.1000000E-02 Eh/α :
          :   maxmium RF displ.          1.0000000          :
          :   Hlow (freq-cutoff)         0.1000000E-01      :
          :   Hmax (freq-cutoff)         5.0000000          :
          :   S6 in model hess.         20.0000000          :
          ...................................................

generating ANC from exact Hessian ...
Using Lindh-Hessian (1995)
 Shifting diagonal of input Hessian by   9.976676412985297E-003
 Lowest  eigenvalues of input Hessian
    0.000000    0.000000    0.000000    0.000000    0.000000    0.000000
    0.010000    0.010087    0.010153    0.010192    0.010254    0.010347
    0.010430    0.010867    0.010979    0.011205    0.011438    0.011684
 Highest eigenvalues
    2.034824    2.046483    2.093894    2.143765    2.155040    2.161601
 

........................................................................
.............................. CYCLE    1 ..............................
........................................................................

 iter      E             dE          RMSdq      gap      omega  full diag
   1   -106.1862726 -0.106186E+03  0.164E-04    2.42       0.0  T
   2   -106.1862726 -0.357787E-09  0.121E-04    2.42      98.0  T
   3   -106.1862726 -0.715687E-09  0.645E-05    2.42     184.1  T
     SCC iter.                  ...        0 min,  0.031 sec
     gradient                   ...        0 min,  0.011 sec
 * total energy  :  -104.7726696 Eh     change       -0.3514998E-08 Eh
   gradient norm :     0.2126817 Eh/α   predicted     0.0000000E+00 (-100.00%)
   displ. norm   :     0.4447156 α      lambda       -0.5730259E-01
   maximum displ.:     0.1422407 α      in ANC's #55, #74, #110, ...

........................................................................
.............................. CYCLE    2 ..............................
........................................................................

 iter      E             dE          RMSdq      gap      omega  full diag
   1   -106.2462534 -0.106246E+03  0.270E-01    2.62       0.0  T
   2   -106.2468604 -0.606986E-03  0.167E-01    2.58       1.0  T
   3   -106.2467029  0.157553E-03  0.826E-02    2.58       1.0  T
   4   -106.2469362 -0.233306E-03  0.285E-02    2.56       1.0  T
   5   -106.2469829 -0.466944E-04  0.932E-03    2.56       1.3  T
   6   -106.2469856 -0.272152E-05  0.492E-03    2.57       2.4  T
   7   -106.2469859 -0.277217E-06  0.244E-03    2.57       4.9  T
   8   -106.2469861 -0.212106E-06  0.858E-04    2.57      13.8  T
   9   -106.2469861 -0.130700E-07  0.341E-04    2.57      34.8  T
     SCC iter.                  ...        0 min,  0.062 sec
     gradient                   ...        0 min,  0.009 sec
 * total energy  :  -104.8134530 Eh     change       -0.4078348E-01 Eh
   gradient norm :     0.0898557 Eh/α   predicted    -0.3435079E-01 ( -15.77%)
   displ. norm   :     0.4284036 α      lambda       -0.1978385E-01
   maximum displ.:     0.1663143 α      in ANC's #55, #38, #29, ...

........................................................................
.............................. CYCLE    3 ..............................
........................................................................

 iter      E             dE          RMSdq      gap      omega  full diag
   1   -106.2762860 -0.106276E+03  0.190E-01    2.71       0.0  T
   2   -106.2765735 -0.287569E-03  0.117E-01    2.69       1.0  T
   3   -106.2764787  0.947977E-04  0.604E-02    2.69       1.0  T
   4   -106.2766168 -0.138087E-03  0.197E-02    2.68       1.0  T
   5   -106.2766390 -0.222105E-04  0.633E-03    2.68       1.9  T
   6   -106.2766404 -0.130987E-05  0.321E-03    2.68       3.7  T
   7   -106.2766405 -0.193998E-06  0.156E-03    2.68       7.6  T
   8   -106.2766406 -0.741922E-07  0.578E-04    2.68      20.6  T
   9   -106.2766406 -0.469262E-08  0.248E-04    2.68      47.9  T
     SCC iter.                  ...        0 min,  0.094 sec
     gradient                   ...        0 min,  0.011 sec
 * total energy  :  -104.8256145 Eh     change       -0.1216146E-01 Eh
   gradient norm :     0.0214084 Eh/α   predicted    -0.1170739E-01 (  -3.73%)
   displ. norm   :     0.3922718 α      lambda       -0.4284929E-02
   maximum displ.:     0.1477372 α      in ANC's #38, #29, #24, ...

........................................................................
.............................. CYCLE    4 ..............................
........................................................................

 iter      E             dE          RMSdq      gap      omega  full diag
   1   -106.2766104 -0.106277E+03  0.895E-02    2.66       0.0  T
   2   -106.2766316 -0.211291E-04  0.539E-02    2.67       1.0  T
   3   -106.2766079  0.236161E-04  0.210E-02    2.67       1.0  T
   4   -106.2766362 -0.282830E-04  0.485E-03    2.67       2.4  T
   5   -106.2766378 -0.155723E-05  0.171E-03    2.67       7.0  T
   6   -106.2766378 -0.662931E-07  0.100E-03    2.67      11.8  T
   7   -106.2766379 -0.194338E-07  0.464E-04    2.67      25.6  T
   8   -106.2766379 -0.669836E-08  0.184E-04    2.67      64.6  T
     SCC iter.                  ...        0 min,  0.042 sec
     gradient                   ...        0 min,  0.012 sec
 * total energy  :  -104.8286989 Eh     change       -0.3084435E-02 Eh
   gradient norm :     0.0127245 Eh/α   predicted    -0.2472258E-02 ( -19.85%)
   displ. norm   :     0.4446873 α      lambda       -0.2465204E-02
   maximum displ.:     0.1497317 α      in ANC's #14, #24, #29, ...

........................................................................
.............................. CYCLE    5 ..............................
........................................................................

 iter      E             dE          RMSdq      gap      omega  full diag
   1   -106.2785457 -0.106279E+03  0.766E-02    2.67       0.0  T
   2   -106.2785549 -0.920846E-05  0.455E-02    2.67       1.0  T
   3   -106.2785441  0.108630E-04  0.141E-02    2.67       1.0  T
   4   -106.2785570 -0.129130E-04  0.378E-03    2.67       3.1  T
   5   -106.2785576 -0.648243E-06  0.172E-03    2.67       6.9  T
   6   -106.2785577 -0.839120E-07  0.889E-04    2.67      13.4  T
   7   -106.2785577 -0.108844E-07  0.326E-04    2.67      36.4  T
     SCC iter.                  ...        0 min,  0.032 sec
     gradient                   ...        0 min,  0.017 sec
 * total energy  :  -104.8304618 Eh     change       -0.1762852E-02 Eh
   gradient norm :     0.0094630 Eh/α   predicted    -0.1476362E-02 ( -16.25%)
   displ. norm   :     0.4143882 α      lambda       -0.1361478E-02
   maximum displ.:     0.1683312 α      in ANC's #14, #24, #29, ...

........................................................................
.............................. CYCLE    6 ..............................
........................................................................

 iter      E             dE          RMSdq      gap      omega  full diag
   1   -106.2818061 -0.106282E+03  0.722E-02    2.66       0.0  T
   2   -106.2818099 -0.380827E-05  0.426E-02    2.66       1.0  T
   3   -106.2818035  0.635052E-05  0.110E-02    2.66       1.1  T
   4   -106.2818112 -0.768417E-05  0.279E-03    2.66       4.2  T
   5   -106.2818114 -0.243428E-06  0.144E-03    2.66       8.2  T
   6   -106.2818115 -0.394879E-07  0.689E-04    2.66      17.2  T
   7   -106.2818115 -0.815393E-08  0.207E-04    2.66      57.3  T
     SCC iter.                  ...        0 min,  0.036 sec
     gradient                   ...        0 min,  0.013 sec
 * total energy  :  -104.8314456 Eh     change       -0.9837860E-03 Eh
   gradient norm :     0.0087974 Eh/α   predicted    -0.7976347E-03 ( -18.92%)
   displ. norm   :     0.4123497 α      lambda       -0.9680318E-03
   maximum displ.:     0.1863466 α      in ANC's #14, #4, #15, ...

........................................................................
.............................. CYCLE    7 ..............................
........................................................................

 iter      E             dE          RMSdq      gap      omega  full diag
   1   -106.2855462 -0.106286E+03  0.794E-02    2.67       0.0  T
   2   -106.2855502 -0.394916E-05  0.468E-02    2.67       1.0  T
   3   -106.2855441  0.613144E-05  0.101E-02    2.67       1.2  T
   4   -106.2855513 -0.723906E-05  0.281E-03    2.67       4.2  T
   5   -106.2855516 -0.312636E-06  0.131E-03    2.67       9.1  T
   6   -106.2855516 -0.107083E-07  0.750E-04    2.67      15.8  T
   7   -106.2855516 -0.191856E-07  0.203E-04    2.67      58.4  T
     SCC iter.                  ...        0 min,  0.032 sec
     gradient                   ...        0 min,  0.012 sec
 * total energy  :  -104.8321299 Eh     change       -0.6843484E-03 Eh
   gradient norm :     0.0084292 Eh/α   predicted    -0.5663211E-03 ( -17.25%)
   displ. norm   :     0.4241758 α      lambda       -0.7751801E-03
   maximum displ.:     0.1994291 α      in ANC's #14, #4, #15, ...

........................................................................
.............................. CYCLE    8 ..............................
........................................................................

 iter      E             dE          RMSdq      gap      omega  full diag
   1   -106.2882988 -0.106288E+03  0.845E-02    2.66       0.0  T
   2   -106.2883018 -0.296230E-05  0.499E-02    2.67       1.0  T
   3   -106.2882952  0.656663E-05  0.102E-02    2.66       1.2  T
   4   -106.2883030 -0.776639E-05  0.243E-03    2.67       4.9  T
   5   -106.2883032 -0.185699E-06  0.123E-03    2.66       9.7  T
   6   -106.2883032 -0.895864E-08  0.680E-04    2.66      17.5  T
   7   -106.2883032 -0.165011E-07  0.199E-04    2.66      59.6  T
     SCC iter.                  ...        0 min,  0.032 sec
     gradient                   ...        0 min,  0.013 sec
 * total energy  :  -104.8326666 Eh     change       -0.5366735E-03 Eh
   gradient norm :     0.0077232 Eh/α   predicted    -0.4573485E-03 ( -14.78%)
   displ. norm   :     0.4178512 α      lambda       -0.5937108E-03
   maximum displ.:     0.1904326 α      in ANC's #14, #12, #15, ...

........................................................................
.............................. CYCLE    9 ..............................
........................................................................

 iter      E             dE          RMSdq      gap      omega  full diag
   1   -106.2893874 -0.106289E+03  0.845E-02    2.68       0.0  T
   2   -106.2893905 -0.309631E-05  0.497E-02    2.68       1.0  T
   3   -106.2893862  0.424932E-05  0.864E-03    2.67       1.4  T
   4   -106.2893911 -0.490033E-05  0.258E-03    2.67       4.6  T
   5   -106.2893915 -0.311624E-06  0.103E-03    2.67      11.5  T
   6   -106.2893915 -0.123866E-08  0.587E-04    2.67      20.2  T
   7   -106.2893915 -0.129600E-07  0.148E-04    2.68      80.1  T
     SCC iter.                  ...        0 min,  0.032 sec
     gradient                   ...        0 min,  0.013 sec
 * total energy  :  -104.8331159 Eh     change       -0.4493325E-03 Eh
   gradient norm :     0.0071299 Eh/α   predicted    -0.3486954E-03 ( -22.40%)
   displ. norm   :     0.4677118 α      lambda       -0.5531075E-03
   maximum displ.:     0.1948513 α      in ANC's #14, #12, #15, ...

........................................................................
.............................. CYCLE   10 ..............................
........................................................................

 iter      E             dE          RMSdq      gap      omega  full diag
   1   -106.2884955 -0.106288E+03  0.976E-02    2.67       0.0  T
   2   -106.2884978 -0.223305E-05  0.574E-02    2.67       1.0  T
   3   -106.2884968  0.102267E-05  0.560E-03    2.67       2.1  T
   4   -106.2884985 -0.170801E-05  0.210E-03    2.67       5.6  T
   5   -106.2884986 -0.126224E-06  0.111E-03    2.67      10.7  T
   6   -106.2884986 -0.144611E-07  0.492E-04    2.67      24.1  T
   7   -106.2884986 -0.685502E-08  0.154E-04    2.67      76.9  T
     SCC iter.                  ...        0 min,  0.032 sec
     gradient                   ...        0 min,  0.017 sec
 * total energy  :  -104.8335305 Eh     change       -0.4145763E-03 Eh
   gradient norm :     0.0064337 Eh/α   predicted    -0.3370706E-03 ( -18.70%)
   displ. norm   :     0.4803858 α      lambda       -0.5028626E-03
   maximum displ.:     0.2070293 α      in ANC's #12, #14, #15, ...

........................................................................
.............................. CYCLE   11 ..............................
........................................................................

 iter      E             dE          RMSdq      gap      omega  full diag
   1   -106.2889631 -0.106289E+03  0.103E-01    2.70       0.0  T
   2   -106.2889700 -0.694410E-05  0.606E-02    2.69       1.0  T
   3   -106.2889683  0.172626E-05  0.694E-03    2.69       1.7  T
   4   -106.2889703 -0.206041E-05  0.338E-03    2.69       3.5  T
   5   -106.2889710 -0.630078E-06  0.122E-03    2.69       9.7  T
   6   -106.2889710 -0.190479E-07  0.627E-04    2.69      18.9  T
   7   -106.2889710 -0.607839E-08  0.170E-04    2.69      69.7  T
     SCC iter.                  ...        0 min,  0.107 sec
     gradient                   ...        0 min,  0.011 sec
 * total energy  :  -104.8338515 Eh     change       -0.3210505E-03 Eh
   gradient norm :     0.0105631 Eh/α   predicted    -0.3094574E-03 (  -3.61%)
   displ. norm   :     0.4291557 α      lambda       -0.4080356E-03
   maximum displ.:     0.1915643 α      in ANC's #12, #10, #15, ...

........................................................................
.............................. CYCLE   12 ..............................
........................................................................

 iter      E             dE          RMSdq      gap      omega  full diag
   1   -106.2864566 -0.106286E+03  0.973E-02    2.67       0.0  T
   2   -106.2864627 -0.614772E-05  0.572E-02    2.67       1.0  T
   3   -106.2864612  0.150382E-05  0.650E-03    2.68       1.8  T
   4   -106.2864629 -0.169939E-05  0.337E-03    2.68       3.5  T
   5   -106.2864636 -0.641830E-06  0.109E-03    2.68      10.9  T
   6   -106.2864636 -0.761126E-08  0.547E-04    2.68      21.7  T
   7   -106.2864636 -0.536426E-08  0.147E-04    2.68      80.5  T
     SCC iter.                  ...        0 min,  0.041 sec
     gradient                   ...        0 min,  0.013 sec
 * total energy  :  -104.8341231 Eh     change       -0.2715417E-03 Eh
   gradient norm :     0.0076022 Eh/α   predicted    -0.2416063E-03 ( -11.02%)
   displ. norm   :     0.3408644 α      lambda       -0.3588549E-03
   maximum displ.:     0.1612619 α      in ANC's #12, #10, #4, ...

........................................................................
.............................. CYCLE   13 ..............................
........................................................................

 iter      E             dE          RMSdq      gap      omega  full diag
   1   -106.2902723 -0.106290E+03  0.797E-02    2.68       0.0  T
   2   -106.2902759 -0.354485E-05  0.469E-02    2.68       1.0  T
   3   -106.2902701  0.582663E-05  0.101E-02    2.68       1.2  T
   4   -106.2902765 -0.639302E-05  0.267E-03    2.68       4.4  T
   5   -106.2902768 -0.370405E-06  0.834E-04    2.68      14.2  T
   6   -106.2902768 -0.595226E-08  0.468E-04    2.68      25.4  T
     SCC iter.                  ...        0 min,  0.075 sec
     gradient                   ...        0 min,  0.016 sec
 * total energy  :  -104.8343886 Eh     change       -0.2655181E-03 Eh
   gradient norm :     0.0086986 Eh/α   predicted    -0.2002771E-03 ( -24.57%)
   displ. norm   :     0.4813225 α      lambda       -0.5103038E-03
   maximum displ.:     0.2279025 α      in ANC's #10, #12, #7, ...

........................................................................
.............................. CYCLE   14 ..............................
........................................................................

 iter      E             dE          RMSdq      gap      omega  full diag
   1   -106.2910396 -0.106291E+03  0.114E-01    2.68       0.0  T
   2   -106.2910439 -0.432420E-05  0.672E-02    2.68       1.0  T
   3   -106.2910414  0.253550E-05  0.685E-03    2.68       1.7  T
   4   -106.2910449 -0.352663E-05  0.211E-03    2.68       5.6  T
   5   -106.2910451 -0.170171E-06  0.109E-03    2.68      10.9  T
   6   -106.2910451 -0.139177E-07  0.508E-04    2.68      23.3  T
   7   -106.2910451 -0.869049E-08  0.173E-04    2.68      68.4  T
     SCC iter.                  ...        0 min,  0.050 sec
     gradient                   ...        0 min,  0.013 sec
 * total energy  :  -104.8347415 Eh     change       -0.3528770E-03 Eh
   gradient norm :     0.0074623 Eh/α   predicted    -0.3142616E-03 ( -10.94%)
   displ. norm   :     0.4714173 α      lambda       -0.4235542E-03
   maximum displ.:     0.2484924 α      in ANC's #10, #12, #4, ...

........................................................................
.............................. CYCLE   15 ..............................
........................................................................

 iter      E             dE          RMSdq      gap      omega  full diag
   1   -106.2898016 -0.106290E+03  0.110E-01    2.68       0.0  T
   2   -106.2898039 -0.228119E-05  0.648E-02    2.68       1.0  T
   3   -106.2897964  0.744732E-05  0.108E-02    2.68       1.1  T
   4   -106.2898051 -0.866670E-05  0.204E-03    2.68       5.8  T
   5   -106.2898052 -0.101206E-06  0.110E-03    2.68      10.8  T
   6   -106.2898052 -0.773127E-08  0.511E-04    2.68      23.2  T
   7   -106.2898052 -0.109290E-07  0.125E-04    2.68      95.2  T
     SCC iter.                  ...        0 min,  0.042 sec
     gradient                   ...        0 min,  0.010 sec
 * total energy  :  -104.8350770 Eh     change       -0.3355463E-03 Eh
   gradient norm :     0.0070203 Eh/α   predicted    -0.2588467E-03 ( -22.86%)
   displ. norm   :     0.4946731 α      lambda       -0.5088990E-03
   maximum displ.:     0.2611289 α      in ANC's #10, #12, #7, ...

........................................................................
.............................. CYCLE   16 ..............................
........................................................................

 iter      E             dE          RMSdq      gap      omega  full diag
   1   -106.2933217 -0.106293E+03  0.113E-01    2.68       0.0  T
   2   -106.2933244 -0.271616E-05  0.664E-02    2.68       1.0  T
   3   -106.2933208  0.359127E-05  0.746E-03    2.68       1.6  T
   4   -106.2933254 -0.461399E-05  0.202E-03    2.68       5.9  T
   5   -106.2933255 -0.110805E-06  0.112E-03    2.68      10.6  T
   6   -106.2933255 -0.196671E-07  0.505E-04    2.68      23.5  T
   7   -106.2933255 -0.634130E-08  0.182E-04    2.68      65.0  T
     SCC iter.                  ...        0 min,  0.038 sec
     gradient                   ...        0 min,  0.018 sec
 * total energy  :  -104.8354510 Eh     change       -0.3739820E-03 Eh
   gradient norm :     0.0078216 Eh/α   predicted    -0.3167138E-03 ( -15.31%)
   displ. norm   :     0.6611642 α      lambda       -0.5192302E-03
   maximum displ.:     0.3554403 α      in ANC's #10, #12, #4, ...

........................................................................
.............................. CYCLE   17 ..............................
........................................................................

 iter      E             dE          RMSdq      gap      omega  full diag
   1   -106.2828496 -0.106283E+03  0.149E-01    2.68       0.0  T
   2   -106.2828539 -0.424754E-05  0.875E-02    2.67       1.0  T
   3   -106.2828503  0.353434E-05  0.884E-03    2.67       1.3  T
   4   -106.2828552 -0.489511E-05  0.294E-03    2.67       4.0  T
   5   -106.2828555 -0.244958E-06  0.154E-03    2.67       7.7  T
   6   -106.2828555 -0.323929E-07  0.642E-04    2.67      18.5  T
   7   -106.2828555 -0.956679E-08  0.175E-04    2.67      67.8  T
     SCC iter.                  ...        0 min,  0.041 sec
     gradient                   ...        0 min,  0.012 sec
 * total energy  :  -104.8357844 Eh     change       -0.3333830E-03 Eh
   gradient norm :     0.0105813 Eh/α   predicted    -0.3730987E-03 (  11.91%)
   displ. norm   :     0.3735690 α      lambda       -0.5319290E-03
   maximum displ.:     0.1776115 α      in ANC's #10, #14, #5, ...

........................................................................
.............................. CYCLE   18 ..............................
........................................................................

 iter      E             dE          RMSdq      gap      omega  full diag
   1   -106.2881227 -0.106288E+03  0.730E-02    2.67       0.0  T
   2   -106.2881250 -0.234455E-05  0.433E-02    2.68       1.0  T
   3   -106.2881189  0.605000E-05  0.103E-02    2.68       1.2  T
   4   -106.2881258 -0.685045E-05  0.223E-03    2.68       5.3  T
   5   -106.2881260 -0.197625E-06  0.984E-04    2.68      12.1  T
   6   -106.2881260 -0.120950E-07  0.488E-04    2.68      24.3  T
     SCC iter.                  ...        0 min,  0.050 sec
     gradient                   ...        0 min,  0.010 sec
 * total energy  :  -104.8360949 Eh     change       -0.3104837E-03 Eh
   gradient norm :     0.0085184 Eh/α   predicted    -0.3030822E-03 (  -2.38%)
   displ. norm   :     0.4582816 α      lambda       -0.3729316E-03
   maximum displ.:     0.2262548 α      in ANC's #10, #12, #4, ...

........................................................................
.............................. CYCLE   19 ..............................
........................................................................

 iter      E             dE          RMSdq      gap      omega  full diag
   1   -106.2872066 -0.106287E+03  0.960E-02    2.68       0.0  T
   2   -106.2872086 -0.199038E-05  0.565E-02    2.68       1.0  T
   3   -106.2872067  0.185674E-05  0.650E-03    2.68       1.8  T
   4   -106.2872091 -0.241463E-05  0.215E-03    2.68       5.5  T
   5   -106.2872093 -0.160645E-06  0.104E-03    2.68      11.4  T
   6   -106.2872093 -0.877084E-08  0.393E-04    2.68      30.2  T
   7   -106.2872093 -0.384222E-08  0.118E-04    2.68     101.0  T
     SCC iter.                  ...        0 min,  0.050 sec
     gradient                   ...        0 min,  0.015 sec
 * total energy  :  -104.8363701 Eh     change       -0.2752628E-03 Eh
   gradient norm :     0.0083354 Eh/α   predicted    -0.2256293E-03 ( -18.03%)
   displ. norm   :     0.4445678 α      lambda       -0.4732619E-03
   maximum displ.:     0.2013768 α      in ANC's #10, #4, #5, ...

........................................................................
.............................. CYCLE   20 ..............................
........................................................................

 iter      E             dE          RMSdq      gap      omega  full diag
   1   -106.2924073 -0.106292E+03  0.876E-02    2.68       0.0  T
   2   -106.2924097 -0.243538E-05  0.515E-02    2.68       1.0  T
   3   -106.2924080  0.167279E-05  0.567E-03    2.68       2.1  T
   4   -106.2924101 -0.206005E-05  0.232E-03    2.68       5.1  T
   5   -106.2924104 -0.260835E-06  0.948E-04    2.68      12.5  T
   6   -106.2924104 -0.495442E-08  0.447E-04    2.68      26.5  T
     SCC iter.                  ...        0 min,  0.031 sec
     gradient                   ...        0 min,  0.011 sec
 * total energy  :  -104.8366866 Eh     change       -0.3164657E-03 Eh
   gradient norm :     0.0068395 Eh/α   predicted    -0.2833991E-03 ( -10.45%)
   displ. norm   :     0.5582416 α      lambda       -0.3735359E-03
   maximum displ.:     0.2539074 α      in ANC's #10, #4, #5, ...
 * RMSD in coord.:     0.7864535 α      energy gain  -0.6401705E-01 Eh

generating ANC from exact Hessian ...
Using Lindh-Hessian (1995)
 Shifting diagonal of input Hessian by   9.974318915277818E-003
 Lowest  eigenvalues of input Hessian
    0.000000    0.000000    0.000000    0.000000    0.000000    0.000000
    0.010000    0.010103    0.010166    0.010169    0.010272    0.010408
    0.010502    0.010769    0.011124    0.011254    0.011452    0.011685
 Highest eigenvalues
    2.007013    2.012413    2.116364    2.118562    2.363754    2.380335
 

........................................................................
.............................. CYCLE   21 ..............................
........................................................................

 iter      E             dE          RMSdq      gap      omega  full diag
   1   -106.2893439 -0.106289E+03  0.108E-01    2.67       0.0  T
   2   -106.2893473 -0.341532E-05  0.637E-02    2.67       1.0  T
   3   -106.2893470  0.335575E-06  0.465E-03    2.67       2.6  T
   4   -106.2893478 -0.892487E-06  0.223E-03    2.67       5.3  T
   5   -106.2893480 -0.169077E-06  0.114E-03    2.67      10.4  T
   6   -106.2893480 -0.160279E-07  0.531E-04    2.67      22.3  T
   7   -106.2893480 -0.869983E-08  0.131E-04    2.67      90.8  T
     SCC iter.                  ...        0 min,  0.051 sec
     gradient                   ...        0 min,  0.012 sec
 * total energy  :  -104.8369326 Eh     change       -0.2459498E-03 Eh
   gradient norm :     0.0097923 Eh/α   predicted     0.0000000E+00 (-100.00%)
   displ. norm   :     0.0756812 α      lambda       -0.2441153E-03
   maximum displ.:     0.0369649 α      in ANC's #5, #25, #14, ...

........................................................................
.............................. CYCLE   22 ..............................
........................................................................

 iter      E             dE          RMSdq      gap      omega  full diag
   1   -106.2943830 -0.106294E+03  0.209E-02    2.68       0.0  T
   2   -106.2943842 -0.121370E-05  0.122E-02    2.68       1.0  T
   3   -106.2943837  0.494186E-06  0.370E-03    2.68       3.2  T
   4   -106.2943843 -0.572816E-06  0.136E-03    2.68       8.7  T
   5   -106.2943844 -0.107629E-06  0.460E-04    2.68      25.8  T
   6   -106.2943844 -0.338093E-08  0.267E-04    2.68      44.4  T
     SCC iter.                  ...        0 min,  0.063 sec
     gradient                   ...        0 min,  0.010 sec
 * total energy  :  -104.8371084 Eh     change       -0.1758536E-03 Eh
   gradient norm :     0.0036138 Eh/α   predicted    -0.1228027E-03 ( -30.17%)
   displ. norm   :     0.1430856 α      lambda       -0.1816139E-03
   maximum displ.:     0.0754691 α      in ANC's #5, #25, #14, ...

........................................................................
.............................. CYCLE   23 ..............................
........................................................................

 iter      E             dE          RMSdq      gap      omega  full diag
   1   -106.2976007 -0.106298E+03  0.287E-02    2.69       0.0  T
   2   -106.2976015 -0.875899E-06  0.170E-02    2.69       1.0  T
   3   -106.2976004  0.114804E-05  0.461E-03    2.69       2.6  T
   4   -106.2976017 -0.130502E-05  0.138E-03    2.69       8.6  T
   5   -106.2976018 -0.924407E-07  0.525E-04    2.69      22.6  T
   6   -106.2976018 -0.412795E-08  0.287E-04    2.69      41.3  T
     SCC iter.                  ...        0 min,  0.050 sec
     gradient                   ...        0 min,  0.012 sec
 * total energy  :  -104.8372430 Eh     change       -0.1345792E-03 Eh
   gradient norm :     0.0029966 Eh/α   predicted    -0.9267226E-04 ( -31.14%)
   displ. norm   :     0.2727284 α      lambda       -0.2295723E-03
   maximum displ.:     0.1365024 α      in ANC's #5, #25, #29, ...

........................................................................
.............................. CYCLE   24 ..............................
........................................................................

 iter      E             dE          RMSdq      gap      omega  full diag
   1   -106.2984046 -0.106298E+03  0.493E-02    2.70       0.0  T
   2   -106.2984057 -0.114850E-05  0.292E-02    2.70       1.0  T
   3   -106.2984036  0.214552E-05  0.628E-03    2.70       1.9  T
   4   -106.2984061 -0.251818E-05  0.170E-03    2.70       7.0  T
   5   -106.2984062 -0.106162E-06  0.813E-04    2.70      14.6  T
   6   -106.2984062 -0.502652E-08  0.382E-04    2.70      31.1  T
     SCC iter.                  ...        0 min,  0.031 sec
     gradient                   ...        0 min,  0.012 sec
 * total energy  :  -104.8374391 Eh     change       -0.1961182E-03 Eh
   gradient norm :     0.0061088 Eh/α   predicted    -0.1234260E-03 ( -37.07%)
   displ. norm   :     0.6132793 α      lambda       -0.4802997E-03
   maximum displ.:     0.2964040 α      in ANC's #5, #25, #29, ...

........................................................................
.............................. CYCLE   25 ..............................
........................................................................

 iter      E             dE          RMSdq      gap      omega  full diag
   1   -106.2925462 -0.106293E+03  0.111E-01    2.71       0.0  T
   2   -106.2925575 -0.112544E-04  0.648E-02    2.71       1.0  T
   3   -106.2925492  0.824776E-05  0.140E-02    2.71       1.0  T
   4   -106.2925586 -0.934788E-05  0.515E-03    2.71       2.3  T
   5   -106.2925599 -0.136719E-05  0.193E-03    2.71       6.1  T
   6   -106.2925599 -0.156841E-08  0.868E-04    2.71      13.7  T
   7   -106.2925600 -0.307444E-07  0.216E-04    2.71      55.0  T
     SCC iter.                  ...        0 min,  0.036 sec
     gradient                   ...        0 min,  0.012 sec
 * total energy  :  -104.8376790 Eh     change       -0.2399379E-03 Eh
   gradient norm :     0.0138349 Eh/α   predicted    -0.3304870E-03 (  37.74%)
   displ. norm   :     0.0603000 α      lambda       -0.2953898E-03
   maximum displ.:     0.0256124 α      in ANC's #5, #10, #20, ...

........................................................................
.............................. CYCLE   26 ..............................
........................................................................

 iter      E             dE          RMSdq      gap      omega  full diag
   1   -106.2936095 -0.106294E+03  0.220E-02    2.71       0.0  T
   2   -106.2936116 -0.211511E-05  0.125E-02    2.71       1.0  T
   3   -106.2936115  0.106440E-06  0.371E-03    2.71       3.2  T
   4   -106.2936117 -0.194299E-06  0.125E-03    2.71       9.5  T
   5   -106.2936118 -0.977082E-07  0.476E-04    2.71      24.9  T
   6   -106.2936118 -0.129572E-08  0.275E-04    2.71      43.1  T
     SCC iter.                  ...        0 min,  0.034 sec
     gradient                   ...        0 min,  0.012 sec
 * total energy  :  -104.8378921 Eh     change       -0.2130462E-03 Eh
   gradient norm :     0.0074517 Eh/α   predicted    -0.1482457E-03 ( -30.42%)
   displ. norm   :     0.4012658 α      lambda       -0.4297901E-03
   maximum displ.:     0.2325329 α      in ANC's #5, #25, #10, ...

........................................................................
.............................. CYCLE   27 ..............................
........................................................................

 iter      E             dE          RMSdq      gap      omega  full diag
   1   -106.2907810 -0.106291E+03  0.790E-02    2.71       0.0  T
   2   -106.2907832 -0.215275E-05  0.466E-02    2.71       1.0  T
   3   -106.2907767  0.643788E-05  0.106E-02    2.71       1.1  T
   4   -106.2907842 -0.748402E-05  0.234E-03    2.71       5.1  T
   5   -106.2907844 -0.164996E-06  0.119E-03    2.71      10.0  T
   6   -106.2907844 -0.829925E-08  0.526E-04    2.71      22.6  T
   7   -106.2907844 -0.652857E-08  0.161E-04    2.71      73.9  T
     SCC iter.                  ...        0 min,  0.030 sec
     gradient                   ...        0 min,  0.011 sec
 * total energy  :  -104.8382074 Eh     change       -0.3152928E-03 Eh
   gradient norm :     0.0056247 Eh/α   predicted    -0.2494974E-03 ( -20.87%)
   displ. norm   :     0.4246402 α      lambda       -0.3082050E-03
   maximum displ.:     0.2495188 α      in ANC's #5, #25, #10, ...

........................................................................
.............................. CYCLE   28 ..............................
........................................................................

 iter      E             dE          RMSdq      gap      omega  full diag
   1   -106.2892686 -0.106289E+03  0.793E-02    2.72       0.0  T
   2   -106.2892714 -0.278852E-05  0.467E-02    2.72       1.0  T
   3   -106.2892632  0.818938E-05  0.121E-02    2.72       1.0  T
   4   -106.2892725 -0.931854E-05  0.241E-03    2.72       4.9  T
   5   -106.2892727 -0.207232E-06  0.115E-03    2.72      10.4  T
   6   -106.2892727 -0.580978E-08  0.545E-04    2.72      21.8  T
   7   -106.2892727 -0.550702E-08  0.139E-04    2.72      85.2  T
     SCC iter.                  ...        0 min,  0.057 sec
     gradient                   ...        0 min,  0.013 sec
 * total energy  :  -104.8384285 Eh     change       -0.2210780E-03 Eh
   gradient norm :     0.0089532 Eh/α   predicted    -0.1818991E-03 ( -17.72%)
   displ. norm   :     0.3360035 α      lambda       -0.2906880E-03
   maximum displ.:     0.2073028 α      in ANC's #5, #10, #25, ...

........................................................................
.............................. CYCLE   29 ..............................
........................................................................

 iter      E             dE          RMSdq      gap      omega  full diag
   1   -106.2934502 -0.106293E+03  0.605E-02    2.73       0.0  T
   2   -106.2934519 -0.175784E-05  0.357E-02    2.73       1.0  T
   3   -106.2934475  0.441629E-05  0.870E-03    2.72       1.4  T
   4   -106.2934525 -0.497701E-05  0.201E-03    2.72       5.9  T
   5   -106.2934527 -0.165934E-06  0.825E-04    2.72      14.4  T
   6   -106.2934527 -0.358277E-08  0.421E-04    2.72      28.2  T
     SCC iter.                  ...        0 min,  0.057 sec
     gradient                   ...        0 min,  0.016 sec
 * total energy  :  -104.8386343 Eh     change       -0.2057972E-03 Eh
   gradient norm :     0.0087975 Eh/α   predicted    -0.1617540E-03 ( -21.40%)
   displ. norm   :     0.4592143 α      lambda       -0.2905139E-03
   maximum displ.:     0.2813431 α      in ANC's #5, #10, #25, ...

........................................................................
.............................. CYCLE   30 ..............................
........................................................................

 iter      E             dE          RMSdq      gap      omega  full diag
   1   -106.2925793 -0.106293E+03  0.790E-02    2.72       0.0  T
   2   -106.2925816 -0.233993E-05  0.465E-02    2.72       1.0  T
   3   -106.2925804  0.121004E-05  0.576E-03    2.72       2.1  T
   4   -106.2925821 -0.163202E-05  0.240E-03    2.72       4.9  T
   5   -106.2925823 -0.245422E-06  0.108E-03    2.72      11.0  T
   6   -106.2925823 -0.440939E-08  0.405E-04    2.72      29.3  T
   7   -106.2925823 -0.559533E-08  0.125E-04    2.72      94.7  T
     SCC iter.                  ...        0 min,  0.059 sec
     gradient                   ...        0 min,  0.011 sec
 * total energy  :  -104.8388318 Eh     change       -0.1975485E-03 Eh
   gradient norm :     0.0111175 Eh/α   predicted    -0.1758935E-03 ( -10.96%)
   displ. norm   :     0.3651937 α      lambda       -0.4258600E-03
   maximum displ.:     0.2238390 α      in ANC's #5, #10, #15, ...

........................................................................
.............................. CYCLE   31 ..............................
........................................................................

 iter      E             dE          RMSdq      gap      omega  full diag
   1   -106.2998525 -0.106300E+03  0.608E-02    2.74       0.0  T
   2   -106.2998560 -0.349921E-05  0.358E-02    2.74       1.0  T
   3   -106.2998544  0.159691E-05  0.586E-03    2.74       2.0  T
   4   -106.2998563 -0.186063E-05  0.220E-03    2.74       5.4  T
   5   -106.2998566 -0.272932E-06  0.859E-04    2.74      13.8  T
   6   -106.2998566 -0.106438E-07  0.474E-04    2.74      25.0  T
     SCC iter.                  ...        0 min,  0.035 sec
     gradient                   ...        0 min,  0.013 sec
 * total energy  :  -104.8390684 Eh     change       -0.2366172E-03 Eh
   gradient norm :     0.0066014 Eh/α   predicted    -0.2413416E-03 (   2.00%)
   displ. norm   :     0.4544781 α      lambda       -0.2357342E-03
   maximum displ.:     0.2895601 α      in ANC's #5, #10, #8, ...

........................................................................
.............................. CYCLE   32 ..............................
........................................................................

 iter      E             dE          RMSdq      gap      omega  full diag
   1   -106.2955709 -0.106296E+03  0.760E-02    2.73       0.0  T
   2   -106.2955733 -0.237326E-05  0.448E-02    2.74       1.0  T
   3   -106.2955725  0.814599E-06  0.523E-03    2.73       2.3  T
   4   -106.2955738 -0.126905E-05  0.214E-03    2.74       5.5  T
   5   -106.2955739 -0.165803E-06  0.109E-03    2.74      10.9  T
   6   -106.2955739 -0.106970E-07  0.483E-04    2.73      24.6  T
   7   -106.2955739 -0.777557E-08  0.131E-04    2.73      90.3  T
     SCC iter.                  ...        0 min,  0.062 sec
     gradient                   ...        0 min,  0.012 sec
 * total energy  :  -104.8392219 Eh     change       -0.1534720E-03 Eh
   gradient norm :     0.0074902 Eh/α   predicted    -0.1422132E-03 (  -7.34%)
   displ. norm   :     0.2714350 α      lambda       -0.1937174E-03
   maximum displ.:     0.1802096 α      in ANC's #5, #10, #8, ...

........................................................................
.............................. CYCLE   33 ..............................
........................................................................

 iter      E             dE          RMSdq      gap      omega  full diag
   1   -106.2953463 -0.106295E+03  0.466E-02    2.74       0.0  T
   2   -106.2953481 -0.172038E-05  0.275E-02    2.74       1.0  T
   3   -106.2953464  0.169691E-05  0.567E-03    2.75       2.1  T
   4   -106.2953483 -0.190711E-05  0.181E-03    2.74       6.6  T
   5   -106.2953484 -0.172422E-06  0.672E-04    2.74      17.7  T
   6   -106.2953485 -0.928338E-08  0.345E-04    2.74      34.4  T
     SCC iter.                  ...        0 min,  0.028 sec
     gradient                   ...        0 min,  0.012 sec
 * total energy  :  -104.8393705 Eh     change       -0.1485903E-03 Eh
   gradient norm :     0.0054354 Eh/α   predicted    -0.1039956E-03 ( -30.01%)
   displ. norm   :     0.3433143 α      lambda       -0.2009289E-03
   maximum displ.:     0.2339312 α      in ANC's #5, #10, #2, ...

........................................................................
.............................. CYCLE   34 ..............................
........................................................................

 iter      E             dE          RMSdq      gap      omega  full diag
   1   -106.2965417 -0.106297E+03  0.601E-02    2.75       0.0  T
   2   -106.2965433 -0.151651E-05  0.355E-02    2.75       1.0  T
   3   -106.2965406  0.264785E-05  0.684E-03    2.75       1.7  T
   4   -106.2965436 -0.300758E-05  0.196E-03    2.75       6.0  T
   5   -106.2965438 -0.170180E-06  0.789E-04    2.75      15.0  T
   6   -106.2965438 -0.672483E-08  0.355E-04    2.75      33.4  T
     SCC iter.                  ...        0 min,  0.026 sec
     gradient                   ...        0 min,  0.012 sec
 * total energy  :  -104.8395157 Eh     change       -0.1451687E-03 Eh
   gradient norm :     0.0048101 Eh/α   predicted    -0.1123069E-03 ( -22.64%)
   displ. norm   :     0.4422519 α      lambda       -0.1554237E-03
   maximum displ.:     0.3053601 α      in ANC's #5, #10, #2, ...

........................................................................
.............................. CYCLE   35 ..............................
........................................................................

 iter      E             dE          RMSdq      gap      omega  full diag
   1   -106.2954840 -0.106295E+03  0.741E-02    2.75       0.0  T
   2   -106.2954855 -0.144212E-05  0.437E-02    2.75       1.0  T
   3   -106.2954850  0.483891E-06  0.403E-03    2.75       2.9  T
   4   -106.2954857 -0.732957E-06  0.203E-03    2.75       5.9  T
   5   -106.2954859 -0.169845E-06  0.867E-04    2.75      13.7  T
   6   -106.2954859 -0.359125E-08  0.300E-04    2.75      39.5  T
     SCC iter.                  ...        0 min,  0.025 sec
     gradient                   ...        0 min,  0.012 sec
 * total energy  :  -104.8396331 Eh     change       -0.1174340E-03 Eh
   gradient norm :     0.0052920 Eh/α   predicted    -0.9291194E-04 ( -20.88%)
   displ. norm   :     0.3959459 α      lambda       -0.1966680E-03
   maximum displ.:     0.2740204 α      in ANC's #5, #10, #2, ...

........................................................................
.............................. CYCLE   36 ..............................
........................................................................

 iter      E             dE          RMSdq      gap      omega  full diag
   1   -106.3003557 -0.106300E+03  0.761E-02    2.75       0.0  T
   2   -106.3003580 -0.226000E-05  0.447E-02    2.75       1.0  T
   3   -106.3003552  0.281183E-05  0.758E-03    2.76       1.6  T
   4   -106.3003585 -0.332207E-05  0.221E-03    2.75       5.4  T
   5   -106.3003587 -0.201587E-06  0.102E-03    2.75      11.7  T
   6   -106.3003587 -0.999751E-08  0.432E-04    2.75      27.4  T
   7   -106.3003587 -0.324100E-08  0.139E-04    2.75      85.5  T
     SCC iter.                  ...        0 min,  0.046 sec
     gradient                   ...        0 min,  0.013 sec
 * total energy  :  -104.8397324 Eh     change       -0.9935529E-04 Eh
   gradient norm :     0.0055806 Eh/α   predicted    -0.1137579E-03 (  14.50%)
   displ. norm   :     0.5861777 α      lambda       -0.2073256E-03
   maximum displ.:     0.4055715 α      in ANC's #5, #10, #2, ...

........................................................................
.............................. CYCLE   37 ..............................
........................................................................

 iter      E             dE          RMSdq      gap      omega  full diag
   1   -106.2945303 -0.106295E+03  0.100E-01    2.76       0.0  T
   2   -106.2945355 -0.519354E-05  0.590E-02    2.75       1.0  T
   3   -106.2945329  0.255555E-05  0.808E-03    2.75       1.5  T
   4   -106.2945361 -0.319031E-05  0.329E-03    2.75       3.6  T
   5   -106.2945366 -0.473410E-06  0.139E-03    2.75       8.5  T
   6   -106.2945366 -0.286038E-07  0.693E-04    2.75      17.1  T
   7   -106.2945366 -0.655146E-08  0.205E-04    2.75      58.0  T
     SCC iter.                  ...        0 min,  0.031 sec
     gradient                   ...        0 min,  0.011 sec
 * total energy  :  -104.8398128 Eh     change       -0.8037393E-04 Eh
   gradient norm :     0.0072254 Eh/α   predicted    -0.1392837E-03 (  73.29%)
   displ. norm   :     0.0608599 α      lambda       -0.1101951E-03
   maximum displ.:     0.0217255 α      in ANC's #10, #9, #15, ...

........................................................................
.............................. CYCLE   38 ..............................
........................................................................

 iter      E             dE          RMSdq      gap      omega  full diag
   1   -106.2973860 -0.106297E+03  0.179E-02    2.75       0.0  T
   2   -106.2973867 -0.700238E-06  0.105E-02    2.75       1.1  T
   3   -106.2973865  0.294087E-06  0.285E-03    2.75       4.2  T
   4   -106.2973868 -0.303925E-06  0.116E-03    2.75      10.2  T
   5   -106.2973868 -0.817142E-07  0.325E-04    2.75      36.5  T
   6   -106.2973868 -0.168559E-08  0.161E-04    2.75      73.9  T
     SCC iter.                  ...        0 min,  0.026 sec
     gradient                   ...        0 min,  0.011 sec
 * total energy  :  -104.8398878 Eh     change       -0.7494329E-04 Eh
   gradient norm :     0.0036254 Eh/α   predicted    -0.5530212E-04 ( -26.21%)
   displ. norm   :     0.2926044 α      lambda       -0.1155428E-03
   maximum displ.:     0.1881308 α      in ANC's #5, #2, #10, ...

........................................................................
.............................. CYCLE   39 ..............................
........................................................................

 iter      E             dE          RMSdq      gap      omega  full diag
   1   -106.2987223 -0.106299E+03  0.592E-02    2.74       0.0  T
   2   -106.2987236 -0.136461E-05  0.349E-02    2.74       1.0  T
   3   -106.2987188  0.478690E-05  0.893E-03    2.74       1.3  T
   4   -106.2987241 -0.527914E-05  0.150E-03    2.74       7.9  T
   5   -106.2987242 -0.101393E-06  0.556E-04    2.74      21.4  T
   6   -106.2987242 -0.402778E-09  0.258E-04    2.74      46.0  T
     SCC iter.                  ...        0 min,  0.027 sec
     gradient                   ...        0 min,  0.011 sec
 * total energy  :  -104.8399642 Eh     change       -0.7646177E-04 Eh
   gradient norm :     0.0038144 Eh/α   predicted    -0.6271937E-04 ( -17.97%)
   displ. norm   :     0.4365170 α      lambda       -0.1135005E-03
   maximum displ.:     0.2826946 α      in ANC's #5, #2, #7, ...

........................................................................
.............................. CYCLE   40 ..............................
........................................................................

 iter      E             dE          RMSdq      gap      omega  full diag
   1   -106.2972903 -0.106297E+03  0.894E-02    2.73       0.0  T
   2   -106.2972920 -0.175534E-05  0.527E-02    2.73       1.0  T
   3   -106.2972858  0.628962E-05  0.103E-02    2.73       1.2  T
   4   -106.2972929 -0.717108E-05  0.194E-03    2.73       6.1  T
   5   -106.2972930 -0.110662E-06  0.952E-04    2.73      12.5  T
   6   -106.2972930 -0.466696E-08  0.345E-04    2.73      34.4  T
     SCC iter.                  ...        0 min,  0.026 sec
     gradient                   ...        0 min,  0.011 sec
 * total energy  :  -104.8400349 Eh     change       -0.7063776E-04 Eh
   gradient norm :     0.0055303 Eh/α   predicted    -0.6756937E-04 (  -4.34%)
   displ. norm   :     0.3602558 α      lambda       -0.9940867E-04
   maximum displ.:     0.2141838 α      in ANC's #5, #2, #1, ...

........................................................................
.............................. CYCLE   41 ..............................
........................................................................

 iter      E             dE          RMSdq      gap      omega  full diag
   1   -106.2975251 -0.106298E+03  0.769E-02    2.72       0.0  T
   2   -106.2975269 -0.182225E-05  0.453E-02    2.72       1.0  T
   3   -106.2975248  0.202638E-05  0.614E-03    2.72       1.9  T
   4   -106.2975272 -0.233409E-05  0.197E-03    2.72       6.0  T
   5   -106.2975274 -0.182663E-06  0.743E-04    2.72      16.0  T
   6   -106.2975274 -0.429172E-08  0.366E-04    2.72      32.4  T
     SCC iter.                  ...        0 min,  0.026 sec
     gradient                   ...        0 min,  0.011 sec
 * total energy  :  -104.8400878 Eh     change       -0.5296152E-04 Eh
   gradient norm :     0.0047673 Eh/α   predicted    -0.5615893E-04 (   6.04%)
   displ. norm   :     0.2421927 α      lambda       -0.9172538E-04
   maximum displ.:     0.1226553 α      in ANC's #5, #7, #2, ...

........................................................................
.............................. CYCLE   42 ..............................
........................................................................

 iter      E             dE          RMSdq      gap      omega  full diag
   1   -106.2976338 -0.106298E+03  0.549E-02    2.72       0.0  T
   2   -106.2976347 -0.850993E-06  0.322E-02    2.72       1.0  T
   3   -106.2976345  0.190231E-06  0.274E-03    2.72       4.3  T
   4   -106.2976348 -0.345033E-06  0.117E-03    2.72      10.2  T
   5   -106.2976349 -0.473575E-07  0.589E-04    2.72      20.1  T
   6   -106.2976349 -0.389046E-08  0.280E-04    2.72      42.4  T
     SCC iter.                  ...        0 min,  0.027 sec
     gradient                   ...        0 min,  0.011 sec
 * total energy  :  -104.8401341 Eh     change       -0.4623254E-04 Eh
   gradient norm :     0.0043747 Eh/α   predicted    -0.4855772E-04 (   5.03%)
   displ. norm   :     0.1362522 α      lambda       -0.6095969E-04
   maximum displ.:     0.0506410 α      in ANC's #2, #7, #5, ...
 * RMSD in coord.:     0.7442763 α      energy gain  -0.3447450E-02 Eh

generating ANC from exact Hessian ...
Using Lindh-Hessian (1995)
 Shifting diagonal of input Hessian by   9.973988041856468E-003
 Lowest  eigenvalues of input Hessian
    0.000000    0.000000    0.000000    0.000000    0.000000    0.000000
    0.010000    0.010110    0.010143    0.010167    0.010300    0.010394
    0.010510    0.010715    0.011157    0.011287    0.011517    0.011698
 Highest eigenvalues
    2.011431    2.014145    2.120871    2.123180    2.377262    2.380287
 

........................................................................
.............................. CYCLE   43 ..............................
........................................................................

 iter      E             dE          RMSdq      gap      omega  full diag
   1   -106.2988710 -0.106299E+03  0.319E-02    2.72       0.0  T
   2   -106.2988716 -0.593330E-06  0.187E-02    2.72       1.0  T
   3   -106.2988714  0.207856E-06  0.224E-03    2.72       5.3  T
   4   -106.2988716 -0.226877E-06  0.108E-03    2.73      11.0  T
   5   -106.2988717 -0.699520E-07  0.341E-04    2.73      34.8  T
   6   -106.2988717 -0.123356E-08  0.163E-04    2.73      73.0  T
     SCC iter.                  ...        0 min,  0.027 sec
     gradient                   ...        0 min,  0.009 sec
 * total energy  :  -104.8401723 Eh     change       -0.3822276E-04 Eh
   gradient norm :     0.0029063 Eh/α   predicted     0.0000000E+00 (-100.00%)
   displ. norm   :     0.0364365 α      lambda       -0.3188297E-04
   maximum displ.:     0.0174336 α      in ANC's #7, #12, #11, ...

........................................................................
.............................. CYCLE   44 ..............................
........................................................................

 iter      E             dE          RMSdq      gap      omega  full diag
   1   -106.2986752 -0.106299E+03  0.115E-02    2.73       0.0  T
   2   -106.2986753 -0.118346E-06  0.678E-03    2.73       1.7  T
   3   -106.2986749  0.348642E-06  0.253E-03    2.73       4.7  T
   4   -106.2986753 -0.397230E-06  0.506E-04    2.73      23.5  T
   5   -106.2986753 -0.110208E-07  0.193E-04    2.73      61.5  T
     SCC iter.                  ...        0 min,  0.022 sec
     gradient                   ...        0 min,  0.012 sec
 * total energy  :  -104.8401969 Eh     change       -0.2459541E-04 Eh
   gradient norm :     0.0012999 Eh/α   predicted    -0.1626660E-04 ( -33.86%)
   displ. norm   :     0.1494178 α      lambda       -0.5078771E-04
   maximum displ.:     0.0721985 α      in ANC's #7, #12, #11, ...

........................................................................
.............................. CYCLE   45 ..............................
........................................................................

 iter      E             dE          RMSdq      gap      omega  full diag
   1   -106.2980862 -0.106298E+03  0.358E-02    2.73       0.0  T
   2   -106.2980872 -0.105916E-05  0.210E-02    2.73       1.0  T
   3   -106.2980854  0.179745E-05  0.590E-03    2.73       2.0  T
   4   -106.2980876 -0.212519E-05  0.146E-03    2.73       8.1  T
   5   -106.2980877 -0.842429E-07  0.670E-04    2.73      17.7  T
   6   -106.2980877 -0.825062E-08  0.336E-04    2.73      35.3  T
     SCC iter.                  ...        0 min,  0.026 sec
     gradient                   ...        0 min,  0.009 sec
 * total energy  :  -104.8402341 Eh     change       -0.3718248E-04 Eh
   gradient norm :     0.0035314 Eh/α   predicted    -0.2564765E-04 ( -31.02%)
   displ. norm   :     0.0646589 α      lambda       -0.2696104E-04
   maximum displ.:     0.0334491 α      in ANC's #7, #12, #11, ...

........................................................................
.............................. CYCLE   46 ..............................
........................................................................

 iter      E             dE          RMSdq      gap      omega  full diag
   1   -106.2982759 -0.106298E+03  0.159E-02    2.73       0.0  T
   2   -106.2982760 -0.767225E-07  0.934E-03    2.73       1.3  T
   3   -106.2982760 -0.376066E-08  0.713E-04    2.73      16.6  T
   4   -106.2982760 -0.196855E-07  0.379E-04    2.73      31.3  T
     SCC iter.                  ...        0 min,  0.044 sec
     gradient                   ...        0 min,  0.013 sec
 * total energy  :  -104.8402566 Eh     change       -0.2257645E-04 Eh
   gradient norm :     0.0028126 Eh/α   predicted    -0.1353962E-04 ( -40.03%)
   displ. norm   :     0.1865544 α      lambda       -0.6536124E-04
   maximum displ.:     0.0952699 α      in ANC's #7, #11, #6, ...

........................................................................
.............................. CYCLE   47 ..............................
........................................................................

 iter      E             dE          RMSdq      gap      omega  full diag
   1   -106.2986642 -0.106299E+03  0.448E-02    2.74       0.0  T
   2   -106.2986647 -0.525897E-06  0.263E-02    2.74       1.0  T
   3   -106.2986646  0.181678E-06  0.266E-03    2.74       4.5  T
   4   -106.2986650 -0.392376E-06  0.105E-03    2.74      11.3  T
   5   -106.2986650 -0.187382E-07  0.617E-04    2.74      19.2  T
   6   -106.2986650 -0.611467E-08  0.258E-04    2.74      46.1  T
     SCC iter.                  ...        0 min,  0.032 sec
     gradient                   ...        0 min,  0.012 sec
 * total energy  :  -104.8403013 Eh     change       -0.4464164E-04 Eh
   gradient norm :     0.0018580 Eh/α   predicted    -0.3381859E-04 ( -24.24%)
   displ. norm   :     0.2257802 α      lambda       -0.2915382E-04
   maximum displ.:     0.1181871 α      in ANC's #7, #6, #11, ...

........................................................................
.............................. CYCLE   48 ..............................
........................................................................

 iter      E             dE          RMSdq      gap      omega  full diag
   1   -106.2985713 -0.106299E+03  0.536E-02    2.74       0.0  T
   2   -106.2985720 -0.671695E-06  0.315E-02    2.74       1.0  T
   3   -106.2985719  0.746255E-07  0.264E-03    2.73       4.5  T
   4   -106.2985723 -0.340545E-06  0.111E-03    2.74      10.7  T
   5   -106.2985723 -0.150740E-07  0.663E-04    2.74      17.9  T
   6   -106.2985723 -0.844476E-08  0.282E-04    2.74      42.1  T
     SCC iter.                  ...        0 min,  0.026 sec
     gradient                   ...        0 min,  0.011 sec
 * total energy  :  -104.8403286 Eh     change       -0.2735596E-04 Eh
   gradient norm :     0.0025737 Eh/α   predicted    -0.1490757E-04 ( -45.51%)
   displ. norm   :     0.0981154 α      lambda       -0.2293492E-04
   maximum displ.:     0.0527445 α      in ANC's #7, #6, #1, ...

........................................................................
.............................. CYCLE   49 ..............................
........................................................................

 iter      E             dE          RMSdq      gap      omega  full diag
   1   -106.2988563 -0.106299E+03  0.227E-02    2.73       0.0  T
   2   -106.2988564 -0.149561E-06  0.133E-02    2.73       1.0  T
   3   -106.2988564  0.109051E-07  0.956E-04    2.73      12.4  T
   4   -106.2988565 -0.384554E-07  0.509E-04    2.73      23.3  T
     SCC iter.                  ...        0 min,  0.018 sec
     gradient                   ...        0 min,  0.013 sec
 * total energy  :  -104.8403480 Eh     change       -0.1940204E-04 Eh
   gradient norm :     0.0017232 Eh/α   predicted    -0.1158733E-04 ( -40.28%)
   displ. norm   :     0.3345911 α      lambda       -0.5132346E-04
   maximum displ.:     0.1796160 α      in ANC's #7, #1, #6, ...

........................................................................
.............................. CYCLE   50 ..............................
........................................................................

 iter      E             dE          RMSdq      gap      omega  full diag
   1   -106.2991096 -0.106299E+03  0.765E-02    2.73       0.0  T
   2   -106.2991108 -0.117456E-05  0.449E-02    2.73       1.0  T
   3   -106.2991109 -0.125312E-06  0.218E-03    2.73       5.4  T
   4   -106.2991111 -0.184630E-06  0.111E-03    2.73      10.7  T
   5   -106.2991112 -0.280592E-07  0.628E-04    2.73      18.9  T
   6   -106.2991112 -0.438581E-08  0.280E-04    2.73      42.4  T
     SCC iter.                  ...        0 min,  0.046 sec
     gradient                   ...        0 min,  0.012 sec
 * total energy  :  -104.8403948 Eh     change       -0.4677824E-04 Eh
   gradient norm :     0.0033286 Eh/α   predicted    -0.2693872E-04 ( -42.41%)
   displ. norm   :     0.1907827 α      lambda       -0.3205645E-04
   maximum displ.:     0.1054828 α      in ANC's #7, #1, #6, ...

........................................................................
.............................. CYCLE   51 ..............................
........................................................................

 iter      E             dE          RMSdq      gap      omega  full diag
   1   -106.2983037 -0.106298E+03  0.425E-02    2.73       0.0  T
   2   -106.2983040 -0.275162E-06  0.250E-02    2.73       1.0  T
   3   -106.2983028  0.118945E-05  0.447E-03    2.73       2.7  T
   4   -106.2983042 -0.137901E-05  0.734E-04    2.73      16.2  T
   5   -106.2983042 -0.819060E-08  0.383E-04    2.73      31.0  T
   6   -106.2983042 -0.108939E-08  0.150E-04    2.73      79.1  T
     SCC iter.                  ...        0 min,  0.028 sec
     gradient                   ...        0 min,  0.010 sec
 * total energy  :  -104.8404202 Eh     change       -0.2540317E-04 Eh
   gradient norm :     0.0025620 Eh/α   predicted    -0.1661673E-04 ( -34.59%)
   displ. norm   :     0.2262062 α      lambda       -0.4298950E-04
   maximum displ.:     0.1247171 α      in ANC's #7, #1, #6, ...

........................................................................
.............................. CYCLE   52 ..............................
........................................................................

 iter      E             dE          RMSdq      gap      omega  full diag
   1   -106.2982691 -0.106298E+03  0.500E-02    2.73       0.0  T
   2   -106.2982694 -0.350699E-06  0.293E-02    2.73       1.0  T
   3   -106.2982684  0.100900E-05  0.420E-03    2.73       2.8  T
   4   -106.2982696 -0.119179E-05  0.794E-04    2.73      14.9  T
   5   -106.2982696 -0.139174E-07  0.396E-04    2.73      30.0  T
   6   -106.2982696 -0.198128E-08  0.173E-04    2.73      68.4  T
     SCC iter.                  ...        0 min,  0.027 sec
     gradient                   ...        0 min,  0.010 sec
 * total energy  :  -104.8404559 Eh     change       -0.3563507E-04 Eh
   gradient norm :     0.0016218 Eh/α   predicted    -0.2259706E-04 ( -36.59%)
   displ. norm   :     0.4615702 α      lambda       -0.5395297E-04
   maximum displ.:     0.2547195 α      in ANC's #7, #1, #6, ...

........................................................................
.............................. CYCLE   53 ..............................
........................................................................

 iter      E             dE          RMSdq      gap      omega  full diag
   1   -106.2976689 -0.106298E+03  0.105E-01    2.72       0.0  T
   2   -106.2976703 -0.143915E-05  0.613E-02    2.72       1.0  T
   3   -106.2976667  0.367758E-05  0.812E-03    2.72       1.5  T
   4   -106.2976710 -0.436241E-05  0.155E-03    2.72       7.6  T
   5   -106.2976711 -0.608260E-07  0.747E-04    2.72      15.9  T
   6   -106.2976711 -0.779572E-08  0.322E-04    2.72      36.9  T
     SCC iter.                  ...        0 min,  0.027 sec
     gradient                   ...        0 min,  0.011 sec
 * total energy  :  -104.8405047 Eh     change       -0.4889029E-04 Eh
   gradient norm :     0.0022188 Eh/α   predicted    -0.2953341E-04 ( -39.59%)
   displ. norm   :     0.1185457 α      lambda       -0.2470787E-04
   maximum displ.:     0.0630182 α      in ANC's #7, #1, #6, ...

........................................................................
.............................. CYCLE   54 ..............................
........................................................................

 iter      E             dE          RMSdq      gap      omega  full diag
   1   -106.2986891 -0.106299E+03  0.265E-02    2.72       0.0  T
   2   -106.2986892 -0.856461E-07  0.156E-02    2.72       1.0  T
   3   -106.2986890  0.191742E-06  0.189E-03    2.72       6.3  T
   4   -106.2986892 -0.233130E-06  0.390E-04    2.72      30.4  T
   5   -106.2986892 -0.384330E-08  0.196E-04    2.72      60.4  T
     SCC iter.                  ...        0 min,  0.023 sec
     gradient                   ...        0 min,  0.012 sec
 * total energy  :  -104.8405247 Eh     change       -0.1997481E-04 Eh
   gradient norm :     0.0016401 Eh/α   predicted    -0.1253016E-04 ( -37.27%)
   displ. norm   :     0.5125360 α      lambda       -0.5441168E-04
   maximum displ.:     0.2840776 α      in ANC's #7, #1, #6, ...

........................................................................
.............................. CYCLE   55 ..............................
........................................................................

 iter      E             dE          RMSdq      gap      omega  full diag
   1   -106.2982822 -0.106298E+03  0.115E-01    2.72       0.0  T
   2   -106.2982835 -0.126506E-05  0.672E-02    2.72       1.0  T
   3   -106.2982824  0.112896E-05  0.519E-03    2.72       2.3  T
   4   -106.2982840 -0.167914E-05  0.144E-03    2.72       8.2  T
   5   -106.2982841 -0.396717E-07  0.687E-04    2.72      17.3  T
   6   -106.2982841 -0.791356E-08  0.275E-04    2.72      43.1  T
     SCC iter.                  ...        0 min,  0.033 sec
     gradient                   ...        0 min,  0.012 sec
 * total energy  :  -104.8405776 Eh     change       -0.5291990E-04 Eh
   gradient norm :     0.0023247 Eh/α   predicted    -0.3038307E-04 ( -42.59%)
   displ. norm   :     0.1731627 α      lambda       -0.3674074E-04
   maximum displ.:     0.0876384 α      in ANC's #7, #1, #6, ...

........................................................................
.............................. CYCLE   56 ..............................
........................................................................

 iter      E             dE          RMSdq      gap      omega  full diag
   1   -106.2994358 -0.106299E+03  0.352E-02    2.72       0.0  T
   2   -106.2994360 -0.205736E-06  0.207E-02    2.72       1.0  T
   3   -106.2994354  0.528447E-06  0.306E-03    2.72       3.9  T
   4   -106.2994360 -0.618220E-06  0.613E-04    2.72      19.4  T
   5   -106.2994361 -0.104782E-07  0.300E-04    2.72      39.6  T
     SCC iter.                  ...        0 min,  0.028 sec
     gradient                   ...        0 min,  0.013 sec
 * total energy  :  -104.8406052 Eh     change       -0.2760346E-04 Eh
   gradient norm :     0.0016126 Eh/α   predicted    -0.1892254E-04 ( -31.45%)
   displ. norm   :     0.5680395 α      lambda       -0.5044336E-04
   maximum displ.:     0.3110602 α      in ANC's #7, #1, #6, ...

........................................................................
.............................. CYCLE   57 ..............................
........................................................................

 iter      E             dE          RMSdq      gap      omega  full diag
   1   -106.2970646 -0.106297E+03  0.117E-01    2.71       0.0  T
   2   -106.2970665 -0.190313E-05  0.689E-02    2.71       1.0  T
   3   -106.2970576  0.887548E-05  0.123E-02    2.71       1.0  T
   4   -106.2970677 -0.101193E-04  0.185E-03    2.71       6.4  T
   5   -106.2970678 -0.805920E-07  0.896E-04    2.71      13.2  T
   6   -106.2970678 -0.800675E-08  0.332E-04    2.71      35.8  T
     SCC iter.                  ...        0 min,  0.036 sec
     gradient                   ...        0 min,  0.014 sec
 * total energy  :  -104.8406347 Eh     change       -0.2947116E-04 Eh
   gradient norm :     0.0037143 Eh/α   predicted    -0.2883966E-04 (  -2.14%)
   displ. norm   :     0.0784736 α      lambda       -0.4064171E-04
   maximum displ.:     0.0353109 α      in ANC's #11, #10, #13, ...

........................................................................
.............................. CYCLE   58 ..............................
........................................................................

 iter      E             dE          RMSdq      gap      omega  full diag
   1   -106.2993864 -0.106299E+03  0.213E-02    2.72       0.0  T
   2   -106.2993866 -0.222320E-06  0.126E-02    2.72       1.0  T
   3   -106.2993849  0.168114E-05  0.535E-03    2.72       2.2  T
   4   -106.2993868 -0.187312E-05  0.582E-04    2.72      20.4  T
   5   -106.2993868 -0.132011E-07  0.234E-04    2.72      50.7  T
   6   -106.2993868  0.252740E-09  0.112E-04    2.72     105.8  T
     SCC iter.                  ...        0 min,  0.041 sec
     gradient                   ...        0 min,  0.011 sec
 * total energy  :  -104.8406567 Eh     change       -0.2201953E-04 Eh
[...]
         :: -> isotropic ES            0.123334641201 Eh    ::
         :: -> anisotropic ES          0.009960554843 Eh    ::
         :: -> anisotropic XC          0.035393150204 Eh    ::
         :: -> dispersion             -0.068937982037 Eh    ::
         :: repulsion energy           1.459108496577 Eh    ::
         :: add. restraining           0.000000000000 Eh    ::
         :: total charge              -0.000000000000 e     ::
         :::::::::::::::::::::::::::::::::::::::::::::::::::::

           -------------------------------------------------
          |                Property Printout                |
           -------------------------------------------------

    * Orbital Energies and Occupations

         #    Occupation            Energy/Eh            Energy/eV
      -------------------------------------------------------------
         1        2.0000           -0.7394251             -20.1208
       ...           ...                  ...                  ...
        82        2.0000           -0.4315717             -11.7437
        83        2.0000           -0.4273003             -11.6274
        84        2.0000           -0.4191827             -11.4065
        85        2.0000           -0.4174446             -11.3592
        86        2.0000           -0.4163465             -11.3294
        87        2.0000           -0.4116262             -11.2009
        88        2.0000           -0.4103123             -11.1652
        89        2.0000           -0.4080167             -11.1027
        90        2.0000           -0.4075015             -11.0887
        91        2.0000           -0.4003366             -10.8937
        92        2.0000           -0.3985251             -10.8444
        93        2.0000           -0.3739403             -10.1754
        94        2.0000           -0.3678306             -10.0092 (HOMO)
        95                         -0.2678151              -7.2876 (LUMO)
        96                         -0.2671481              -7.2695
        97                         -0.2191547              -5.9635
        98                         -0.2159327              -5.8758
        99                         -0.2094800              -5.7002
       100                         -0.2062881              -5.6134
       101                         -0.1615322              -4.3955
       102                         -0.1612336              -4.3874
       103                         -0.0859337              -2.3384
       104                         -0.0848588              -2.3091
       105                         -0.0009096              -0.0248
       ...                                ...                  ...
       176                          0.7032387              19.1361
      -------------------------------------------------------------
                  HL-Gap            0.1000156 Eh            2.7216 eV
             Fermi-level           -0.3178229 Eh           -8.6484 eV

     #   Z          covCN         q      C6AA      α(0)
     1   6 C        3.759    -0.111    22.668     6.788
     2   6 C        2.937    -0.008    28.215     8.712
     3   6 C        2.844    -0.083    30.058     8.985
     4   6 C        2.726     0.351    21.046     7.510
     5   8 O        0.856    -0.411    21.893     6.273
     6   8 O        1.704    -0.270    18.473     5.803
     7   6 C        3.703     0.079    19.407     6.299
     8   6 C        3.800    -0.070    21.849     6.655
     9   6 C        3.694     0.083    19.366     6.296
    10   8 O        1.706    -0.278    18.614     5.825
    11   6 C        2.864     0.139    24.962     8.190
    12   6 C        2.917    -0.071    29.764     8.946
    13   6 C        2.925    -0.041    29.020     8.834
    14   6 C        2.978     0.000    28.019     8.683
    15   6 C        2.927    -0.035    28.861     8.810
    16   6 C        2.919    -0.055    29.367     8.887
    17   6 C        3.909     0.018    20.214     6.390
    18   6 C        3.763    -0.104    22.524     6.765
    19   6 C        3.763    -0.104    22.529     6.766
    20   6 C        2.978     0.001    28.011     8.682
    21   6 C        2.925    -0.040    29.006     8.832
    22   6 C        2.917    -0.070    29.749     8.944
    23   6 C        2.864     0.138    24.976     8.192
    24   8 O        1.706    -0.282    18.683     5.836
    25   6 C        3.694     0.082    19.384     6.299
    26   6 C        3.800    -0.070    21.834     6.653
    27   6 C        3.705     0.078    19.427     6.301
    28   8 O        1.705    -0.262    18.343     5.783
    29   6 C        2.732     0.350    21.058     7.513
    30   8 O        0.856    -0.420    22.087     6.301
    31   6 C        2.938    -0.009    28.246     8.716
    32   6 C        3.757    -0.112    22.700     6.793
    33   6 C        2.850    -0.078    29.944     8.969
    34   6 C        2.919    -0.056    29.387     8.890
    35   6 C        2.927    -0.035    28.869     8.811
    36   1 H        0.925     0.070     2.090     2.261
    37   1 H        0.925     0.051     2.313     2.378
    38   1 H        0.925     0.061     2.184     2.311
    39   1 H        0.926     0.055     2.255     2.348
    40   1 H        0.926     0.062     2.180     2.309
    41   1 H        0.924     0.070     2.084     2.258
    42   1 H        0.924     0.056     2.246     2.344
    43   1 H        0.924     0.075     2.028     2.227
    44   1 H        0.924     0.050     2.324     2.384
    45   1 H        0.923     0.028     2.617     2.530
    46   1 H        0.923     0.036     2.508     2.477
    47   1 H        0.926     0.027     2.626     2.534
    48   1 H        0.926     0.038     2.481     2.463
    49   1 H        0.926     0.035     2.515     2.480
    50   1 H        0.926     0.047     2.355     2.400
    51   1 H        0.925     0.040     2.453     2.449
    52   1 H        0.925     0.036     2.499     2.472
    53   1 H        0.925     0.038     2.474     2.460
    54   1 H        0.925     0.036     2.496     2.471
    55   1 H        0.925     0.039     2.461     2.453
    56   1 H        0.925     0.040     2.454     2.450
    57   1 H        0.926     0.039     2.466     2.456
    58   1 H        0.926     0.030     2.593     2.518
    59   1 H        0.923     0.036     2.507     2.476
    60   1 H        0.923     0.034     2.533     2.489
    61   1 H        0.924     0.062     2.175     2.306
    62   1 H        0.924     0.062     2.181     2.309
    63   1 H        0.924     0.056     2.251     2.346
    64   1 H        0.924     0.069     2.099     2.266
    65   1 H        0.925     0.061     2.183     2.311
    66   1 H        0.925     0.052     2.297     2.370
    67   1 H        0.925     0.061     2.187     2.313
    68   1 H        0.926     0.071     2.075     2.253
    69   1 H        0.926     0.057     2.235     2.338
    70   1 H        0.926     0.044     2.399     2.422
    71   1 H        0.926     0.034     2.526     2.485

 Mol. C6AA /au·bohr⁶  :      51179.450700
 Mol. C8AA /au·bohr⁸  :    1185485.510650
 Mol. α(0) /au        :        349.045824


Wiberg/Mayer (AO) data.
largest (>0.10) Wiberg bond orders for each atom

 ---------------------------------------------------------------------------
     #   Z sym  total        # sym  WBO       # sym  WBO       # sym  WBO
 ---------------------------------------------------------------------------
     1   6 C    3.994 --     2 C    1.029    37 H    0.985    36 H    0.967
                            38 H    0.966
     2   6 C    3.987 --     3 C    1.880     1 C    1.029     4 C    0.992
     3   6 C    3.989 --     2 C    1.880    39 H    0.974    40 H    0.973
     4   6 C    3.917 --     5 O    1.732     6 O    1.118     2 C    0.992
     5   8 O    2.035 --     4 C    1.732     6 O    0.169
     6   8 O    2.302 --     4 C    1.118     7 C    0.945     5 O    0.169
     7   6 C    3.927 --     8 C    0.998    42 H    0.971    41 H    0.967
                             6 O    0.945
     8   6 C    3.992 --     9 C    1.002     7 C    0.998    44 H    0.975
                            43 H    0.972
     9   6 C    3.953 --     8 C    1.002    10 O    0.976    45 H    0.966
                            46 H    0.966
    10   8 O    2.221 --    11 C    1.051     9 C    0.976
    11   6 C    3.930 --    12 C    1.386    16 C    1.342    10 O    1.051
    12   6 C    3.986 --    13 C    1.425    11 C    1.386    47 H    0.967
                            15 C    0.104
    13   6 C    3.991 --    14 C    1.432    12 C    1.425    48 H    0.966
                            16 C    0.107
    14   6 C    3.986 --    13 C    1.432    15 C    1.381    17 C    0.978
    15   6 C    3.991 --    16 C    1.483    14 C    1.381    49 H    0.967
                            12 C    0.104
    16   6 C    3.987 --    15 C    1.483    11 C    1.342    50 H    0.968
                            13 C    0.107
    17   6 C    3.991 --    19 C    0.985    18 C    0.985    14 C    0.978
                            20 C    0.977
    18   6 C    3.995 --    52 H    0.985    53 H    0.985    17 C    0.985
                            51 H    0.982
    19   6 C    3.995 --    54 H    0.985    17 C    0.985    55 H    0.985
                            56 H    0.982
    20   6 C    3.986 --    21 C    1.431    35 C    1.383    17 C    0.977
    21   6 C    3.991 --    20 C    1.431    22 C    1.427    57 H    0.966
                            34 C    0.107
    22   6 C    3.987 --    21 C    1.427    23 C    1.386    58 H    0.967
                            35 C    0.104
    23   6 C    3.930 --    22 C    1.386    34 C    1.343    24 O    1.050
    24   8 O    2.217 --    23 C    1.050    25 C    0.973
    25   6 C    3.952 --    26 C    1.002    24 O    0.973    59 H    0.967
                            60 H    0.966
    26   6 C    3.991 --    25 C    1.002    27 C    0.998    61 H    0.974
                            62 H    0.973
    27   6 C    3.929 --    26 C    0.998    64 H    0.970    63 H    0.967
                            28 O    0.947
    28   8 O    2.311 --    29 C    1.124    27 C    0.947    30 O    0.170
    29   6 C    3.917 --    30 O    1.721    28 O    1.124    31 C    0.994
    30   8 O    2.028 --    29 C    1.721    28 O    0.170
    31   6 C    3.986 --    33 C    1.876    32 C    1.030    29 C    0.994
    32   6 C    3.995 --    31 C    1.030    66 H    0.984    65 H    0.968
                            67 H    0.968
    33   6 C    3.985 --    31 C    1.876    69 H    0.975    68 H    0.971
    34   6 C    3.987 --    35 C    1.482    23 C    1.343    70 H    0.968
                            21 C    0.107
    35   6 C    3.991 --    34 C    1.482    20 C    1.383    71 H    0.967
                            22 C    0.104
    36   1 H    0.995 --     1 C    0.967
    37   1 H    0.997 --     1 C    0.985
    38   1 H    0.996 --     1 C    0.966
    39   1 H    0.997 --     3 C    0.974
    40   1 H    0.996 --     3 C    0.973
    41   1 H    0.995 --     7 C    0.967
    42   1 H    0.997 --     7 C    0.971
    43   1 H    0.994 --     8 C    0.972
    44   1 H    0.997 --     8 C    0.975
    45   1 H    0.999 --     9 C    0.966
    46   1 H    0.999 --     9 C    0.966
    47   1 H    0.999 --    12 C    0.967
    48   1 H    0.999 --    13 C    0.966
    49   1 H    0.998 --    15 C    0.967
    50   1 H    0.997 --    16 C    0.968
    51   1 H    0.997 --    18 C    0.982
    52   1 H    0.998 --    18 C    0.985
    53   1 H    0.999 --    18 C    0.985
    54   1 H    0.998 --    19 C    0.985
    55   1 H    0.998 --    19 C    0.985
    56   1 H    0.997 --    19 C    0.982
    57   1 H    0.998 --    21 C    0.966
    58   1 H    0.999 --    22 C    0.967
    59   1 H    0.999 --    25 C    0.967
    60   1 H    0.999 --    25 C    0.966
    61   1 H    0.996 --    26 C    0.974
    62   1 H    0.996 --    26 C    0.973
    63   1 H    0.997 --    27 C    0.967
    64   1 H    0.995 --    27 C    0.970
    65   1 H    0.996 --    32 C    0.968
    66   1 H    0.997 --    32 C    0.984
    67   1 H    0.996 --    32 C    0.968
    68   1 H    0.995 --    33 C    0.971
    69   1 H    0.996 --    33 C    0.975
    70   1 H    0.998 --    34 C    0.968
    71   1 H    0.998 --    35 C    0.967
 ---------------------------------------------------------------------------

Topologies differ in total number of bonds
Writing topology from bond orders to xtbtopo.mol

molecular dipole:
                 x           y           z       tot (Debye)
 q only:        0.503      -0.302       1.030
   full:        0.526      -0.231       1.197       3.375
molecular quadrupole (traceless):
                xx          xy          yy          xz          yz          zz
 q only:        4.766      10.619       5.453       6.070      -3.317     -10.219
  q+dip:        2.125      10.968       5.784      13.055      -3.542      -7.909
   full:        2.243      11.589       6.642      10.653      -2.089      -8.885

           -------------------------------------------------
          |                Geometry Summary                 |
           -------------------------------------------------

      molecular mass/u    :      480.5936376
   center of mass at/Å    :       -0.0338715      -0.0738675      -0.1406791
  moments of inertia/u·Å² :        0.3065873E+04   0.2078641E+05   0.2300321E+05
rotational constants/cm⁻¹ :        0.5498477E-02   0.8109930E-03   0.7328383E-03

 * 66 selected distances

     #   Z          #   Z                                           value/Å
     2   6 C        3   6 C                                       1.3282222
     4   6 C        5   8 O                                       1.2066042
     4   6 C        6   8 O                                       1.3414151
     6   8 O        7   6 C                                       1.4243895
     7   6 C        8   6 C                                       1.5281273
     8   6 C        9   6 C                                       1.5244165
     9   6 C       10   8 O                                       1.4093851
    10   8 O       11   6 C                                       1.3642637
    11   6 C       12   6 C                                       1.3872967
    12   6 C       13   6 C                                       1.3872770
    13   6 C       14   6 C                                       1.3843311
    14   6 C       15   6 C                                       1.3944027
    11   6 C       16   6 C                                       1.3956382
    15   6 C       16   6 C                                       1.3762230
    17   6 C       18   6 C                                       1.5356816 (max)
    17   6 C       19   6 C                                       1.5356416
    20   6 C       21   6 C                                       1.3845674
    21   6 C       22   6 C                                       1.3870736
    22   6 C       23   6 C                                       1.3873045
    23   6 C       24   8 O                                       1.3647276
    24   8 O       25   6 C                                       1.4115440
    25   6 C       26   6 C                                       1.5238226
    26   6 C       27   6 C                                       1.5279345
    27   6 C       28   8 O                                       1.4225174
    28   8 O       29   6 C                                       1.3403584
    29   6 C       30   8 O                                       1.2078500
    31   6 C       33   6 C                                       1.3292323
    23   6 C       34   6 C                                       1.3954989
    20   6 C       35   6 C                                       1.3941624
    34   6 C       35   6 C                                       1.3763600
     1   6 C       36   1 H                                       1.0881425
     1   6 C       37   1 H                                       1.0859570
     1   6 C       38   1 H                                       1.0892476
     3   6 C       39   1 H                                       1.0773701
     3   6 C       40   1 H                                       1.0754952 (min)
     7   6 C       41   1 H                                       1.0938515
     7   6 C       42   1 H                                       1.0923201
     8   6 C       43   1 H                                       1.0905574
     8   6 C       44   1 H                                       1.0917286
     9   6 C       45   1 H                                       1.1004551
     9   6 C       46   1 H                                       1.0988855
    12   6 C       47   1 H                                       1.0790101
    13   6 C       48   1 H                                       1.0783961
    15   6 C       49   1 H                                       1.0802037
    16   6 C       50   1 H                                       1.0784295
    18   6 C       51   1 H                                       1.0875162
    18   6 C       52   1 H                                       1.0884327
    18   6 C       53   1 H                                       1.0870246
    19   6 C       54   1 H                                       1.0883805
    19   6 C       55   1 H                                       1.0868881
    19   6 C       56   1 H                                       1.0874825
    21   6 C       57   1 H                                       1.0783839
    22   6 C       58   1 H                                       1.0788714
    25   6 C       59   1 H                                       1.0989206
    25   6 C       60   1 H                                       1.0986272
    26   6 C       61   1 H                                       1.0909668
    26   6 C       62   1 H                                       1.0907812
    27   6 C       63   1 H                                       1.0958734
    27   6 C       64   1 H                                       1.0909382
    32   6 C       65   1 H                                       1.0883425
    32   6 C       66   1 H                                       1.0866333
    32   6 C       67   1 H                                       1.0883982
    33   6 C       68   1 H                                       1.0767387
    33   6 C       69   1 H                                       1.0763675
    34   6 C       70   1 H                                       1.0786947
    35   6 C       71   1 H                                       1.0802854

 * 3 distinct bonds (by element types)

   Z      Z             #   av. dist./Å        max./Å        min./Å
   1 H    6 C          36     1.0867944     1.1004551     1.0754952
   6 C    6 C          20     1.4241607     1.5356816     1.3282222
   6 C    8 O          10     1.3493055     1.4243895     1.2066042


optimized geometry written to: xtbopt.xyz


           -------------------------------------------------
          | TOTAL ENERGY             -104.840930264315 Eh   |
          | GRADIENT NORM               0.000466831108 Eh/α |
          | HOMO-LUMO GAP               2.721561903183 eV   |
           -------------------------------------------------

------------------------------------------------------------------------
 * finished run on 2025/12/01 at 14:18:22.453     
------------------------------------------------------------------------
 total:
 * wall-time:     0 d,  0 h,  0 min,  4.631 sec
 *  cpu-time:     0 d,  0 h,  1 min, 45.718 sec
 * ratio c/w:    22.829 speedup
 SCF:
 * wall-time:     0 d,  0 h,  0 min,  0.091 sec
 *  cpu-time:     0 d,  0 h,  0 min,  2.008 sec
 * ratio c/w:    22.105 speedup
 ANC optimizer:
 * wall-time:     0 d,  0 h,  0 min,  4.524 sec
 *  cpu-time:     0 d,  0 h,  1 min, 43.418 sec
 * ratio c/w:    22.860 speedup

normal termination of xtb
