      -----------------------------------------------------------      
     |                   =====================                   |     
     |                           x T B                           |     
     |                   =====================                   |     
     |                         S. Grimme                         |     
     |          Mulliken Center for Theoretical Chemistry        |     
     |                    University of Bonn                     |     
      -----------------------------------------------------------      

   * xtb version 6.7.1 (edcfbbe) compiled by 'albert@albert-system' on 2024-07-22

   xtb is free software: you can redistribute it and/or modify it under
   the terms of the GNU Lesser General Public License as published by
   the Free Software Foundation, either version 3 of the License, or
   (at your option) any later version.
   
   xtb is distributed in the hope that it will be useful,
   but WITHOUT ANY WARRANTY; without even the implied warranty of
   MERCHANTABILITY or FITNESS FOR A PARTICULAR PURPOSE.  See the
   GNU Lesser General Public License for more details.
   
   Cite this work as:
   * C. Bannwarth, E. Caldeweyher, S. Ehlert, A. Hansen, P. Pracht,
     J. Seibert, S. Spicher, S. Grimme, WIREs Comput. Mol. Sci., 2020, 11,
     e01493. DOI: 10.1002/wcms.1493
   
   for GFN2-xTB:
   * C. Bannwarth, S. Ehlert and S. Grimme., J. Chem. Theory Comput., 2019,
     15, 1652-1671. DOI: 10.1021/acs.jctc.8b01176
   for GFN1-xTB:
   * S. Grimme, C. Bannwarth, P. Shushkov, J. Chem. Theory Comput., 2017,
     13, 1989-2009. DOI: 10.1021/acs.jctc.7b00118
   for GFN0-xTB:
   * P. Pracht, E. Caldeweyher, S. Ehlert, S. Grimme, ChemRxiv, 2019, preprint.
     DOI: 10.26434/chemrxiv.8326202.v1
   for GFN-FF:
   * S. Spicher and S. Grimme, Angew. Chem. Int. Ed., 2020, 59, 15665-15673.
     DOI: 10.1002/anie.202004239
   
   for ALPB and GBSA implicit solvation:
   * S. Ehlert, M. Stahn, S. Spicher, S. Grimme, J. Chem. Theory Comput.,
     2021, 17, 4250-4261. DOI: 10.1021/acs.jctc.1c00471
   
   for ddCOSMO and CPCM-X implicit solvation:
   * M. Stahn, S. Ehlert, S. Grimme, J. Phys. Chem. A,
     2023, XX, XXXX-XXXX. DOI: 10.1021/acs.jpca.3c04382
   
   for DFT-D4:
   * E. Caldeweyher, C. Bannwarth and S. Grimme, J. Chem. Phys., 2017,
     147, 034112. DOI: 10.1063/1.4993215
   * E. Caldeweyher, S. Ehlert, A. Hansen, H. Neugebauer, S. Spicher,
     C. Bannwarth and S. Grimme, J. Chem. Phys., 2019, 150, 154122.
     DOI: 10.1063/1.5090222
   * E. Caldeweyher, J.-M. Mewes, S. Ehlert and S. Grimme, Phys. Chem. Chem. Phys.
     2020, 22, 8499-8512. DOI: 10.1039/D0CP00502A
   
   for sTDA-xTB:
   * S. Grimme and C. Bannwarth, J. Chem. Phys., 2016, 145, 054103.
     DOI: 10.1063/1.4959605
   
   in the mass-spec context:
   * V. Asgeirsson, C. Bauer and S. Grimme, Chem. Sci., 2017, 8, 4879.
     DOI: 10.1039/c7sc00601b
   * J. Koopman and S. Grimme, ACS Omega 2019, 4, 12, 15120-15133.
     DOI: 10.1021/acsomega.9b02011
   
   for metadynamics refer to:
   * S. Grimme, J. Chem. Theory Comput., 2019, 155, 2847-2862
     DOI: 10.1021/acs.jctc.9b00143
   
   for SPH calculations refer to:
   * S. Spicher and S. Grimme, J. Chem. Theory Comput., 2021, 17, 1701-1714
     DOI: 10.1021/acs.jctc.0c01306
   
   for ONIOM refer to:
   * C. Plett, A. Katbashev, S. Ehlert, S. Grimme, M. Bursch,
     Phys. Chem. Chem. Phys., 2023, 25, 17860-17868. DOI: 10.1039/D3CP02178E
   
   for DIPRO refer to:
   * J. Kohn, N. Gildemeister, S. Grimme, D. Fazzi, A. Hansen,
     J. Chem. Phys., 2023, just accepted.
   
   for PTB refer to:
   * S. Grimme, M. Mueller, A. Hansen, J. Chem. Phys., 2023, 158, 124111.
     DOI: 10.1063/5.0137838
   
   with help from (in alphabetical order)
   P. Atkinson, C. Bannwarth, F. Bohle, G. Brandenburg, E. Caldeweyher
   M. Checinski, S. Dohm, S. Ehlert, S. Ehrlich, I. Gerasimov, C. Hölzer
   A. Katbashev, J. Kohn, J. Koopman, C. Lavigne, S. Lehtola, F. März, M. Müller,
   F. Musil, H. Neugebauer, J. Pisarek, C. Plett, P. Pracht, F. Pultar,
   J. Seibert, P. Shushkov, S. Spicher, M. Stahn, M. Steiner, T. Strunk,
   J. Stückrath, T. Rose, and J. Unsleber
   
 * started run on 2025/12/01 at 14:18:25.112     
   ID    Z sym.   atoms
    1    6 C      1-4, 7-9, 11-23, 25-27, 29, 31-35
    2    8 O      5, 6, 10, 24, 28, 30
    3    1 H      36-71

           -------------------------------------------------
          |                Calculation Setup                |
           -------------------------------------------------

          program call               : xtb pipeline_data/3_conformer_xyz/acrylates/rdkit/OPZLDVPRAIERSE-UHFFFAOYSA-N_conf26.xyz --opt --gfn 2-xTB --iterations 250
          coordinate file            : pipeline_data/3_conformer_xyz/acrylates/rdkit/OPZLDVPRAIERSE-UHFFFAOYSA-N_conf26.xyz
          omp threads                :                    24

########################################################################
[WARNING] Please study the warnings concerning your input carefully
-1- readin_getIntValue: could not parse '2-xTB'
########################################################################

           -------------------------------------------------
          |                 G F N 2 - x T B                 |
           -------------------------------------------------

        Reference                      10.1021/acs.jctc.8b01176
      * Hamiltonian:
        H0-scaling (s, p, d)           1.850000    2.230000    2.230000
        zeta-weighting                 0.500000
      * Dispersion:
        s8                             2.700000
        a1                             0.520000
        a2                             5.000000
        s9                             5.000000
      * Repulsion:
        kExp                           1.500000    1.000000
        rExp                           1.000000
      * Coulomb:
        alpha                          2.000000
        third order                    shell-resolved
        anisotropic                    true
        a3                             3.000000
        a5                             4.000000
        cn-shift                       1.200000
        cn-exp                         4.000000
        max-rad                        5.000000

q/qsh data taken from xtbrestart
CAMM data taken from xtbrestart

          ...................................................
          :                      SETUP                      :
          :.................................................:
          :  # basis functions                 176          :
          :  # atomic orbitals                 176          :
          :  # shells                          106          :
          :  # electrons                       188          :
          :  max. iterations                   250          :
          :  Hamiltonian                  GFN2-xTB          :
          :  restarted?                       true          :
          :  GBSA solvation                  false          :
          :  PC potential                    false          :
          :  electronic temp.          300.0000000     K    :
          :  accuracy                    1.0000000          :
          :  -> integral cutoff          0.2500000E+02      :
          :  -> integral neglect         0.1000000E-07      :
          :  -> SCF convergence          0.1000000E-05 Eh   :
          :  -> wf. convergence          0.1000000E-03 e    :
          :  Broyden damping             0.4000000          :
          :  net charge                          0          :
          :  unpaired electrons                  0          :
          ...................................................

 iter      E             dE          RMSdq      gap      omega  full diag
   1   -106.1836234 -0.106184E+03  0.440E+00    2.63       0.0  T
   2   -106.1955881 -0.119647E-01  0.261E+00    2.47       1.0  T
   3   -106.1444571  0.511311E-01  0.943E-01    2.40       1.0  T
   4   -106.2033991 -0.589420E-01  0.173E-01    2.35       1.0  T
   5   -106.2040602 -0.661134E-03  0.898E-02    2.37       1.0  T
   6   -106.2041503 -0.900357E-04  0.439E-02    2.38       1.0  T
   7   -106.2042065 -0.562623E-04  0.156E-02    2.37       1.0  T
   8   -106.2042156 -0.907382E-05  0.745E-03    2.37       1.6  T
   9   -106.2042164 -0.771259E-06  0.345E-03    2.37       3.4  T
  10   -106.2042168 -0.420185E-06  0.149E-03    2.37       7.9  T
  11   -106.2042168 -0.350470E-07  0.609E-04    2.37      19.5  T
  12   -106.2042168 -0.580361E-08  0.275E-04    2.37      43.2  T

   *** convergence criteria satisfied after 12 iterations ***

         #    Occupation            Energy/Eh            Energy/eV
      -------------------------------------------------------------
         1        2.0000           -0.7359073             -20.0251
       ...           ...                  ...                  ...
        88        2.0000           -0.4097096             -11.1488
        89        2.0000           -0.4053533             -11.0302
        90        2.0000           -0.4028255             -10.9614
        91        2.0000           -0.3976077             -10.8195
        92        2.0000           -0.3959802             -10.7752
        93        2.0000           -0.3728354             -10.1454
        94        2.0000           -0.3698407             -10.0639 (HOMO)
        95                         -0.2826003              -7.6899 (LUMO)
        96                         -0.2792382              -7.5985
        97                         -0.2199753              -5.9858
        98                         -0.2175794              -5.9206
        99                         -0.2103085              -5.7228
       ...                                ...                  ...
       176                          0.6864788              18.6800
      -------------------------------------------------------------
                  HL-Gap            0.0872404 Eh            2.3739 eV
             Fermi-level           -0.3262205 Eh           -8.8769 eV

 SCC (total)                   0 d,  0 h,  0 min,  0.091 sec
 SCC setup                      ...        0 min,  0.001 sec (  0.604%)
 Dispersion                     ...        0 min,  0.003 sec (  2.874%)
 classical contributions        ...        0 min,  0.000 sec (  0.471%)
 integral evaluation            ...        0 min,  0.006 sec (  6.727%)
 iterations                     ...        0 min,  0.070 sec ( 76.653%)
 molecular gradient             ...        0 min,  0.011 sec ( 12.024%)
 printout                       ...        0 min,  0.001 sec (  0.599%)

         :::::::::::::::::::::::::::::::::::::::::::::::::::::
         ::                     SUMMARY                     ::
         :::::::::::::::::::::::::::::::::::::::::::::::::::::
         :: total energy            -104.776982484127 Eh    ::
         :: gradient norm              0.189432111607 Eh/a0 ::
         :: HOMO-LUMO gap              2.373931611827 eV    ::
         ::.................................................::
         :: SCC energy              -106.204132024451 Eh    ::
         :: -> isotropic ES            0.128652952406 Eh    ::
         :: -> anisotropic ES          0.008564188173 Eh    ::
         :: -> anisotropic XC          0.034924780436 Eh    ::
         :: -> dispersion             -0.068649694930 Eh    ::
         :: repulsion energy           1.427149540325 Eh    ::
         :: add. restraining           0.000000000000 Eh    ::
         :: total charge               0.000000000000 e     ::
         :::::::::::::::::::::::::::::::::::::::::::::::::::::

      ----------------------------------------------------------- 
     |                   =====================                   |
     |                        A N C O P T                        |
     |                   =====================                   |
     |               Approximate Normal Coordinate               |
     |                Rational Function Optimizer                |
      ----------------------------------------------------------- 
      ----------------------------------------------------------- 
     |                   =====================                   |
     |                        A N C O P T                        |
     |                   =====================                   |
     |               Approximate Normal Coordinate               |
     |                Rational Function Optimizer                |
      ----------------------------------------------------------- 

          ...................................................
          :                      SETUP                      :
          :.................................................:
          :   optimization level            normal          :
          :   max. optcycles                   213          :
          :   ANC micro-cycles                  20          :
          :   degrees of freedom               207          :
          :.................................................:
          :   RF solver                   davidson          :
          :   write xtbopt.log                true          :
          :   linear?                        false          :
          :   energy convergence         0.5000000E-05 Eh   :
          :   grad. convergence          0.1000000E-02 Eh/α :
          :   maxmium RF displ.          1.0000000          :
          :   Hlow (freq-cutoff)         0.1000000E-01      :
          :   Hmax (freq-cutoff)         5.0000000          :
          :   S6 in model hess.         20.0000000          :
          ...................................................

generating ANC from exact Hessian ...
Using Lindh-Hessian (1995)
 Shifting diagonal of input Hessian by   9.973049596850378E-003
 Lowest  eigenvalues of input Hessian
    0.000000    0.000000    0.000000    0.000000    0.000000    0.000000
    0.010000    0.010050    0.010079    0.010133    0.010184    0.010390
    0.010457    0.010823    0.010925    0.011310    0.011415    0.011465
 Highest eigenvalues
    2.051357    2.067400    2.155224    2.156578    2.164068    2.192424
 

........................................................................
.............................. CYCLE    1 ..............................
........................................................................

 iter      E             dE          RMSdq      gap      omega  full diag
   1   -106.2042168 -0.106204E+03  0.106E-04    2.37       0.0  T
   2   -106.2042168 -0.209809E-09  0.700E-05    2.37     169.5  T
   3   -106.2042168 -0.193168E-09  0.413E-05    2.37     287.4  T
     SCC iter.                  ...        0 min,  0.019 sec
     gradient                   ...        0 min,  0.011 sec
 * total energy  :  -104.7769825 Eh     change       -0.2407631E-08 Eh
   gradient norm :     0.1894327 Eh/α   predicted     0.0000000E+00 (-100.00%)
   displ. norm   :     0.4563196 α      lambda       -0.4992117E-01
   maximum displ.:     0.1158622 α      in ANC's #55, #57, #82, ...

........................................................................
.............................. CYCLE    2 ..............................
........................................................................

 iter      E             dE          RMSdq      gap      omega  full diag
   1   -106.2554015 -0.106255E+03  0.259E-01    2.47       0.0  T
   2   -106.2558709 -0.469405E-03  0.159E-01    2.47       1.0  T
   3   -106.2557242  0.146655E-03  0.791E-02    2.47       1.0  T
   4   -106.2559407 -0.216480E-03  0.238E-02    2.46       1.0  T
   5   -106.2559720 -0.312493E-04  0.872E-03    2.46       1.4  T
   6   -106.2559745 -0.251427E-05  0.453E-03    2.46       2.6  T
   7   -106.2559747 -0.216383E-06  0.228E-03    2.46       5.2  T
   8   -106.2559748 -0.159418E-06  0.773E-04    2.46      15.4  T
   9   -106.2559749 -0.122212E-07  0.326E-04    2.46      36.4  T
     SCC iter.                  ...        0 min,  0.049 sec
     gradient                   ...        0 min,  0.010 sec
 * total energy  :  -104.8128579 Eh     change       -0.3587546E-01 Eh
   gradient norm :     0.0794356 Eh/α   predicted    -0.3019582E-01 ( -15.83%)
   displ. norm   :     0.4460219 α      lambda       -0.1852414E-01
   maximum displ.:     0.1371176 α      in ANC's #57, #55, #40, ...

........................................................................
.............................. CYCLE    3 ..............................
........................................................................

 iter      E             dE          RMSdq      gap      omega  full diag
   1   -106.2795981 -0.106280E+03  0.194E-01    2.55       0.0  T
   2   -106.2798098 -0.211737E-03  0.117E-01    2.55       1.0  T
   3   -106.2796910  0.118781E-03  0.613E-02    2.56       1.0  T
   4   -106.2798467 -0.155728E-03  0.175E-02    2.55       1.0  T
   5   -106.2798633 -0.165450E-04  0.590E-03    2.55       2.0  T
   6   -106.2798644 -0.114831E-05  0.299E-03    2.55       4.0  T
   7   -106.2798646 -0.133236E-06  0.151E-03    2.55       7.9  T
   8   -106.2798646 -0.616516E-07  0.537E-04    2.55      22.1  T
   9   -106.2798646 -0.527366E-08  0.232E-04    2.55      51.2  T
     SCC iter.                  ...        0 min,  0.046 sec
     gradient                   ...        0 min,  0.013 sec
 * total energy  :  -104.8244807 Eh     change       -0.1162277E-01 Eh
   gradient norm :     0.0208812 Eh/α   predicted    -0.1110663E-01 (  -4.44%)
   displ. norm   :     0.3561253 α      lambda       -0.3858943E-02
   maximum displ.:     0.1283137 α      in ANC's #40, #9, #17, ...

........................................................................
.............................. CYCLE    4 ..............................
........................................................................

 iter      E             dE          RMSdq      gap      omega  full diag
   1   -106.2804508 -0.106280E+03  0.965E-02    2.56       0.0  T
   2   -106.2804682 -0.173627E-04  0.577E-02    2.57       1.0  T
   3   -106.2804370  0.312291E-04  0.244E-02    2.57       1.0  T
   4   -106.2804726 -0.356367E-04  0.567E-03    2.57       2.1  T
   5   -106.2804742 -0.153675E-05  0.210E-03    2.57       5.6  T
   6   -106.2804743 -0.133473E-06  0.111E-03    2.57      10.7  T
   7   -106.2804743 -0.165214E-07  0.450E-04    2.57      26.4  T
   8   -106.2804743 -0.571586E-08  0.175E-04    2.57      67.8  T
     SCC iter.                  ...        0 min,  0.046 sec
     gradient                   ...        0 min,  0.011 sec
 * total energy  :  -104.8271769 Eh     change       -0.2696176E-02 Eh
   gradient norm :     0.0133549 Eh/α   predicted    -0.2174176E-02 ( -19.36%)
   displ. norm   :     0.3722899 α      lambda       -0.1884006E-02
   maximum displ.:     0.1575536 α      in ANC's #9, #40, #17, ...

........................................................................
.............................. CYCLE    5 ..............................
........................................................................

 iter      E             dE          RMSdq      gap      omega  full diag
   1   -106.2820137 -0.106282E+03  0.793E-02    2.57       0.0  T
   2   -106.2820198 -0.613386E-05  0.470E-02    2.58       1.0  T
   3   -106.2820132  0.667003E-05  0.112E-02    2.58       1.1  T
   4   -106.2820213 -0.813073E-05  0.342E-03    2.58       3.5  T
   5   -106.2820217 -0.451129E-06  0.162E-03    2.58       7.3  T
   6   -106.2820218 -0.439767E-07  0.885E-04    2.58      13.4  T
   7   -106.2820218 -0.163787E-07  0.258E-04    2.58      46.0  T
     SCC iter.                  ...        0 min,  0.037 sec
     gradient                   ...        0 min,  0.010 sec
 * total energy  :  -104.8285149 Eh     change       -0.1337993E-02 Eh
   gradient norm :     0.0081609 Eh/α   predicted    -0.1072587E-02 ( -19.84%)
   displ. norm   :     0.3637523 α      lambda       -0.1035503E-02
   maximum displ.:     0.1880942 α      in ANC's #9, #17, #40, ...

........................................................................
.............................. CYCLE    6 ..............................
........................................................................

 iter      E             dE          RMSdq      gap      omega  full diag
   1   -106.2841992 -0.106284E+03  0.772E-02    2.57       0.0  T
   2   -106.2842025 -0.330458E-05  0.457E-02    2.58       1.0  T
   3   -106.2841950  0.756131E-05  0.112E-02    2.57       1.1  T
   4   -106.2842043 -0.928070E-05  0.249E-03    2.58       4.8  T
   5   -106.2842044 -0.111238E-06  0.149E-03    2.58       8.0  T
   6   -106.2842044 -0.275536E-07  0.736E-04    2.57      16.1  T
   7   -106.2842044 -0.171417E-07  0.220E-04    2.57      53.9  T
     SCC iter.                  ...        0 min,  0.033 sec
     gradient                   ...        0 min,  0.010 sec
 * total energy  :  -104.8292583 Eh     change       -0.7433947E-03 Eh
   gradient norm :     0.0082078 Eh/α   predicted    -0.5862585E-03 ( -21.14%)
   displ. norm   :     0.3389463 α      lambda       -0.6487358E-03
   maximum displ.:     0.1903183 α      in ANC's #9, #11, #17, ...

........................................................................
.............................. CYCLE    7 ..............................
........................................................................

 iter      E             dE          RMSdq      gap      omega  full diag
   1   -106.2864804 -0.106286E+03  0.691E-02    2.57       0.0  T
   2   -106.2864821 -0.178291E-05  0.409E-02    2.57       1.0  T
   3   -106.2864728  0.938091E-05  0.122E-02    2.57       1.0  T
   4   -106.2864837 -0.109733E-04  0.202E-03    2.57       5.9  T
   5   -106.2864838 -0.325350E-07  0.129E-03    2.57       9.2  T
   6   -106.2864838 -0.309503E-07  0.540E-04    2.57      22.0  T
   7   -106.2864838 -0.868049E-08  0.153E-04    2.57      77.5  T
     SCC iter.                  ...        0 min,  0.050 sec
     gradient                   ...        0 min,  0.014 sec
 * total energy  :  -104.8297305 Eh     change       -0.4722228E-03 Eh
   gradient norm :     0.0075668 Eh/α   predicted    -0.3616390E-03 ( -23.42%)
   displ. norm   :     0.3392910 α      lambda       -0.4918704E-03
   maximum displ.:     0.1954210 α      in ANC's #9, #11, #19, ...

........................................................................
.............................. CYCLE    8 ..............................
........................................................................

 iter      E             dE          RMSdq      gap      omega  full diag
   1   -106.2868168 -0.106287E+03  0.718E-02    2.57       0.0  T
   2   -106.2868201 -0.334247E-05  0.424E-02    2.57       1.0  T
   3   -106.2868161  0.398060E-05  0.823E-03    2.57       1.4  T
   4   -106.2868209 -0.474563E-05  0.275E-03    2.57       4.3  T
   5   -106.2868212 -0.343704E-06  0.118E-03    2.57      10.0  T
   6   -106.2868212 -0.540012E-12  0.709E-04    2.57      16.7  T
   7   -106.2868212 -0.178978E-07  0.171E-04    2.57      69.4  T
     SCC iter.                  ...        0 min,  0.038 sec
     gradient                   ...        0 min,  0.011 sec
 * total energy  :  -104.8300732 Eh     change       -0.3426460E-03 Eh
   gradient norm :     0.0081824 Eh/α   predicted    -0.2742476E-03 ( -19.96%)
   displ. norm   :     0.3305784 α      lambda       -0.3941960E-03
   maximum displ.:     0.1874408 α      in ANC's #9, #11, #19, ...

........................................................................
.............................. CYCLE    9 ..............................
........................................................................

 iter      E             dE          RMSdq      gap      omega  full diag
   1   -106.2873963 -0.106287E+03  0.637E-02    2.57       0.0  T
   2   -106.2873995 -0.320901E-05  0.376E-02    2.57       1.0  T
   3   -106.2873939  0.558491E-05  0.100E-02    2.57       1.2  T
   4   -106.2874004 -0.644966E-05  0.259E-03    2.57       4.6  T
   5   -106.2874007 -0.273644E-06  0.107E-03    2.57      11.1  T
   6   -106.2874007 -0.398202E-08  0.547E-04    2.57      21.7  T
   7   -106.2874007 -0.865890E-08  0.194E-04    2.57      61.3  T
     SCC iter.                  ...        0 min,  0.036 sec
     gradient                   ...        0 min,  0.010 sec
 * total energy  :  -104.8303269 Eh     change       -0.2537648E-03 Eh
   gradient norm :     0.0055089 Eh/α   predicted    -0.2186425E-03 ( -13.84%)
   displ. norm   :     0.2877711 α      lambda       -0.2562066E-03
   maximum displ.:     0.1572604 α      in ANC's #9, #11, #16, ...

........................................................................
.............................. CYCLE   10 ..............................
........................................................................

 iter      E             dE          RMSdq      gap      omega  full diag
   1   -106.2858773 -0.106286E+03  0.594E-02    2.58       0.0  T
   2   -106.2858799 -0.263426E-05  0.351E-02    2.57       1.0  T
   3   -106.2858782  0.171278E-05  0.608E-03    2.57       2.0  T
   4   -106.2858802 -0.205281E-05  0.252E-03    2.57       4.7  T
   5   -106.2858805 -0.304849E-06  0.982E-04    2.57      12.1  T
   6   -106.2858805 -0.610756E-08  0.534E-04    2.57      22.2  T
     SCC iter.                  ...        0 min,  0.031 sec
     gradient                   ...        0 min,  0.011 sec
 * total energy  :  -104.8305049 Eh     change       -0.1780018E-03 Eh
   gradient norm :     0.0056189 Eh/α   predicted    -0.1387153E-03 ( -22.07%)
   displ. norm   :     0.2807851 α      lambda       -0.2320222E-03
   maximum displ.:     0.1428628 α      in ANC's #9, #11, #16, ...

........................................................................
.............................. CYCLE   11 ..............................
........................................................................

 iter      E             dE          RMSdq      gap      omega  full diag
   1   -106.2865017 -0.106287E+03  0.549E-02    2.58       0.0  T
   2   -106.2865040 -0.226615E-05  0.325E-02    2.58       1.0  T
   3   -106.2865007  0.323506E-05  0.767E-03    2.58       1.5  T
   4   -106.2865045 -0.372554E-05  0.219E-03    2.58       5.4  T
   5   -106.2865047 -0.209702E-06  0.872E-04    2.58      13.6  T
   6   -106.2865047 -0.652075E-08  0.444E-04    2.58      26.7  T
     SCC iter.                  ...        0 min,  0.030 sec
     gradient                   ...        0 min,  0.010 sec
 * total energy  :  -104.8306553 Eh     change       -0.1504020E-03 Eh
   gradient norm :     0.0046213 Eh/α   predicted    -0.1251578E-03 ( -16.78%)
   displ. norm   :     0.2566482 α      lambda       -0.1589980E-03
   maximum displ.:     0.1209986 α      in ANC's #9, #11, #16, ...

........................................................................
.............................. CYCLE   12 ..............................
........................................................................

 iter      E             dE          RMSdq      gap      omega  full diag
   1   -106.2860837 -0.106286E+03  0.522E-02    2.59       0.0  T
   2   -106.2860847 -0.965870E-06  0.308E-02    2.59       1.0  T
   3   -106.2860844  0.275112E-06  0.337E-03    2.59       3.5  T
   4   -106.2860850 -0.584704E-06  0.126E-03    2.59       9.4  T
   5   -106.2860850 -0.264740E-07  0.798E-04    2.59      14.9  T
   6   -106.2860850 -0.133444E-07  0.307E-04    2.59      38.6  T
     SCC iter.                  ...        0 min,  0.032 sec
     gradient                   ...        0 min,  0.010 sec
 * total energy  :  -104.8307607 Eh     change       -0.1053833E-03 Eh
   gradient norm :     0.0041505 Eh/α   predicted    -0.8477531E-04 ( -19.56%)
   displ. norm   :     0.2160698 α      lambda       -0.1226400E-03
   maximum displ.:     0.0943095 α      in ANC's #12, #9, #11, ...

........................................................................
.............................. CYCLE   13 ..............................
........................................................................

 iter      E             dE          RMSdq      gap      omega  full diag
   1   -106.2876648 -0.106288E+03  0.431E-02    2.60       0.0  T
   2   -106.2876658 -0.954882E-06  0.254E-02    2.60       1.0  T
   3   -106.2876635  0.224535E-05  0.632E-03    2.60       1.9  T
   4   -106.2876660 -0.250546E-05  0.133E-03    2.60       9.0  T
   5   -106.2876661 -0.794449E-07  0.503E-04    2.60      23.6  T
   6   -106.2876661 -0.101051E-08  0.265E-04    2.60      44.8  T
     SCC iter.                  ...        0 min,  0.028 sec
     gradient                   ...        0 min,  0.010 sec
 * total energy  :  -104.8308531 Eh     change       -0.9237451E-04 Eh
   gradient norm :     0.0039133 Eh/α   predicted    -0.6418562E-04 ( -30.52%)
   displ. norm   :     0.3166938 α      lambda       -0.1522713E-03
   maximum displ.:     0.1481919 α      in ANC's #12, #9, #11, ...

........................................................................
.............................. CYCLE   14 ..............................
........................................................................

 iter      E             dE          RMSdq      gap      omega  full diag
   1   -106.2872477 -0.106287E+03  0.659E-02    2.58       0.0  T
   2   -106.2872499 -0.219895E-05  0.388E-02    2.59       1.0  T
   3   -106.2872460  0.390038E-05  0.839E-03    2.59       1.4  T
   4   -106.2872504 -0.441272E-05  0.202E-03    2.59       5.9  T
   5   -106.2872506 -0.188305E-06  0.792E-04    2.59      15.0  T
   6   -106.2872506 -0.490850E-08  0.429E-04    2.59      27.7  T
     SCC iter.                  ...        0 min,  0.031 sec
     gradient                   ...        0 min,  0.011 sec
 * total energy  :  -104.8309625 Eh     change       -0.1094413E-03 Eh
   gradient norm :     0.0057563 Eh/α   predicted    -0.8377187E-04 ( -23.46%)
   displ. norm   :     0.3838409 α      lambda       -0.2323725E-03
   maximum displ.:     0.2094522 α      in ANC's #12, #5, #9, ...

........................................................................
.............................. CYCLE   15 ..............................
........................................................................

 iter      E             dE          RMSdq      gap      omega  full diag
   1   -106.2900417 -0.106290E+03  0.817E-02    2.61       0.0  T
   2   -106.2900458 -0.412091E-05  0.482E-02    2.60       1.0  T
   3   -106.2900387  0.712641E-05  0.111E-02    2.60       1.1  T
   4   -106.2900466 -0.784451E-05  0.285E-03    2.60       4.2  T
   5   -106.2900470 -0.434329E-06  0.885E-04    2.60      13.4  T
   6   -106.2900470 -0.115145E-07  0.499E-04    2.60      23.8  T
     SCC iter.                  ...        0 min,  0.028 sec
     gradient                   ...        0 min,  0.011 sec
 * total energy  :  -104.8311041 Eh     change       -0.1416093E-03 Eh
   gradient norm :     0.0082640 Eh/α   predicted    -0.1333041E-03 (  -5.86%)
   displ. norm   :     0.3791857 α      lambda       -0.2397272E-03
   maximum displ.:     0.2093730 α      in ANC's #12, #5, #10, ...

........................................................................
.............................. CYCLE   16 ..............................
........................................................................

 iter      E             dE          RMSdq      gap      omega  full diag
   1   -106.2892814 -0.106289E+03  0.832E-02    2.59       0.0  T
   2   -106.2892839 -0.250285E-05  0.490E-02    2.59       1.0  T
   3   -106.2892795  0.443540E-05  0.876E-03    2.59       1.4  T
   4   -106.2892845 -0.495386E-05  0.230E-03    2.59       5.2  T
   5   -106.2892847 -0.262975E-06  0.798E-04    2.59      14.9  T
   6   -106.2892847 -0.704041E-08  0.432E-04    2.59      27.4  T
     SCC iter.                  ...        0 min,  0.028 sec
     gradient                   ...        0 min,  0.010 sec
 * total energy  :  -104.8313080 Eh     change       -0.2038413E-03 Eh
   gradient norm :     0.0071581 Eh/α   predicted    -0.1370969E-03 ( -32.74%)
   displ. norm   :     0.5619814 α      lambda       -0.4540127E-03
   maximum displ.:     0.3142291 α      in ANC's #12, #10, #5, ...

........................................................................
.............................. CYCLE   17 ..............................
........................................................................

 iter      E             dE          RMSdq      gap      omega  full diag
   1   -106.2861245 -0.106286E+03  0.127E-01    2.57       0.0  T
   2   -106.2861295 -0.505858E-05  0.750E-02    2.57       1.0  T
   3   -106.2861259  0.366587E-05  0.843E-03    2.57       1.4  T
   4   -106.2861302 -0.432056E-05  0.317E-03    2.57       3.7  T
   5   -106.2861307 -0.520676E-06  0.117E-03    2.57      10.1  T
   6   -106.2861307 -0.188066E-07  0.626E-04    2.57      19.0  T
   7   -106.2861307 -0.711351E-08  0.139E-04    2.57      85.2  T
     SCC iter.                  ...        0 min,  0.042 sec
     gradient                   ...        0 min,  0.010 sec
 * total energy  :  -104.8316821 Eh     change       -0.3740962E-03 Eh
   gradient norm :     0.0089380 Eh/α   predicted    -0.2986967E-03 ( -20.16%)
   displ. norm   :     0.5972287 α      lambda       -0.5312241E-03
   maximum displ.:     0.3335489 α      in ANC's #12, #10, #13, ...

........................................................................
.............................. CYCLE   18 ..............................
........................................................................

 iter      E             dE          RMSdq      gap      omega  full diag
   1   -106.2863452 -0.106286E+03  0.138E-01    2.57       0.0  T
   2   -106.2863498 -0.462201E-05  0.813E-02    2.57       1.0  T
   3   -106.2863468  0.296640E-05  0.816E-03    2.57       1.5  T
   4   -106.2863508 -0.399097E-05  0.280E-03    2.56       4.2  T
   5   -106.2863511 -0.302343E-06  0.132E-03    2.57       9.0  T
   6   -106.2863511 -0.313269E-07  0.660E-04    2.57      18.0  T
   7   -106.2863511 -0.762803E-08  0.167E-04    2.57      71.1  T
     SCC iter.                  ...        0 min,  0.041 sec
     gradient                   ...        0 min,  0.010 sec
 * total energy  :  -104.8320484 Eh     change       -0.3663405E-03 Eh
   gradient norm :     0.0119549 Eh/α   predicted    -0.3603481E-03 (  -1.64%)
   displ. norm   :     0.6854723 α      lambda       -0.5570853E-03
   maximum displ.:     0.3683091 α      in ANC's #12, #10, #5, ...

........................................................................
.............................. CYCLE   19 ..............................
........................................................................

 iter      E             dE          RMSdq      gap      omega  full diag
   1   -106.2726998 -0.106273E+03  0.153E-01    2.56       0.0  T
   2   -106.2727146 -0.148655E-04  0.894E-02    2.56       1.0  T
   3   -106.2727087  0.598845E-05  0.122E-02    2.56       1.0  T
   4   -106.2727158 -0.718972E-05  0.497E-03    2.56       2.4  T
   5   -106.2727171 -0.125094E-05  0.180E-03    2.56       6.6  T
   6   -106.2727171 -0.315642E-07  0.980E-04    2.56      12.1  T
   7   -106.2727171 -0.225848E-07  0.225E-04    2.56      52.8  T
     SCC iter.                  ...        0 min,  0.035 sec
     gradient                   ...        0 min,  0.013 sec
 * total energy  :  -104.8321422 Eh     change       -0.9377671E-04 Eh
   gradient norm :     0.0187717 Eh/α   predicted    -0.4094171E-03 ( 336.59%)
   displ. norm   :     0.1970836 α      lambda       -0.8583285E-03
   maximum displ.:     0.0930648 α      in ANC's #9, #11, #10, ...

........................................................................
.............................. CYCLE   20 ..............................
........................................................................

 iter      E             dE          RMSdq      gap      omega  full diag
   1   -106.2874787 -0.106287E+03  0.524E-02    2.59       0.0  T
   2   -106.2874880 -0.922557E-05  0.304E-02    2.58       1.0  T
   3   -106.2874833  0.466596E-05  0.117E-02    2.58       1.0  T
   4   -106.2874883 -0.500042E-05  0.431E-03    2.58       2.8  T
   5   -106.2874894 -0.108377E-05  0.110E-03    2.58      10.8  T
   6   -106.2874894 -0.256047E-07  0.592E-04    2.58      20.1  T
   7   -106.2874894 -0.426688E-08  0.184E-04    2.58      64.4  T
     SCC iter.                  ...        0 min,  0.032 sec
     gradient                   ...        0 min,  0.012 sec
 * total energy  :  -104.8326062 Eh     change       -0.4639770E-03 Eh
   gradient norm :     0.0093810 Eh/α   predicted    -0.4458359E-03 (  -3.91%)
   displ. norm   :     0.4916477 α      lambda       -0.5984842E-03
   maximum displ.:     0.2528149 α      in ANC's #12, #10, #6, ...
 * RMSD in coord.:     0.6025095 α      energy gain  -0.5562368E-01 Eh

generating ANC from exact Hessian ...
Using Lindh-Hessian (1995)
 Shifting diagonal of input Hessian by   9.968309920062856E-003
 Lowest  eigenvalues of input Hessian
    0.000000    0.000000    0.000000    0.000000    0.000000    0.000000
    0.010000    0.010069    0.010086    0.010136    0.010194    0.010417
    0.010550    0.010776    0.011033    0.011294    0.011320    0.011581
 Highest eigenvalues
    1.996175    2.000754    2.111961    2.115572    2.366182    2.384142
 

........................................................................
.............................. CYCLE   21 ..............................
........................................................................

 iter      E             dE          RMSdq      gap      omega  full diag
   1   -106.2846247 -0.106285E+03  0.123E-01    2.56       0.0  T
   2   -106.2846323 -0.754059E-05  0.720E-02    2.56       1.0  T
   3   -106.2846307  0.155204E-05  0.722E-03    2.57       1.6  T
   4   -106.2846331 -0.239293E-05  0.319E-03    2.56       3.7  T
   5   -106.2846336 -0.458826E-06  0.137E-03    2.56       8.7  T
   6   -106.2846336 -0.155540E-07  0.754E-04    2.56      15.7  T
   7   -106.2846336 -0.150955E-07  0.188E-04    2.56      63.1  T
     SCC iter.                  ...        0 min,  0.044 sec
     gradient                   ...        0 min,  0.012 sec
 * total energy  :  -104.8328228 Eh     change       -0.2166253E-03 Eh
   gradient norm :     0.0122611 Eh/α   predicted     0.0000000E+00 (-100.00%)
   displ. norm   :     0.0930014 α      lambda       -0.4425017E-03
   maximum displ.:     0.0642935 α      in ANC's #10, #13, #114, ...

........................................................................
.............................. CYCLE   22 ..............................
........................................................................

 iter      E             dE          RMSdq      gap      omega  full diag
   1   -106.2898282 -0.106290E+03  0.353E-02    2.57       0.0  T
   2   -106.2898305 -0.233437E-05  0.208E-02    2.58       1.0  T
   3   -106.2898296  0.880558E-06  0.481E-03    2.58       2.5  T
   4   -106.2898307 -0.108520E-05  0.151E-03    2.58       7.9  T
   5   -106.2898308 -0.134509E-06  0.624E-04    2.58      19.0  T
   6   -106.2898308 -0.614484E-08  0.351E-04    2.58      33.8  T
     SCC iter.                  ...        0 min,  0.025 sec
     gradient                   ...        0 min,  0.012 sec
 * total energy  :  -104.8330996 Eh     change       -0.2768443E-03 Eh
   gradient norm :     0.0034237 Eh/α   predicted    -0.2231648E-03 ( -19.39%)
   displ. norm   :     0.1356078 α      lambda       -0.1947447E-03
   maximum displ.:     0.1043424 α      in ANC's #10, #13, #6, ...

........................................................................
.............................. CYCLE   23 ..............................
........................................................................

 iter      E             dE          RMSdq      gap      omega  full diag
   1   -106.2927605 -0.106293E+03  0.367E-02    2.58       0.0  T
   2   -106.2927615 -0.996200E-06  0.216E-02    2.58       1.0  T
   3   -106.2927611  0.487064E-06  0.321E-03    2.58       3.7  T
   4   -106.2927617 -0.621248E-06  0.102E-03    2.58      11.6  T
   5   -106.2927617 -0.536008E-07  0.473E-04    2.58      25.1  T
   6   -106.2927617 -0.182550E-08  0.265E-04    2.58      44.9  T
     SCC iter.                  ...        0 min,  0.025 sec
     gradient                   ...        0 min,  0.012 sec
 * total energy  :  -104.8332232 Eh     change       -0.1235376E-03 Eh
   gradient norm :     0.0035792 Eh/α   predicted    -0.9916564E-04 ( -19.73%)
   displ. norm   :     0.1624121 α      lambda       -0.1474388E-03
   maximum displ.:     0.1194508 α      in ANC's #10, #13, #6, ...

........................................................................
.............................. CYCLE   24 ..............................
........................................................................

 iter      E             dE          RMSdq      gap      omega  full diag
   1   -106.2930809 -0.106293E+03  0.378E-02    2.58       0.0  T
   2   -106.2930812 -0.296390E-06  0.223E-02    2.58       1.0  T
   3   -106.2930809  0.272520E-06  0.239E-03    2.58       5.0  T
   4   -106.2930813 -0.383880E-06  0.770E-04    2.58      15.4  T
   5   -106.2930813 -0.121331E-07  0.435E-04    2.58      27.3  T
     SCC iter.                  ...        0 min,  0.021 sec
     gradient                   ...        0 min,  0.012 sec
 * total energy  :  -104.8333566 Eh     change       -0.1333928E-03 Eh
   gradient norm :     0.0048584 Eh/α   predicted    -0.7566430E-04 ( -43.28%)
   displ. norm   :     0.3107997 α      lambda       -0.2804031E-03
   maximum displ.:     0.2107364 α      in ANC's #10, #13, #6, ...

........................................................................
.............................. CYCLE   25 ..............................
........................................................................

 iter      E             dE          RMSdq      gap      omega  full diag
   1   -106.2911951 -0.106291E+03  0.698E-02    2.58       0.0  T
   2   -106.2911959 -0.831066E-06  0.412E-02    2.58       1.0  T
   3   -106.2911955  0.477317E-06  0.362E-03    2.58       3.3  T
   4   -106.2911963 -0.872258E-06  0.128E-03    2.58       9.3  T
   5   -106.2911963 -0.430323E-08  0.795E-04    2.58      14.9  T
   6   -106.2911964 -0.176576E-07  0.256E-04    2.58      46.4  T
     SCC iter.                  ...        0 min,  0.026 sec
     gradient                   ...        0 min,  0.009 sec
 * total energy  :  -104.8336076 Eh     change       -0.2510185E-03 Eh
   gradient norm :     0.0043641 Eh/α   predicted    -0.1537449E-03 ( -38.75%)
   displ. norm   :     0.4696890 α      lambda       -0.3608340E-03
   maximum displ.:     0.3104995 α      in ANC's #10, #13, #6, ...

........................................................................
.............................. CYCLE   26 ..............................
........................................................................

 iter      E             dE          RMSdq      gap      omega  full diag
   1   -106.2876887 -0.106288E+03  0.105E-01    2.58       0.0  T
   2   -106.2876906 -0.189795E-05  0.622E-02    2.58       1.0  T
   3   -106.2876899  0.769156E-06  0.496E-03    2.58       2.4  T
   4   -106.2876915 -0.165218E-05  0.182E-03    2.58       6.5  T
   5   -106.2876915 -0.117666E-07  0.986E-04    2.58      12.0  T
   6   -106.2876915 -0.204683E-07  0.398E-04    2.58      29.8  T
     SCC iter.                  ...        0 min,  0.027 sec
     gradient                   ...        0 min,  0.009 sec
 * total energy  :  -104.8339057 Eh     change       -0.2981489E-03 Eh
   gradient norm :     0.0046715 Eh/α   predicted    -0.2202188E-03 ( -26.14%)
   displ. norm   :     0.4799564 α      lambda       -0.2987192E-03
   maximum displ.:     0.3142045 α      in ANC's #10, #13, #6, ...

........................................................................
.............................. CYCLE   27 ..............................
........................................................................

 iter      E             dE          RMSdq      gap      omega  full diag
   1   -106.2849055 -0.106285E+03  0.108E-01    2.58       0.0  T
   2   -106.2849074 -0.183505E-05  0.638E-02    2.57       1.0  T
   3   -106.2849066  0.719582E-06  0.486E-03    2.57       2.4  T
   4   -106.2849082 -0.159499E-05  0.184E-03    2.57       6.5  T
   5   -106.2849083 -0.108466E-07  0.103E-03    2.57      11.5  T
   6   -106.2849083 -0.269845E-07  0.372E-04    2.57      31.9  T
   7   -106.2849083 -0.552036E-08  0.122E-04    2.57      97.0  T
     SCC iter.                  ...        0 min,  0.041 sec
     gradient                   ...        0 min,  0.012 sec
 * total energy  :  -104.8341453 Eh     change       -0.2395655E-03 Eh
   gradient norm :     0.0063953 Eh/α   predicted    -0.1837662E-03 ( -23.29%)
   displ. norm   :     0.5245005 α      lambda       -0.3269388E-03
   maximum displ.:     0.3424988 α      in ANC's #10, #6, #11, ...

........................................................................
.............................. CYCLE   28 ..............................
........................................................................

 iter      E             dE          RMSdq      gap      omega  full diag
   1   -106.2838586 -0.106284E+03  0.119E-01    2.58       0.0  T
   2   -106.2838606 -0.197847E-05  0.701E-02    2.57       1.0  T
   3   -106.2838595  0.110197E-05  0.552E-03    2.57       2.2  T
   4   -106.2838616 -0.207742E-05  0.207E-03    2.57       5.7  T
   5   -106.2838616 -0.244411E-07  0.124E-03    2.57       9.5  T
   6   -106.2838617 -0.423856E-07  0.362E-04    2.57      32.8  T
   7   -106.2838617 -0.472566E-08  0.121E-04    2.57      97.9  T
     SCC iter.                  ...        0 min,  0.060 sec
     gradient                   ...        0 min,  0.012 sec
 * total energy  :  -104.8344093 Eh     change       -0.2640487E-03 Eh
   gradient norm :     0.0075336 Eh/α   predicted    -0.2084426E-03 ( -21.06%)
   displ. norm   :     0.4983856 α      lambda       -0.4248685E-03
   maximum displ.:     0.3154094 α      in ANC's #10, #6, #11, ...

........................................................................
.............................. CYCLE   29 ..............................
........................................................................

 iter      E             dE          RMSdq      gap      omega  full diag
   1   -106.2879838 -0.106288E+03  0.114E-01    2.58       0.0  T
   2   -106.2879855 -0.169834E-05  0.669E-02    2.58       1.0  T
   3   -106.2879831  0.239070E-05  0.704E-03    2.58       1.7  T
   4   -106.2879864 -0.333095E-05  0.202E-03    2.58       5.9  T
   5   -106.2879865 -0.339602E-07  0.118E-03    2.58      10.0  T
   6   -106.2879865 -0.332046E-07  0.321E-04    2.58      36.9  T
   7   -106.2879865 -0.365623E-08  0.108E-04    2.58     109.4  T
     SCC iter.                  ...        0 min,  0.032 sec
     gradient                   ...        0 min,  0.014 sec
 * total energy  :  -104.8347556 Eh     change       -0.3462492E-03 Eh
   gradient norm :     0.0058983 Eh/α   predicted    -0.2652012E-03 ( -23.41%)
   displ. norm   :     0.6289424 α      lambda       -0.4412719E-03
   maximum displ.:     0.3924677 α      in ANC's #10, #11, #6, ...

........................................................................
.............................. CYCLE   30 ..............................
........................................................................

 iter      E             dE          RMSdq      gap      omega  full diag
   1   -106.2881116 -0.106288E+03  0.142E-01    2.59       0.0  T
   2   -106.2881145 -0.288917E-05  0.836E-02    2.59       1.0  T
   3   -106.2881129  0.159503E-05  0.671E-03    2.59       1.8  T
   4   -106.2881157 -0.282082E-05  0.265E-03    2.59       4.5  T
   5   -106.2881159 -0.125005E-06  0.141E-03    2.59       8.4  T
   6   -106.2881159 -0.280487E-07  0.532E-04    2.59      22.3  T
   7   -106.2881159 -0.128188E-07  0.133E-04    2.59      89.0  T
     SCC iter.                  ...        0 min,  0.030 sec
     gradient                   ...        0 min,  0.014 sec
 * total energy  :  -104.8351267 Eh     change       -0.3711427E-03 Eh
   gradient norm :     0.0057233 Eh/α   predicted    -0.3079169E-03 ( -17.04%)
   displ. norm   :     0.5864137 α      lambda       -0.5097259E-03
   maximum displ.:     0.3351231 α      in ANC's #10, #12, #11, ...

........................................................................
.............................. CYCLE   31 ..............................
........................................................................

 iter      E             dE          RMSdq      gap      omega  full diag
   1   -106.2968015 -0.106297E+03  0.129E-01    2.61       0.0  T
   2   -106.2968039 -0.240820E-05  0.762E-02    2.61       1.0  T
   3   -106.2968016  0.227347E-05  0.717E-03    2.61       1.7  T
   4   -106.2968051 -0.341499E-05  0.236E-03    2.61       5.0  T
   5   -106.2968051 -0.876249E-07  0.141E-03    2.61       8.4  T
   6   -106.2968052 -0.326862E-07  0.409E-04    2.61      29.1  T
   7   -106.2968052 -0.688598E-08  0.153E-04    2.61      77.6  T
     SCC iter.                  ...        0 min,  0.030 sec
     gradient                   ...        0 min,  0.011 sec
 * total energy  :  -104.8354692 Eh     change       -0.3424763E-03 Eh
   gradient norm :     0.0056972 Eh/α   predicted    -0.3425081E-03 (   0.01%)
   displ. norm   :     0.8297917 α      lambda       -0.5068753E-03
   maximum displ.:     0.5301993 α      in ANC's #10, #11, #6, ...

........................................................................
.............................. CYCLE   32 ..............................
........................................................................

 iter      E             dE          RMSdq      gap      omega  full diag
   1   -106.2824709 -0.106282E+03  0.190E-01    2.60       0.0  T
   2   -106.2824779 -0.699778E-05  0.112E-01    2.60       1.0  T
   3   -106.2824745  0.337162E-05  0.100E-02    2.60       1.2  T
   4   -106.2824803 -0.579385E-05  0.369E-03    2.60       3.2  T
   5   -106.2824805 -0.252174E-06  0.217E-03    2.60       5.5  T
   6   -106.2824806 -0.889798E-07  0.768E-04    2.60      15.5  T
   7   -106.2824807 -0.126045E-07  0.202E-04    2.60      58.7  T
     SCC iter.                  ...        0 min,  0.030 sec
     gradient                   ...        0 min,  0.011 sec
 * total energy  :  -104.8357403 Eh     change       -0.2710910E-03 Eh
   gradient norm :     0.0105025 Eh/α   predicted    -0.4279458E-03 (  57.86%)
   displ. norm   :     0.2043177 α      lambda       -0.2766165E-03
   maximum displ.:     0.1020816 α      in ANC's #10, #12, #5, ...

........................................................................
.............................. CYCLE   33 ..............................
........................................................................

 iter      E             dE          RMSdq      gap      omega  full diag
   1   -106.2876480 -0.106288E+03  0.449E-02    2.60       0.0  T
   2   -106.2876490 -0.101741E-05  0.264E-02    2.60       1.0  T
   3   -106.2876484  0.596505E-06  0.375E-03    2.60       3.2  T
   4   -106.2876492 -0.793229E-06  0.121E-03    2.60       9.8  T
   5   -106.2876492 -0.518780E-07  0.606E-04    2.60      19.6  T
   6   -106.2876492 -0.676792E-08  0.278E-04    2.60      42.8  T
     SCC iter.                  ...        0 min,  0.026 sec
     gradient                   ...        0 min,  0.014 sec
 * total energy  :  -104.8359495 Eh     change       -0.2091631E-03 Eh
   gradient norm :     0.0056654 Eh/α   predicted    -0.1440841E-03 ( -31.11%)
   displ. norm   :     0.5059883 α      lambda       -0.3184748E-03
   maximum displ.:     0.2769567 α      in ANC's #10, #12, #5, ...

........................................................................
.............................. CYCLE   34 ..............................
........................................................................

 iter      E             dE          RMSdq      gap      omega  full diag
   1   -106.2909076 -0.106291E+03  0.109E-01    2.61       0.0  T
   2   -106.2909091 -0.155112E-05  0.643E-02    2.61       1.0  T
   3   -106.2909078  0.129110E-05  0.582E-03    2.61       2.0  T
   4   -106.2909098 -0.200515E-05  0.198E-03    2.61       6.0  T
   5   -106.2909099 -0.676587E-07  0.104E-03    2.61      11.4  T
   6   -106.2909099 -0.109411E-07  0.292E-04    2.61      40.7  T
   7   -106.2909099 -0.257187E-08  0.105E-04    2.61     113.1  T
     SCC iter.                  ...        0 min,  0.030 sec
     gradient                   ...        0 min,  0.010 sec
 * total energy  :  -104.8361875 Eh     change       -0.2380283E-03 Eh
   gradient norm :     0.0035839 Eh/α   predicted    -0.2000084E-03 ( -15.97%)
   displ. norm   :     0.5789768 α      lambda       -0.2466226E-03
   maximum displ.:     0.3268636 α      in ANC's #10, #12, #5, ...

........................................................................
.............................. CYCLE   35 ..............................
........................................................................

 iter      E             dE          RMSdq      gap      omega  full diag
   1   -106.2887861 -0.106289E+03  0.129E-01    2.61       0.0  T
   2   -106.2887885 -0.230634E-05  0.762E-02    2.61       1.0  T
   3   -106.2887888 -0.388461E-06  0.368E-03    2.61       3.2  T
   4   -106.2887894 -0.514847E-06  0.200E-03    2.61       5.9  T
   5   -106.2887894 -0.467966E-07  0.106E-03    2.61      11.2  T
   6   -106.2887894 -0.179802E-07  0.441E-04    2.61      26.9  T
   7   -106.2887894 -0.878261E-08  0.129E-04    2.61      92.2  T
     SCC iter.                  ...        0 min,  0.030 sec
     gradient                   ...        0 min,  0.011 sec
 * total energy  :  -104.8363632 Eh     change       -0.1756673E-03 Eh
   gradient norm :     0.0062461 Eh/α   predicted    -0.1646473E-03 (  -6.27%)
   displ. norm   :     0.4124068 α      lambda       -0.2866997E-03
   maximum displ.:     0.1871702 α      in ANC's #10, #12, #28, ...

........................................................................
.............................. CYCLE   36 ..............................
........................................................................

 iter      E             dE          RMSdq      gap      omega  full diag
   1   -106.2984912 -0.106298E+03  0.917E-02    2.62       0.0  T
   2   -106.2984932 -0.200327E-05  0.541E-02    2.62       1.0  T
   3   -106.2984899  0.334740E-05  0.777E-03    2.62       1.5  T
   4   -106.2984939 -0.404697E-05  0.210E-03    2.62       5.6  T
   5   -106.2984941 -0.139370E-06  0.103E-03    2.62      11.5  T
   6   -106.2984941 -0.567918E-08  0.451E-04    2.62      26.3  T
   7   -106.2984941 -0.639774E-08  0.144E-04    2.62      82.2  T
     SCC iter.                  ...        0 min,  0.031 sec
     gradient                   ...        0 min,  0.010 sec
 * total energy  :  -104.8365085 Eh     change       -0.1453372E-03 Eh
   gradient norm :     0.0062018 Eh/α   predicted    -0.1677322E-03 (  15.41%)
   displ. norm   :     0.5731499 α      lambda       -0.2454073E-03
   maximum displ.:     0.3273134 α      in ANC's #10, #11, #5, ...

........................................................................
.............................. CYCLE   37 ..............................
........................................................................

 iter      E             dE          RMSdq      gap      omega  full diag
   1   -106.2888576 -0.106289E+03  0.129E-01    2.62       0.0  T
   2   -106.2888617 -0.413917E-05  0.762E-02    2.62       1.0  T
   3   -106.2888608  0.895566E-06  0.617E-03    2.61       1.9  T
   4   -106.2888627 -0.188085E-05  0.251E-03    2.61       4.7  T
   5   -106.2888628 -0.158006E-06  0.144E-03    2.61       8.3  T
   6   -106.2888629 -0.249804E-07  0.647E-04    2.61      18.4  T
   7   -106.2888629 -0.147072E-07  0.147E-04    2.61      80.8  T
     SCC iter.                  ...        0 min,  0.032 sec
     gradient                   ...        0 min,  0.009 sec
 * total energy  :  -104.8366151 Eh     change       -0.1065997E-03 Eh
   gradient norm :     0.0087254 Eh/α   predicted    -0.1630132E-03 (  52.92%)
   displ. norm   :     0.1398427 α      lambda       -0.2472592E-03
   maximum displ.:     0.0459788 α      in ANC's #15, #5, #2, ...

........................................................................
.............................. CYCLE   38 ..............................
........................................................................

 iter      E             dE          RMSdq      gap      omega  full diag
   1   -106.2909946 -0.106291E+03  0.356E-02    2.62       0.0  T
   2   -106.2909961 -0.154403E-05  0.209E-02    2.62       1.0  T
   3   -106.2909945  0.166512E-05  0.598E-03    2.62       2.0  T
   4   -106.2909964 -0.189654E-05  0.166E-03    2.62       7.2  T
   5   -106.2909965 -0.134226E-06  0.604E-04    2.62      19.6  T
   6   -106.2909965 -0.538671E-08  0.345E-04    2.62      34.4  T
     SCC iter.                  ...        0 min,  0.027 sec
     gradient                   ...        0 min,  0.014 sec
 * total energy  :  -104.8367500 Eh     change       -0.1348762E-03 Eh
   gradient norm :     0.0063437 Eh/α   predicted    -0.1260495E-03 (  -6.54%)
   displ. norm   :     0.2320928 α      lambda       -0.2758286E-03
   maximum displ.:     0.0801638 α      in ANC's #15, #28, #24, ...

........................................................................
.............................. CYCLE   39 ..............................
........................................................................

 iter      E             dE          RMSdq      gap      omega  full diag
   1   -106.2950578 -0.106295E+03  0.495E-02    2.63       0.0  T
   2   -106.2950596 -0.179264E-05  0.293E-02    2.63       1.0  T
   3   -106.2950576  0.195443E-05  0.628E-03    2.62       1.9  T
   4   -106.2950598 -0.217023E-05  0.204E-03    2.63       5.8  T
   5   -106.2950600 -0.205903E-06  0.709E-04    2.63      16.7  T
   6   -106.2950600 -0.193819E-08  0.317E-04    2.63      37.5  T
     SCC iter.                  ...        0 min,  0.029 sec
     gradient                   ...        0 min,  0.011 sec
 * total energy  :  -104.8369155 Eh     change       -0.1654977E-03 Eh
   gradient norm :     0.0073268 Eh/α   predicted    -0.1453446E-03 ( -12.18%)
   displ. norm   :     0.4227129 α      lambda       -0.3212574E-03
   maximum displ.:     0.1494014 α      in ANC's #28, #10, #2, ...

........................................................................
.............................. CYCLE   40 ..............................
........................................................................

 iter      E             dE          RMSdq      gap      omega  full diag
   1   -106.2977319 -0.106298E+03  0.873E-02    2.63       0.0  T
   2   -106.2977378 -0.595708E-05  0.517E-02    2.64       1.0  T
   3   -106.2977296  0.819661E-05  0.124E-02    2.63       1.0  T
   4   -106.2977386 -0.894264E-05  0.358E-03    2.64       3.3  T
   5   -106.2977392 -0.654772E-06  0.112E-03    2.64      10.6  T
   6   -106.2977392 -0.903594E-08  0.561E-04    2.64      21.1  T
   7   -106.2977393 -0.464097E-08  0.177E-04    2.64      67.2  T
     SCC iter.                  ...        0 min,  0.031 sec
     gradient                   ...        0 min,  0.011 sec
 * total energy  :  -104.8370812 Eh     change       -0.1657176E-03 Eh
   gradient norm :     0.0090277 Eh/α   predicted    -0.1893314E-03 (  14.25%)
   displ. norm   :     0.3754112 α      lambda       -0.2581916E-03
   maximum displ.:     0.1593927 α      in ANC's #10, #5, #2, ...

........................................................................
.............................. CYCLE   41 ..............................
........................................................................

 iter      E             dE          RMSdq      gap      omega  full diag
   1   -106.2921281 -0.106292E+03  0.873E-02    2.63       0.0  T
   2   -106.2921304 -0.232750E-05  0.515E-02    2.64       1.0  T
   3   -106.2921265  0.394147E-05  0.873E-03    2.64       1.4  T
   4   -106.2921312 -0.468202E-05  0.250E-03    2.64       4.7  T
   5   -106.2921314 -0.219649E-06  0.111E-03    2.64      10.7  T
   6   -106.2921314 -0.939946E-08  0.428E-04    2.64      27.7  T
   7   -106.2921314 -0.151238E-08  0.138E-04    2.64      86.3  T
     SCC iter.                  ...        0 min,  0.030 sec
     gradient                   ...        0 min,  0.008 sec
 * total energy  :  -104.8372116 Eh     change       -0.1303646E-03 Eh
   gradient norm :     0.0076299 Eh/α   predicted    -0.1472931E-03 (  12.99%)
   displ. norm   :     0.2333738 α      lambda       -0.2289691E-03
   maximum displ.:     0.0857482 α      in ANC's #28, #5, #2, ...

........................................................................
.............................. CYCLE   42 ..............................
........................................................................

 iter      E             dE          RMSdq      gap      omega  full diag
   1   -106.2928102 -0.106293E+03  0.454E-02    2.65       0.0  T
   2   -106.2928115 -0.133529E-05  0.269E-02    2.65       1.0  T
   3   -106.2928086  0.292405E-05  0.747E-03    2.65       1.6  T
   4   -106.2928119 -0.336341E-05  0.170E-03    2.65       7.0  T
   5   -106.2928120 -0.110823E-06  0.774E-04    2.65      15.3  T
   6   -106.2928120 -0.576944E-08  0.355E-04    2.65      33.5  T
     SCC iter.                  ...        0 min,  0.028 sec
     gradient                   ...        0 min,  0.010 sec
 * total energy  :  -104.8373353 Eh     change       -0.1237297E-03 Eh
   gradient norm :     0.0075333 Eh/α   predicted    -0.1207225E-03 (  -2.43%)
   displ. norm   :     0.2734141 α      lambda       -0.3056049E-03
   maximum displ.:     0.1339680 α      in ANC's #12, #10, #6, ...
 * RMSD in coord.:     0.8732033 α      energy gain  -0.4729122E-02 Eh

generating ANC from exact Hessian ...
Using Lindh-Hessian (1995)
 Shifting diagonal of input Hessian by   9.967583522231505E-003
 Lowest  eigenvalues of input Hessian
    0.000000    0.000000    0.000000    0.000000    0.000000    0.000000
    0.010000    0.010077    0.010086    0.010119    0.010222    0.010398
    0.010545    0.010719    0.011087    0.011189    0.011453    0.011609
 Highest eigenvalues
    2.008108    2.019091    2.115851    2.129873    2.373295    2.396672
 

........................................................................
.............................. CYCLE   43 ..............................
........................................................................

 iter      E             dE          RMSdq      gap      omega  full diag
   1   -106.3050866 -0.106305E+03  0.579E-02    2.67       0.0  T
   2   -106.3050965 -0.985028E-05  0.336E-02    2.67       1.0  T
   3   -106.3050919  0.454958E-05  0.116E-02    2.67       1.0  T
   4   -106.3050968 -0.487171E-05  0.481E-03    2.67       2.5  T
   5   -106.3050980 -0.120505E-05  0.122E-03    2.67       9.7  T
   6   -106.3050980 -0.991794E-08  0.672E-04    2.67      17.7  T
   7   -106.3050980 -0.464850E-08  0.166E-04    2.67      71.4  T
     SCC iter.                  ...        0 min,  0.032 sec
     gradient                   ...        0 min,  0.010 sec
 * total energy  :  -104.8371962 Eh     change        0.1390565E-03 Eh
   gradient norm :     0.0145315 Eh/α   predicted     0.0000000E+00 (-100.00%)
   displ. norm   :     0.0757228 α      lambda       -0.4665819E-03
   maximum displ.:     0.0262298 α      in ANC's #29, #11, #15, ...

........................................................................
.............................. CYCLE   44 ..............................
........................................................................

 iter      E             dE          RMSdq      gap      omega  full diag
   1   -106.2973497 -0.106297E+03  0.281E-02    2.66       0.0  T
   2   -106.2973537 -0.396868E-05  0.162E-02    2.66       1.0  T
   3   -106.2973524  0.128440E-05  0.704E-03    2.65       1.7  T
   4   -106.2973538 -0.135146E-05  0.303E-03    2.65       3.9  T
   5   -106.2973543 -0.481367E-06  0.667E-04    2.66      17.8  T
   6   -106.2973543 -0.283842E-08  0.382E-04    2.66      31.0  T
     SCC iter.                  ...        0 min,  0.034 sec
     gradient                   ...        0 min,  0.010 sec
 * total energy  :  -104.8374823 Eh     change       -0.2860478E-03 Eh
   gradient norm :     0.0036732 Eh/α   predicted    -0.2346293E-03 ( -17.98%)
   displ. norm   :     0.0898902 α      lambda       -0.1335225E-03
   maximum displ.:     0.0347025 α      in ANC's #11, #29, #12, ...

........................................................................
.............................. CYCLE   45 ..............................
........................................................................

 iter      E             dE          RMSdq      gap      omega  full diag
   1   -106.2939336 -0.106294E+03  0.194E-02    2.65       0.0  T
   2   -106.2939346 -0.978408E-06  0.114E-02    2.65       1.0  T
   3   -106.2939341  0.479235E-06  0.371E-03    2.65       3.2  T
   4   -106.2939346 -0.483815E-06  0.156E-03    2.65       7.6  T
   5   -106.2939347 -0.131676E-06  0.364E-04    2.65      32.6  T
   6   -106.2939347 -0.630962E-09  0.205E-04    2.65      57.8  T
     SCC iter.                  ...        0 min,  0.034 sec
     gradient                   ...        0 min,  0.010 sec
 * total energy  :  -104.8375636 Eh     change       -0.8128255E-04 Eh
   gradient norm :     0.0030520 Eh/α   predicted    -0.6735110E-04 ( -17.14%)
   displ. norm   :     0.1270211 α      lambda       -0.1000964E-03
   maximum displ.:     0.0518542 α      in ANC's #29, #11, #15, ...

........................................................................
.............................. CYCLE   46 ..............................
........................................................................

 iter      E             dE          RMSdq      gap      omega  full diag
   1   -106.2925454 -0.106293E+03  0.206E-02    2.65       0.0  T
   2   -106.2925458 -0.407162E-06  0.122E-02    2.65       1.0  T
   3   -106.2925457  0.529870E-07  0.156E-03    2.64       7.6  T
   4   -106.2925458 -0.777192E-07  0.746E-04    2.64      15.9  T
   5   -106.2925458 -0.262894E-07  0.303E-04    2.64      39.1  T
     SCC iter.                  ...        0 min,  0.027 sec
     gradient                   ...        0 min,  0.011 sec
 * total energy  :  -104.8376413 Eh     change       -0.7774272E-04 Eh
   gradient norm :     0.0052341 Eh/α   predicted    -0.5085780E-04 ( -34.58%)
   displ. norm   :     0.2658766 α      lambda       -0.1854843E-03
   maximum displ.:     0.1082276 α      in ANC's #11, #29, #12, ...

........................................................................
.............................. CYCLE   47 ..............................
........................................................................

 iter      E             dE          RMSdq      gap      omega  full diag
   1   -106.2918335 -0.106292E+03  0.406E-02    2.64       0.0  T
   2   -106.2918344 -0.837143E-06  0.240E-02    2.64       1.0  T
   3   -106.2918342  0.159861E-06  0.257E-03    2.64       4.6  T
   4   -106.2918345 -0.266706E-06  0.122E-03    2.64       9.7  T
   5   -106.2918345 -0.611187E-07  0.584E-04    2.64      20.3  T
   6   -106.2918345 -0.403558E-08  0.264E-04    2.64      44.9  T
     SCC iter.                  ...        0 min,  0.031 sec
     gradient                   ...        0 min,  0.011 sec
 * total energy  :  -104.8377699 Eh     change       -0.1285624E-03 Eh
   gradient norm :     0.0078125 Eh/α   predicted    -0.9931757E-04 ( -22.75%)
   displ. norm   :     0.2121162 α      lambda       -0.1648209E-03
   maximum displ.:     0.0910043 α      in ANC's #11, #29, #1, ...

........................................................................
.............................. CYCLE   48 ..............................
........................................................................

 iter      E             dE          RMSdq      gap      omega  full diag
   1   -106.2934778 -0.106293E+03  0.330E-02    2.65       0.0  T
   2   -106.2934780 -0.240872E-06  0.196E-02    2.64       1.0  T
   3   -106.2934777  0.366452E-06  0.284E-03    2.64       4.2  T
   4   -106.2934782 -0.478408E-06  0.846E-04    2.64      14.0  T
   5   -106.2934782 -0.150012E-07  0.429E-04    2.64      27.7  T
     SCC iter.                  ...        0 min,  0.025 sec
     gradient                   ...        0 min,  0.010 sec
 * total energy  :  -104.8378971 Eh     change       -0.1272739E-03 Eh
   gradient norm :     0.0064363 Eh/α   predicted    -0.8614470E-04 ( -32.32%)
   displ. norm   :     0.2312875 α      lambda       -0.1888109E-03
   maximum displ.:     0.1001917 α      in ANC's #11, #29, #1, ...

........................................................................
.............................. CYCLE   49 ..............................
........................................................................

 iter      E             dE          RMSdq      gap      omega  full diag
   1   -106.2963872 -0.106296E+03  0.369E-02    2.65       0.0  T
   2   -106.2963879 -0.718884E-06  0.217E-02    2.65       1.0  T
   3   -106.2963877  0.224976E-06  0.275E-03    2.65       4.3  T
   4   -106.2963880 -0.311079E-06  0.133E-03    2.65       9.0  T
   5   -106.2963881 -0.743875E-07  0.522E-04    2.65      22.7  T
   6   -106.2963881 -0.729969E-09  0.255E-04    2.65      46.6  T
     SCC iter.                  ...        0 min,  0.032 sec
     gradient                   ...        0 min,  0.009 sec
 * total energy  :  -104.8380267 Eh     change       -0.1295232E-03 Eh
   gradient norm :     0.0025191 Eh/α   predicted    -0.9945585E-04 ( -23.21%)
   displ. norm   :     0.3518791 α      lambda       -0.1335984E-03
   maximum displ.:     0.1459236 α      in ANC's #29, #11, #1, ...

........................................................................
.............................. CYCLE   50 ..............................
........................................................................

 iter      E             dE          RMSdq      gap      omega  full diag
   1   -106.2945585 -0.106295E+03  0.527E-02    2.65       0.0  T
   2   -106.2945603 -0.177080E-05  0.311E-02    2.65       1.0  T
   3   -106.2945603 -0.229633E-07  0.285E-03    2.65       4.2  T
   4   -106.2945605 -0.215110E-06  0.134E-03    2.65       8.9  T
   5   -106.2945606 -0.551504E-07  0.762E-04    2.65      15.6  T
   6   -106.2945606 -0.661227E-08  0.323E-04    2.65      36.8  T
     SCC iter.                  ...        0 min,  0.048 sec
     gradient                   ...        0 min,  0.015 sec
 * total energy  :  -104.8380806 Eh     change       -0.5392263E-04 Eh
   gradient norm :     0.0060703 Eh/α   predicted    -0.7508901E-04 (  39.25%)
   displ. norm   :     0.0797349 α      lambda       -0.1205122E-03
   maximum displ.:     0.0361507 α      in ANC's #1, #15, #2, ...

........................................................................
.............................. CYCLE   51 ..............................
........................................................................

 iter      E             dE          RMSdq      gap      omega  full diag
   1   -106.2969737 -0.106297E+03  0.162E-02    2.65       0.0  T
   2   -106.2969749 -0.126561E-05  0.906E-03    2.66       1.3  T
   3   -106.2969749  0.627963E-08  0.279E-03    2.66       4.3  T
   4   -106.2969750 -0.341533E-07  0.103E-03    2.66      11.5  T
   5   -106.2969750 -0.536447E-07  0.446E-04    2.66      26.6  T
   6   -106.2969750 -0.388854E-08  0.177E-04    2.66      67.2  T
     SCC iter.                  ...        0 min,  0.027 sec
     gradient                   ...        0 min,  0.010 sec
 * total energy  :  -104.8381510 Eh     change       -0.7043041E-04 Eh
   gradient norm :     0.0021769 Eh/α   predicted    -0.6063929E-04 ( -13.90%)
   displ. norm   :     0.1943871 α      lambda       -0.6472658E-04
   maximum displ.:     0.0780958 α      in ANC's #1, #2, #29, ...

........................................................................
.............................. CYCLE   52 ..............................
........................................................................

 iter      E             dE          RMSdq      gap      omega  full diag
   1   -106.2966743 -0.106297E+03  0.277E-02    2.66       0.0  T
   2   -106.2966745 -0.141507E-06  0.165E-02    2.66       1.0  T
   3   -106.2966744  0.737884E-07  0.153E-03    2.66       7.7  T
   4   -106.2966745 -0.132788E-06  0.606E-04    2.66      19.6  T
   5   -106.2966745 -0.701880E-08  0.326E-04    2.66      36.4  T
     SCC iter.                  ...        0 min,  0.024 sec
     gradient                   ...        0 min,  0.011 sec
 * total energy  :  -104.8381984 Eh     change       -0.4737209E-04 Eh
   gradient norm :     0.0023409 Eh/α   predicted    -0.3358689E-04 ( -29.10%)
   displ. norm   :     0.2870302 α      lambda       -0.7429250E-04
   maximum displ.:     0.1196237 α      in ANC's #1, #2, #29, ...

........................................................................
.............................. CYCLE   53 ..............................
........................................................................

 iter      E             dE          RMSdq      gap      omega  full diag
   1   -106.2956062 -0.106296E+03  0.382E-02    2.66       0.0  T
   2   -106.2956067 -0.455986E-06  0.226E-02    2.66       1.0  T
   3   -106.2956066  0.149071E-07  0.167E-03    2.66       7.1  T
   4   -106.2956068 -0.117755E-06  0.870E-04    2.66      13.6  T
   5   -106.2956068 -0.268975E-07  0.460E-04    2.66      25.8  T
     SCC iter.                  ...        0 min,  0.023 sec
     gradient                   ...        0 min,  0.012 sec
 * total energy  :  -104.8382428 Eh     change       -0.4440724E-04 Eh
   gradient norm :     0.0028619 Eh/α   predicted    -0.4020778E-04 (  -9.46%)
   displ. norm   :     0.1318397 α      lambda       -0.5705603E-04
   maximum displ.:     0.0590032 α      in ANC's #15, #1, #2, ...

........................................................................
.............................. CYCLE   54 ..............................
........................................................................

 iter      E             dE          RMSdq      gap      omega  full diag
   1   -106.2966368 -0.106297E+03  0.180E-02    2.66       0.0  T
   2   -106.2966372 -0.371619E-06  0.106E-02    2.66       1.1  T
   3   -106.2966372  0.265174E-07  0.147E-03    2.66       8.1  T
   4   -106.2966373 -0.610338E-07  0.670E-04    2.66      17.7  T
   5   -106.2966373 -0.174437E-07  0.305E-04    2.66      38.9  T
     SCC iter.                  ...        0 min,  0.026 sec
     gradient                   ...        0 min,  0.009 sec
 * total energy  :  -104.8382757 Eh     change       -0.3287411E-04 Eh
   gradient norm :     0.0018014 Eh/α   predicted    -0.2902401E-04 ( -11.71%)
   displ. norm   :     0.1765508 α      lambda       -0.2117951E-04
   maximum displ.:     0.0834001 α      in ANC's #1, #2, #29, ...

........................................................................
.............................. CYCLE   55 ..............................
........................................................................

 iter      E             dE          RMSdq      gap      omega  full diag
   1   -106.2964200 -0.106296E+03  0.214E-02    2.66       0.0  T
   2   -106.2964202 -0.246169E-06  0.127E-02    2.66       1.0  T
   3   -106.2964201  0.189437E-06  0.201E-03    2.66       5.9  T
   4   -106.2964203 -0.235544E-06  0.649E-04    2.66      18.3  T
   5   -106.2964203 -0.154470E-07  0.307E-04    2.66      38.7  T
     SCC iter.                  ...        0 min,  0.022 sec
     gradient                   ...        0 min,  0.020 sec
 * total energy  :  -104.8382917 Eh     change       -0.1606293E-04 Eh
   gradient norm :     0.0014851 Eh/α   predicted    -0.1073662E-04 ( -33.16%)
   displ. norm   :     0.0680863 α      lambda       -0.1520361E-04
   maximum displ.:     0.0273754 α      in ANC's #11, #12, #2, ...

........................................................................
.............................. CYCLE   56 ..............................
........................................................................

 iter      E             dE          RMSdq      gap      omega  full diag
   1   -106.2973403 -0.106297E+03  0.121E-02    2.66       0.0  T
   2   -106.2973405 -0.238084E-06  0.714E-03    2.66       1.7  T
   3   -106.2973404  0.153352E-06  0.192E-03    2.66       6.2  T
   4   -106.2973406 -0.171667E-06  0.613E-04    2.66      19.4  T
   5   -106.2973406 -0.214548E-07  0.209E-04    2.66      56.8  T
     SCC iter.                  ...        0 min,  0.029 sec
     gradient                   ...        0 min,  0.026 sec
 * total energy  :  -104.8383051 Eh     change       -0.1335146E-04 Eh
   gradient norm :     0.0014235 Eh/α   predicted    -0.7623547E-05 ( -42.90%)
   displ. norm   :     0.0645033 α      lambda       -0.1107930E-04
   maximum displ.:     0.0288645 α      in ANC's #2, #15, #1, ...

........................................................................
.............................. CYCLE   57 ..............................
........................................................................

 iter      E             dE          RMSdq      gap      omega  full diag
   1   -106.2971066 -0.106297E+03  0.982E-03    2.66       0.0  T
   2   -106.2971066 -0.466747E-07  0.581E-03    2.66       2.0  T
   3   -106.2971065  0.933673E-07  0.130E-03    2.66       9.2  T
   4   -106.2971066 -0.106608E-06  0.350E-04    2.66      33.9  T
   5   -106.2971066 -0.472006E-08  0.142E-04    2.66      83.8  T
     SCC iter.                  ...        0 min,  0.029 sec
     gradient                   ...        0 min,  0.016 sec
 * total energy  :  -104.8383171 Eh     change       -0.1202533E-04 Eh
   gradient norm :     0.0011533 Eh/α   predicted    -0.5554649E-05 ( -53.81%)
   displ. norm   :     0.0939617 α      lambda       -0.1060840E-04
   maximum displ.:     0.0498982 α      in ANC's #2, #1, #15, ...

........................................................................
.............................. CYCLE   58 ..............................
........................................................................

 iter      E             dE          RMSdq      gap      omega  full diag
   1   -106.2967474 -0.106297E+03  0.131E-02    2.66       0.0  T
   2   -106.2967474 -0.510065E-07  0.772E-03    2.66       1.5  T
   3   -106.2967474  0.767436E-07  0.126E-03    2.66       9.4  T
   4   -106.2967474 -0.933007E-07  0.338E-04    2.66      35.1  T
   5   -106.2967474 -0.351298E-08  0.175E-04    2.66      67.8  T
     SCC iter.                  ...        0 min,  0.025 sec
     gradient                   ...        0 min,  0.010 sec
 * total energy  :  -104.8383290 Eh     change       -0.1185831E-04 Eh
[...]
         :: -> isotropic ES            0.123245397325 Eh    ::
         :: -> anisotropic ES          0.010288748829 Eh    ::
         :: -> anisotropic XC          0.035380311182 Eh    ::
         :: -> dispersion             -0.068944491228 Eh    ::
         :: repulsion energy           1.458673693799 Eh    ::
         :: add. restraining           0.000000000000 Eh    ::
         :: total charge              -0.000000000000 e     ::
         :::::::::::::::::::::::::::::::::::::::::::::::::::::

           -------------------------------------------------
          |                Property Printout                |
           -------------------------------------------------

    * Orbital Energies and Occupations

         #    Occupation            Energy/Eh            Energy/eV
      -------------------------------------------------------------
         1        2.0000           -0.7430032             -20.2181
       ...           ...                  ...                  ...
        82        2.0000           -0.4317920             -11.7497
        83        2.0000           -0.4265401             -11.6067
        84        2.0000           -0.4197187             -11.4211
        85        2.0000           -0.4191343             -11.4052
        86        2.0000           -0.4169114             -11.3447
        87        2.0000           -0.4131785             -11.2432
        88        2.0000           -0.4117937             -11.2055
        89        2.0000           -0.4090471             -11.1307
        90        2.0000           -0.4071025             -11.0778
        91        2.0000           -0.4000736             -10.8866
        92        2.0000           -0.3985683             -10.8456
        93        2.0000           -0.3734658             -10.1625
        94        2.0000           -0.3671985              -9.9920 (HOMO)
        95                         -0.2700513              -7.3485 (LUMO)
        96                         -0.2683576              -7.3024
        97                         -0.2188770              -5.9559
        98                         -0.2159175              -5.8754
        99                         -0.2092827              -5.6949
       100                         -0.2059168              -5.6033
       101                         -0.1635542              -4.4505
       102                         -0.1606579              -4.3717
       103                         -0.0858683              -2.3366
       104                         -0.0844978              -2.2993
       105                         -0.0016849              -0.0458
       ...                                ...                  ...
       176                          0.7036360              19.1469
      -------------------------------------------------------------
                  HL-Gap            0.0971472 Eh            2.6435 eV
             Fermi-level           -0.3186249 Eh           -8.6702 eV

     #   Z          covCN         q      C6AA      α(0)
     1   6 C        3.757    -0.111    22.674     6.789
     2   6 C        2.938    -0.009    28.243     8.716
     3   6 C        2.850    -0.077    29.923     8.965
     4   6 C        2.731     0.351    21.038     7.509
     5   8 O        0.856    -0.414    21.964     6.283
     6   8 O        1.704    -0.266    18.417     5.794
     7   6 C        3.703     0.073    19.509     6.315
     8   6 C        3.800    -0.071    21.867     6.658
     9   6 C        3.694     0.088    19.292     6.284
    10   8 O        1.706    -0.279    18.637     5.829
    11   6 C        2.864     0.140    24.953     8.188
    12   6 C        2.920    -0.057    29.423     8.895
    13   6 C        2.924    -0.039    28.978     8.828
    14   6 C        2.978    -0.000    28.027     8.684
    15   6 C        2.928    -0.036    28.904     8.817
    16   6 C        2.916    -0.068    29.703     8.937
    17   6 C        3.909     0.018    20.214     6.390
    18   6 C        3.763    -0.103    22.518     6.764
    19   6 C        3.763    -0.104    22.528     6.766
    20   6 C        2.978     0.000    28.019     8.683
    21   6 C        2.927    -0.035    28.868     8.811
    22   6 C        2.919    -0.055    29.375     8.888
    23   6 C        2.864     0.139    24.975     8.192
    24   8 O        1.706    -0.278    18.606     5.824
    25   6 C        3.694     0.083    19.366     6.296
    26   6 C        3.800    -0.070    21.848     6.655
    27   6 C        3.703     0.079    19.409     6.299
    28   8 O        1.704    -0.270    18.481     5.804
    29   6 C        2.726     0.350    21.052     7.511
    30   8 O        0.856    -0.410    21.878     6.271
    31   6 C        2.937    -0.008    28.216     8.712
    32   6 C        3.759    -0.111    22.663     6.787
    33   6 C        2.844    -0.082    30.056     8.985
    34   6 C        2.917    -0.071    29.768     8.947
    35   6 C        2.925    -0.041    29.020     8.834
    36   1 H        0.925     0.061     2.187     2.313
    37   1 H        0.925     0.052     2.289     2.366
    38   1 H        0.925     0.058     2.224     2.332
    39   1 H        0.926     0.072     2.059     2.244
    40   1 H        0.926     0.058     2.223     2.332
    41   1 H        0.924     0.065     2.144     2.290
    42   1 H        0.924     0.054     2.266     2.354
    43   1 H        0.925     0.059     2.206     2.323
    44   1 H        0.924     0.073     2.057     2.243
    45   1 H        0.923     0.034     2.530     2.488
    46   1 H        0.923     0.029     2.608     2.525
    47   1 H        0.926     0.045     2.380     2.413
    48   1 H        0.926     0.041     2.435     2.440
    49   1 H        0.926     0.031     2.574     2.509
    50   1 H        0.926     0.028     2.611     2.527
    51   1 H        0.925     0.038     2.482     2.464
    52   1 H        0.925     0.036     2.497     2.471
    53   1 H        0.925     0.039     2.462     2.454
    54   1 H        0.925     0.036     2.506     2.476
    55   1 H        0.925     0.040     2.446     2.446
    56   1 H        0.925     0.039     2.461     2.453
    57   1 H        0.926     0.036     2.507     2.476
    58   1 H        0.926     0.047     2.352     2.398
    59   1 H        0.923     0.035     2.521     2.483
    60   1 H        0.923     0.029     2.605     2.524
    61   1 H        0.924     0.050     2.317     2.380
    62   1 H        0.924     0.075     2.035     2.231
    63   1 H        0.924     0.055     2.262     2.352
    64   1 H        0.924     0.071     2.080     2.255
    65   1 H        0.925     0.050     2.316     2.380
    66   1 H        0.925     0.065     2.140     2.288
    67   1 H        0.925     0.066     2.130     2.282
    68   1 H        0.926     0.062     2.177     2.307
    69   1 H        0.926     0.055     2.253     2.347
    70   1 H        0.926     0.027     2.632     2.537
    71   1 H        0.926     0.037     2.487     2.466

 Mol. C6AA /au·bohr⁶  :      51188.019176
 Mol. C8AA /au·bohr⁸  :    1185589.652237
 Mol. α(0) /au        :        349.078810


Wiberg/Mayer (AO) data.
largest (>0.10) Wiberg bond orders for each atom

 ---------------------------------------------------------------------------
     #   Z sym  total        # sym  WBO       # sym  WBO       # sym  WBO
 ---------------------------------------------------------------------------
     1   6 C    3.995 --     2 C    1.030    37 H    0.984    36 H    0.969
                            38 H    0.968
     2   6 C    3.986 --     3 C    1.876     1 C    1.030     4 C    0.995
     3   6 C    3.984 --     2 C    1.876    40 H    0.975    39 H    0.971
     4   6 C    3.917 --     5 O    1.728     6 O    1.116     2 C    0.995
     5   8 O    2.036 --     4 C    1.728     6 O    0.169
     6   8 O    2.304 --     4 C    1.116     7 C    0.948     5 O    0.169
     7   6 C    3.932 --     8 C    0.999    42 H    0.971    41 H    0.966
                             6 O    0.948
     8   6 C    3.990 --     9 C    1.002     7 C    0.999    43 H    0.973
                            44 H    0.972
     9   6 C    3.952 --     8 C    1.002    10 O    0.974    46 H    0.967
                            45 H    0.967
    10   8 O    2.220 --    11 C    1.052     9 C    0.974
    11   6 C    3.931 --    16 C    1.372    12 C    1.355    10 O    1.052
    12   6 C    3.987 --    13 C    1.463    11 C    1.355    47 H    0.968
                            15 C    0.110
    13   6 C    3.990 --    12 C    1.463    14 C    1.401    48 H    0.966
                            16 C    0.101
    14   6 C    3.986 --    15 C    1.412    13 C    1.401    17 C    0.978
    15   6 C    3.992 --    16 C    1.445    14 C    1.412    49 H    0.968
                            12 C    0.110
    16   6 C    3.988 --    15 C    1.445    11 C    1.372    50 H    0.967
                            13 C    0.101
    17   6 C    3.991 --    18 C    0.985    19 C    0.984    14 C    0.978
                            20 C    0.978
    18   6 C    3.995 --    52 H    0.985    51 H    0.985    17 C    0.985
                            53 H    0.982
    19   6 C    3.995 --    54 H    0.985    56 H    0.985    17 C    0.984
                            55 H    0.982
    20   6 C    3.986 --    35 C    1.431    21 C    1.382    17 C    0.978
    21   6 C    3.991 --    22 C    1.483    20 C    1.382    57 H    0.967
                            34 C    0.104
    22   6 C    3.987 --    21 C    1.483    23 C    1.342    58 H    0.968
                            35 C    0.107
    23   6 C    3.930 --    34 C    1.386    22 C    1.342    24 O    1.051
    24   8 O    2.221 --    23 C    1.051    25 C    0.976
    25   6 C    3.954 --    26 C    1.002    24 O    0.976    59 H    0.966
                            60 H    0.966
    26   6 C    3.992 --    25 C    1.002    27 C    0.998    61 H    0.975
                            62 H    0.972
    27   6 C    3.928 --    26 C    0.998    63 H    0.971    64 H    0.966
                            28 O    0.946
    28   8 O    2.301 --    29 C    1.116    27 C    0.946    30 O    0.169
    29   6 C    3.917 --    30 O    1.733    28 O    1.116    31 C    0.993
    30   8 O    2.036 --    29 C    1.733    28 O    0.169
    31   6 C    3.987 --    33 C    1.878    32 C    1.030    29 C    0.993
    32   6 C    3.994 --    31 C    1.030    65 H    0.985    67 H    0.967
                            66 H    0.966
    33   6 C    3.989 --    31 C    1.878    69 H    0.974    68 H    0.973
    34   6 C    3.986 --    35 C    1.426    23 C    1.386    70 H    0.967
                            21 C    0.104
    35   6 C    3.991 --    20 C    1.431    34 C    1.426    71 H    0.966
                            22 C    0.107
    36   1 H    0.996 --     1 C    0.969
    37   1 H    0.997 --     1 C    0.984
    38   1 H    0.997 --     1 C    0.968
    39   1 H    0.995 --     3 C    0.971
    40   1 H    0.996 --     3 C    0.975
    41   1 H    0.995 --     7 C    0.966
    42   1 H    0.997 --     7 C    0.971
    43   1 H    0.996 --     8 C    0.973
    44   1 H    0.995 --     8 C    0.972
    45   1 H    0.999 --     9 C    0.967
    46   1 H    0.999 --     9 C    0.967
    47   1 H    0.998 --    12 C    0.968
    48   1 H    0.998 --    13 C    0.966
    49   1 H    0.999 --    15 C    0.968
    50   1 H    0.999 --    16 C    0.967
    51   1 H    0.999 --    18 C    0.985
    52   1 H    0.998 --    18 C    0.985
    53   1 H    0.997 --    18 C    0.982
    54   1 H    0.998 --    19 C    0.985
    55   1 H    0.997 --    19 C    0.982
    56   1 H    0.998 --    19 C    0.985
    57   1 H    0.998 --    21 C    0.967
    58   1 H    0.997 --    22 C    0.968
    59   1 H    0.999 --    25 C    0.966
    60   1 H    0.999 --    25 C    0.966
    61   1 H    0.997 --    26 C    0.975
    62   1 H    0.994 --    26 C    0.972
    63   1 H    0.997 --    27 C    0.971
    64   1 H    0.995 --    27 C    0.966
    65   1 H    0.997 --    32 C    0.985
    66   1 H    0.996 --    32 C    0.966
    67   1 H    0.996 --    32 C    0.967
    68   1 H    0.996 --    33 C    0.973
    69   1 H    0.997 --    33 C    0.974
    70   1 H    0.999 --    34 C    0.967
    71   1 H    0.999 --    35 C    0.966
 ---------------------------------------------------------------------------

Topologies differ in total number of bonds
Writing topology from bond orders to xtbtopo.mol

molecular dipole:
                 x           y           z       tot (Debye)
 q only:        1.048      -1.291      -0.388
   full:        1.240      -1.567      -0.606       5.307
molecular quadrupole (traceless):
                xx          xy          yy          xz          yz          zz
 q only:        1.391       9.599      -2.364       7.687       0.110       0.972
  q+dip:       -1.295       5.430       0.183       9.768       0.618       1.112
   full:       -2.035       7.282      -1.106      11.883       0.425       3.142

           -------------------------------------------------
          |                Geometry Summary                 |
           -------------------------------------------------

      molecular mass/u    :      480.5936376
   center of mass at/Å    :       -0.0706102       0.1453007      -0.0144955
  moments of inertia/u·Å² :        0.2814670E+04   0.1949873E+05   0.2088276E+05
rotational constants/cm⁻¹ :        0.5989203E-02   0.8645505E-03   0.8072512E-03

 * 66 selected distances

     #   Z          #   Z                                           value/Å
     2   6 C        3   6 C                                       1.3293051
     4   6 C        5   8 O                                       1.2064605
     4   6 C        6   8 O                                       1.3432633
     6   8 O        7   6 C                                       1.4238428
     7   6 C        8   6 C                                       1.5256072
     8   6 C        9   6 C                                       1.5262032
     9   6 C       10   8 O                                       1.4097140
    10   8 O       11   6 C                                       1.3637719
    11   6 C       12   6 C                                       1.3931530
    12   6 C       13   6 C                                       1.3797271
    13   6 C       14   6 C                                       1.3897025
    14   6 C       15   6 C                                       1.3891885
    11   6 C       16   6 C                                       1.3899129
    15   6 C       16   6 C                                       1.3834920
    17   6 C       18   6 C                                       1.5358826 (max)
    17   6 C       19   6 C                                       1.5357307
    20   6 C       21   6 C                                       1.3943635
    21   6 C       22   6 C                                       1.3763020
    22   6 C       23   6 C                                       1.3956229
    23   6 C       24   8 O                                       1.3641187
    24   8 O       25   6 C                                       1.4092912
    25   6 C       26   6 C                                       1.5245731
    26   6 C       27   6 C                                       1.5285586
    27   6 C       28   8 O                                       1.4237500
    28   8 O       29   6 C                                       1.3419451
    29   6 C       30   8 O                                       1.2065184
    31   6 C       33   6 C                                       1.3285162
    23   6 C       34   6 C                                       1.3874438
    20   6 C       35   6 C                                       1.3846184
    34   6 C       35   6 C                                       1.3872927
     1   6 C       36   1 H                                       1.0882286
     1   6 C       37   1 H                                       1.0865648
     1   6 C       38   1 H                                       1.0886647
     3   6 C       39   1 H                                       1.0768031
     3   6 C       40   1 H                                       1.0764440
     7   6 C       41   1 H                                       1.0949162
     7   6 C       42   1 H                                       1.0923987
     8   6 C       43   1 H                                       1.0898781
     8   6 C       44   1 H                                       1.0910785
     9   6 C       45   1 H                                       1.0990322
     9   6 C       46   1 H                                       1.0997611
    12   6 C       47   1 H                                       1.0787432
    13   6 C       48   1 H                                       1.0780994
    15   6 C       49   1 H                                       1.0806653
    16   6 C       50   1 H                                       1.0789869
    18   6 C       51   1 H                                       1.0870464
    18   6 C       52   1 H                                       1.0883994
    18   6 C       53   1 H                                       1.0874909
    19   6 C       54   1 H                                       1.0885066
    19   6 C       55   1 H                                       1.0874828
    19   6 C       56   1 H                                       1.0870003
    21   6 C       57   1 H                                       1.0802648
    22   6 C       58   1 H                                       1.0784989
    25   6 C       59   1 H                                       1.0994608
    25   6 C       60   1 H                                       1.0997606
    26   6 C       61   1 H                                       1.0915556
    26   6 C       62   1 H                                       1.0904450
    27   6 C       63   1 H                                       1.0926643
    27   6 C       64   1 H                                       1.0940161
    32   6 C       65   1 H                                       1.0859641
    32   6 C       66   1 H                                       1.0886900
    32   6 C       67   1 H                                       1.0885966
    33   6 C       68   1 H                                       1.0754792 (min)
    33   6 C       69   1 H                                       1.0773511
    34   6 C       70   1 H                                       1.0791628
    35   6 C       71   1 H                                       1.0785594

 * 3 distinct bonds (by element types)

   Z      Z             #   av. dist./Å        max./Å        min./Å
   1 H    6 C          36     1.0868517     1.0997611     1.0754792
   6 C    6 C          20     1.4242598     1.5358826     1.3285162
   6 C    8 O          10     1.3492676     1.4238428     1.2064605


optimized geometry written to: xtbopt.xyz


           -------------------------------------------------
          | TOTAL ENERGY             -104.840052324704 Eh   |
          | GRADIENT NORM               0.000343276231 Eh/α |
          | HOMO-LUMO GAP               2.643509146651 eV   |
           -------------------------------------------------

------------------------------------------------------------------------
 * finished run on 2025/12/01 at 14:18:32.042     
------------------------------------------------------------------------
 total:
 * wall-time:     0 d,  0 h,  0 min,  6.930 sec
 *  cpu-time:     0 d,  0 h,  2 min, 37.911 sec
 * ratio c/w:    22.787 speedup
 SCF:
 * wall-time:     0 d,  0 h,  0 min,  0.091 sec
 *  cpu-time:     0 d,  0 h,  0 min,  2.062 sec
 * ratio c/w:    22.562 speedup
 ANC optimizer:
 * wall-time:     0 d,  0 h,  0 min,  6.795 sec
 *  cpu-time:     0 d,  0 h,  2 min, 35.362 sec
 * ratio c/w:    22.865 speedup

normal termination of xtb
