      -----------------------------------------------------------      
     |                   =====================                   |     
     |                           x T B                           |     
     |                   =====================                   |     
     |                         S. Grimme                         |     
     |          Mulliken Center for Theoretical Chemistry        |     
     |                    University of Bonn                     |     
      -----------------------------------------------------------      

   * xtb version 6.7.1 (edcfbbe) compiled by 'albert@albert-system' on 2024-07-22

   xtb is free software: you can redistribute it and/or modify it under
   the terms of the GNU Lesser General Public License as published by
   the Free Software Foundation, either version 3 of the License, or
   (at your option) any later version.
   
   xtb is distributed in the hope that it will be useful,
   but WITHOUT ANY WARRANTY; without even the implied warranty of
   MERCHANTABILITY or FITNESS FOR A PARTICULAR PURPOSE.  See the
   GNU Lesser General Public License for more details.
   
   Cite this work as:
   * C. Bannwarth, E. Caldeweyher, S. Ehlert, A. Hansen, P. Pracht,
     J. Seibert, S. Spicher, S. Grimme, WIREs Comput. Mol. Sci., 2020, 11,
     e01493. DOI: 10.1002/wcms.1493
   
   for GFN2-xTB:
   * C. Bannwarth, S. Ehlert and S. Grimme., J. Chem. Theory Comput., 2019,
     15, 1652-1671. DOI: 10.1021/acs.jctc.8b01176
   for GFN1-xTB:
   * S. Grimme, C. Bannwarth, P. Shushkov, J. Chem. Theory Comput., 2017,
     13, 1989-2009. DOI: 10.1021/acs.jctc.7b00118
   for GFN0-xTB:
   * P. Pracht, E. Caldeweyher, S. Ehlert, S. Grimme, ChemRxiv, 2019, preprint.
     DOI: 10.26434/chemrxiv.8326202.v1
   for GFN-FF:
   * S. Spicher and S. Grimme, Angew. Chem. Int. Ed., 2020, 59, 15665-15673.
     DOI: 10.1002/anie.202004239
   
   for ALPB and GBSA implicit solvation:
   * S. Ehlert, M. Stahn, S. Spicher, S. Grimme, J. Chem. Theory Comput.,
     2021, 17, 4250-4261. DOI: 10.1021/acs.jctc.1c00471
   
   for ddCOSMO and CPCM-X implicit solvation:
   * M. Stahn, S. Ehlert, S. Grimme, J. Phys. Chem. A,
     2023, XX, XXXX-XXXX. DOI: 10.1021/acs.jpca.3c04382
   
   for DFT-D4:
   * E. Caldeweyher, C. Bannwarth and S. Grimme, J. Chem. Phys., 2017,
     147, 034112. DOI: 10.1063/1.4993215
   * E. Caldeweyher, S. Ehlert, A. Hansen, H. Neugebauer, S. Spicher,
     C. Bannwarth and S. Grimme, J. Chem. Phys., 2019, 150, 154122.
     DOI: 10.1063/1.5090222
   * E. Caldeweyher, J.-M. Mewes, S. Ehlert and S. Grimme, Phys. Chem. Chem. Phys.
     2020, 22, 8499-8512. DOI: 10.1039/D0CP00502A
   
   for sTDA-xTB:
   * S. Grimme and C. Bannwarth, J. Chem. Phys., 2016, 145, 054103.
     DOI: 10.1063/1.4959605
   
   in the mass-spec context:
   * V. Asgeirsson, C. Bauer and S. Grimme, Chem. Sci., 2017, 8, 4879.
     DOI: 10.1039/c7sc00601b
   * J. Koopman and S. Grimme, ACS Omega 2019, 4, 12, 15120-15133.
     DOI: 10.1021/acsomega.9b02011
   
   for metadynamics refer to:
   * S. Grimme, J. Chem. Theory Comput., 2019, 155, 2847-2862
     DOI: 10.1021/acs.jctc.9b00143
   
   for SPH calculations refer to:
   * S. Spicher and S. Grimme, J. Chem. Theory Comput., 2021, 17, 1701-1714
     DOI: 10.1021/acs.jctc.0c01306
   
   for ONIOM refer to:
   * C. Plett, A. Katbashev, S. Ehlert, S. Grimme, M. Bursch,
     Phys. Chem. Chem. Phys., 2023, 25, 17860-17868. DOI: 10.1039/D3CP02178E
   
   for DIPRO refer to:
   * J. Kohn, N. Gildemeister, S. Grimme, D. Fazzi, A. Hansen,
     J. Chem. Phys., 2023, just accepted.
   
   for PTB refer to:
   * S. Grimme, M. Mueller, A. Hansen, J. Chem. Phys., 2023, 158, 124111.
     DOI: 10.1063/5.0137838
   
   with help from (in alphabetical order)
   P. Atkinson, C. Bannwarth, F. Bohle, G. Brandenburg, E. Caldeweyher
   M. Checinski, S. Dohm, S. Ehlert, S. Ehrlich, I. Gerasimov, C. Hölzer
   A. Katbashev, J. Kohn, J. Koopman, C. Lavigne, S. Lehtola, F. März, M. Müller,
   F. Musil, H. Neugebauer, J. Pisarek, C. Plett, P. Pracht, F. Pultar,
   J. Seibert, P. Shushkov, S. Spicher, M. Stahn, M. Steiner, T. Strunk,
   J. Stückrath, T. Rose, and J. Unsleber
   
 * started run on 2025/12/01 at 14:18:34.823     
   ID    Z sym.   atoms
    1    6 C      1, 3-11, 13-19
    2    8 O      2, 12
    3    1 H      20-37

           -------------------------------------------------
          |                Calculation Setup                |
           -------------------------------------------------

          program call               : xtb pipeline_data/3_conformer_xyz/acrylates/rdkit/OQCIXXVMXBXDSC-UHFFFAOYSA-N_conf110.xyz --opt --gfn 2-xTB --iterations 250
          coordinate file            : pipeline_data/3_conformer_xyz/acrylates/rdkit/OQCIXXVMXBXDSC-UHFFFAOYSA-N_conf110.xyz
          omp threads                :                    24

########################################################################
[WARNING] Please study the warnings concerning your input carefully
-1- readin_getIntValue: could not parse '2-xTB'
########################################################################

           -------------------------------------------------
          |                 G F N 2 - x T B                 |
           -------------------------------------------------

        Reference                      10.1021/acs.jctc.8b01176
      * Hamiltonian:
        H0-scaling (s, p, d)           1.850000    2.230000    2.230000
        zeta-weighting                 0.500000
      * Dispersion:
        s8                             2.700000
        a1                             0.520000
        a2                             5.000000
        s9                             5.000000
      * Repulsion:
        kExp                           1.500000    1.000000
        rExp                           1.000000
      * Coulomb:
        alpha                          2.000000
        third order                    shell-resolved
        anisotropic                    true
        a3                             3.000000
        a5                             4.000000
        cn-shift                       1.200000
        cn-exp                         4.000000
        max-rad                        5.000000

q/qsh data taken from xtbrestart
CAMM data taken from xtbrestart

          ...................................................
          :                      SETUP                      :
          :.................................................:
          :  # basis functions                  94          :
          :  # atomic orbitals                  94          :
          :  # shells                           56          :
          :  # electrons                        98          :
          :  max. iterations                   250          :
          :  Hamiltonian                  GFN2-xTB          :
          :  restarted?                       true          :
          :  GBSA solvation                  false          :
          :  PC potential                    false          :
          :  electronic temp.          300.0000000     K    :
          :  accuracy                    1.0000000          :
          :  -> integral cutoff          0.2500000E+02      :
          :  -> integral neglect         0.1000000E-07      :
          :  -> SCF convergence          0.1000000E-05 Eh   :
          :  -> wf. convergence          0.1000000E-03 e    :
          :  Broyden damping             0.4000000          :
          :  net charge                          0          :
          :  unpaired electrons                  0          :
          ...................................................

 iter      E             dE          RMSdq      gap      omega  full diag
   1    -54.4798592 -0.544799E+02  0.467E+00    3.53       0.0  T
   2    -54.4858023 -0.594310E-02  0.278E+00    3.63       1.0  T
   3    -54.4816342  0.416810E-02  0.421E-01    3.60       1.0  T
   4    -54.4877045 -0.607036E-02  0.178E-01    3.69       1.0  T
   5    -54.4880884 -0.383924E-03  0.795E-02    3.68       1.0  T
   6    -54.4880985 -0.100575E-04  0.424E-02    3.69       1.0  T
   7    -54.4881338 -0.353010E-04  0.106E-02    3.69       1.6  T
   8    -54.4881353 -0.149044E-05  0.411E-03    3.69       4.0  T
   9    -54.4881354 -0.700589E-07  0.200E-03    3.69       8.2  T
  10    -54.4881354 -0.342258E-07  0.779E-04    3.69      21.1  T
  11    -54.4881354 -0.929572E-08  0.284E-04    3.69      58.0  T

   *** convergence criteria satisfied after 11 iterations ***

         #    Occupation            Energy/Eh            Energy/eV
      -------------------------------------------------------------
         1        2.0000           -0.7174022             -19.5215
       ...           ...                  ...                  ...
        43        2.0000           -0.4137786             -11.2595
        44        2.0000           -0.4082052             -11.1078
        45        2.0000           -0.4064330             -11.0596
        46        2.0000           -0.4030829             -10.9684
        47        2.0000           -0.3937527             -10.7146
        48        2.0000           -0.3880501             -10.5594
        49        2.0000           -0.3834434             -10.4340 (HOMO)
        50                         -0.2479823              -6.7479 (LUMO)
        51                         -0.2303810              -6.2690
        52                         -0.2281497              -6.2083
        53                         -0.2166287              -5.8948
        54                         -0.1758340              -4.7847
       ...                                ...                  ...
        94                          0.7168471              19.5064
      -------------------------------------------------------------
                  HL-Gap            0.1354611 Eh            3.6861 eV
             Fermi-level           -0.3157128 Eh           -8.5910 eV

 SCC (total)                   0 d,  0 h,  0 min,  0.040 sec
 SCC setup                      ...        0 min,  0.000 sec (  1.120%)
 Dispersion                     ...        0 min,  0.001 sec (  1.489%)
 classical contributions        ...        0 min,  0.000 sec (  0.767%)
 integral evaluation            ...        0 min,  0.002 sec (  6.011%)
 iterations                     ...        0 min,  0.029 sec ( 73.166%)
 molecular gradient             ...        0 min,  0.006 sec ( 15.090%)
 printout                       ...        0 min,  0.001 sec (  2.269%)

         :::::::::::::::::::::::::::::::::::::::::::::::::::::
         ::                     SUMMARY                     ::
         :::::::::::::::::::::::::::::::::::::::::::::::::::::
         :: total energy             -53.619133180399 Eh    ::
         :: gradient norm              0.137366432837 Eh/a0 ::
         :: HOMO-LUMO gap              3.686085142568 eV    ::
         ::.................................................::
         :: SCC energy               -54.487680477243 Eh    ::
         :: -> isotropic ES            0.038779726762 Eh    ::
         :: -> anisotropic ES          0.004705105196 Eh    ::
         :: -> anisotropic XC          0.023708404549 Eh    ::
         :: -> dispersion             -0.042512717986 Eh    ::
         :: repulsion energy           0.868547296844 Eh    ::
         :: add. restraining           0.000000000000 Eh    ::
         :: total charge               0.000000000000 e     ::
         :::::::::::::::::::::::::::::::::::::::::::::::::::::

      ----------------------------------------------------------- 
     |                   =====================                   |
     |                        A N C O P T                        |
     |                   =====================                   |
     |               Approximate Normal Coordinate               |
     |                Rational Function Optimizer                |
      ----------------------------------------------------------- 
      ----------------------------------------------------------- 
     |                   =====================                   |
     |                        A N C O P T                        |
     |                   =====================                   |
     |               Approximate Normal Coordinate               |
     |                Rational Function Optimizer                |
      ----------------------------------------------------------- 

          ...................................................
          :                      SETUP                      :
          :.................................................:
          :   optimization level            normal          :
          :   max. optcycles                   200          :
          :   ANC micro-cycles                  20          :
          :   degrees of freedom               105          :
          :.................................................:
          :   RF solver                   davidson          :
          :   write xtbopt.log                true          :
          :   linear?                        false          :
          :   energy convergence         0.5000000E-05 Eh   :
          :   grad. convergence          0.1000000E-02 Eh/α :
          :   maxmium RF displ.          1.0000000          :
          :   Hlow (freq-cutoff)         0.1000000E-01      :
          :   Hmax (freq-cutoff)         5.0000000          :
          :   S6 in model hess.         20.0000000          :
          ...................................................

generating ANC from exact Hessian ...
Using Lindh-Hessian (1995)
 Shifting diagonal of input Hessian by   9.452479262976458E-003
 Lowest  eigenvalues of input Hessian
    0.000000    0.000000    0.000000    0.000000    0.000000    0.000000
    0.010000    0.010215    0.010563    0.011005    0.011728    0.011861
    0.013096    0.013701    0.014493    0.015469    0.015927    0.016520
 Highest eigenvalues
    1.920115    1.988182    2.016602    2.056879    2.063980    2.099456
 

........................................................................
.............................. CYCLE    1 ..............................
........................................................................

 iter      E             dE          RMSdq      gap      omega  full diag
   1    -54.4881354 -0.544881E+02  0.102E-04    3.69       0.0  T
   2    -54.4881354 -0.615188E-10  0.634E-05    3.69     259.4  T
   3    -54.4881354 -0.219842E-10  0.417E-05    3.69     394.6  T
     SCC iter.                  ...        0 min,  0.007 sec
     gradient                   ...        0 min,  0.005 sec
 * total energy  :   -53.6191332 Eh     change       -0.3544542E-09 Eh
   gradient norm :     0.1373674 Eh/α   predicted     0.0000000E+00 (-100.00%)
   displ. norm   :     0.3694808 α      lambda       -0.3139528E-01
   maximum displ.:     0.1155821 α      in ANC's #15, #53, #19, ...

........................................................................
.............................. CYCLE    2 ..............................
........................................................................

 iter      E             dE          RMSdq      gap      omega  full diag
   1    -54.4990007 -0.544990E+02  0.286E-01    3.60       0.0  T
   2    -54.4991666 -0.165880E-03  0.180E-01    3.61       1.0  T
   3    -54.4989726  0.193935E-03  0.845E-02    3.61       1.0  T
   4    -54.4992217 -0.249057E-03  0.227E-02    3.60       1.0  T
   5    -54.4992346 -0.128917E-04  0.711E-03    3.61       2.3  T
   6    -54.4992355 -0.916974E-06  0.309E-03    3.61       5.3  T
   7    -54.4992357 -0.209941E-06  0.115E-03    3.61      14.3  T
   8    -54.4992357 -0.418471E-08  0.495E-04    3.61      33.2  T
   9    -54.4992357 -0.287757E-08  0.140E-04    3.61     117.7  T
     SCC iter.                  ...        0 min,  0.019 sec
     gradient                   ...        0 min,  0.005 sec
 * total energy  :   -53.6404685 Eh     change       -0.2133529E-01 Eh
   gradient norm :     0.0576284 Eh/α   predicted    -0.1784079E-01 ( -16.38%)
   displ. norm   :     0.3306935 α      lambda       -0.9425630E-02
   maximum displ.:     0.1375619 α      in ANC's #15, #8, #5, ...

........................................................................
.............................. CYCLE    3 ..............................
........................................................................

 iter      E             dE          RMSdq      gap      omega  full diag
   1    -54.5009958 -0.545010E+02  0.203E-01    3.55       0.0  T
   2    -54.5010864 -0.906755E-04  0.124E-01    3.55       1.0  T
   3    -54.5010158  0.706730E-04  0.519E-02    3.55       1.0  T
   4    -54.5011068 -0.910226E-04  0.151E-02    3.55       1.1  T
   5    -54.5011119 -0.514711E-05  0.637E-03    3.55       2.6  T
   6    -54.5011128 -0.871807E-06  0.229E-03    3.55       7.2  T
   7    -54.5011129 -0.120353E-06  0.872E-04    3.55      18.8  T
   8    -54.5011129 -0.488270E-08  0.332E-04    3.55      49.6  T
     SCC iter.                  ...        0 min,  0.017 sec
     gradient                   ...        0 min,  0.005 sec
 * total energy  :   -53.6459600 Eh     change       -0.5491529E-02 Eh
   gradient norm :     0.0160706 Eh/α   predicted    -0.5228203E-02 (  -4.80%)
   displ. norm   :     0.2708046 α      lambda       -0.1507419E-02
   maximum displ.:     0.1428060 α      in ANC's #8, #5, #15, ...

........................................................................
.............................. CYCLE    4 ..............................
........................................................................

 iter      E             dE          RMSdq      gap      omega  full diag
   1    -54.4983942 -0.544984E+02  0.100E-01    3.55       0.0  T
   2    -54.4983984 -0.419183E-05  0.593E-02    3.55       1.0  T
   3    -54.4983908  0.760062E-05  0.154E-02    3.55       1.1  T
   4    -54.4983997 -0.895475E-05  0.335E-03    3.55       4.9  T
   5    -54.4983999 -0.117895E-06  0.171E-03    3.55       9.6  T
   6    -54.4983999 -0.748646E-07  0.744E-04    3.55      22.1  T
   7    -54.4983999 -0.616251E-08  0.322E-04    3.55      51.1  T
     SCC iter.                  ...        0 min,  0.015 sec
     gradient                   ...        0 min,  0.005 sec
 * total energy  :   -53.6470600 Eh     change       -0.1099987E-02 Eh
   gradient norm :     0.0102472 Eh/α   predicted    -0.8091075E-03 ( -26.44%)
   displ. norm   :     0.3605982 α      lambda       -0.1085456E-02
   maximum displ.:     0.2155104 α      in ANC's #5, #8, #15, ...

........................................................................
.............................. CYCLE    5 ..............................
........................................................................

 iter      E             dE          RMSdq      gap      omega  full diag
   1    -54.4971180 -0.544971E+02  0.125E-01    3.56       0.0  T
   2    -54.4971200 -0.208362E-05  0.740E-02    3.56       1.0  T
   3    -54.4971017  0.183361E-04  0.241E-02    3.56       1.0  T
   4    -54.4971221 -0.203783E-04  0.313E-03    3.56       5.3  T
   5    -54.4971222 -0.115764E-06  0.161E-03    3.56      10.2  T
   6    -54.4971222 -0.386011E-07  0.626E-04    3.56      26.3  T
   7    -54.4971222 -0.347919E-08  0.217E-04    3.56      75.8  T
     SCC iter.                  ...        0 min,  0.015 sec
     gradient                   ...        0 min,  0.005 sec
 * total energy  :   -53.6478221 Eh     change       -0.7621119E-03 Eh
   gradient norm :     0.0097459 Eh/α   predicted    -0.6133032E-03 ( -19.53%)
   displ. norm   :     0.3321233 α      lambda       -0.6245219E-03
   maximum displ.:     0.2129296 α      in ANC's #5, #8, #1, ...

........................................................................
.............................. CYCLE    6 ..............................
........................................................................

 iter      E             dE          RMSdq      gap      omega  full diag
   1    -54.4976349 -0.544976E+02  0.120E-01    3.56       0.0  T
   2    -54.4976361 -0.124146E-05  0.711E-02    3.56       1.0  T
   3    -54.4976164  0.197509E-04  0.248E-02    3.56       1.0  T
   4    -54.4976381 -0.217530E-04  0.224E-03    3.56       7.3  T
   5    -54.4976382 -0.349340E-07  0.123E-03    3.56      13.3  T
   6    -54.4976382 -0.106835E-07  0.527E-04    3.56      31.2  T
   7    -54.4976382 -0.342806E-08  0.177E-04    3.56      92.9  T
     SCC iter.                  ...        0 min,  0.014 sec
     gradient                   ...        0 min,  0.005 sec
 * total energy  :   -53.6483153 Eh     change       -0.4932142E-03 Eh
   gradient norm :     0.0100268 Eh/α   predicted    -0.3467070E-03 ( -29.70%)
   displ. norm   :     0.4044897 α      lambda       -0.6702286E-03
   maximum displ.:     0.2590942 α      in ANC's #5, #8, #3, ...

........................................................................
.............................. CYCLE    7 ..............................
........................................................................

 iter      E             dE          RMSdq      gap      omega  full diag
   1    -54.4993591 -0.544994E+02  0.157E-01    3.57       0.0  T
   2    -54.4993611 -0.191064E-05  0.926E-02    3.57       1.0  T
   3    -54.4993405  0.205353E-04  0.251E-02    3.57       1.0  T
   4    -54.4993632 -0.227193E-04  0.266E-03    3.57       6.2  T
   5    -54.4993633 -0.416156E-07  0.146E-03    3.57      11.3  T
   6    -54.4993633 -0.210509E-07  0.629E-04    3.57      26.1  T
   7    -54.4993633 -0.332735E-08  0.242E-04    3.57      68.0  T
     SCC iter.                  ...        0 min,  0.014 sec
     gradient                   ...        0 min,  0.005 sec
 * total energy  :   -53.6488526 Eh     change       -0.5373095E-03 Eh
   gradient norm :     0.0079085 Eh/α   predicted    -0.3899469E-03 ( -27.43%)
   displ. norm   :     0.4826581 α      lambda       -0.6649029E-03
   maximum displ.:     0.3021225 α      in ANC's #5, #3, #8, ...

........................................................................
.............................. CYCLE    8 ..............................
........................................................................

 iter      E             dE          RMSdq      gap      omega  full diag
   1    -54.5004636 -0.545005E+02  0.189E-01    3.57       0.0  T
   2    -54.5004660 -0.235682E-05  0.111E-01    3.57       1.0  T
   3    -54.5004566  0.934859E-05  0.170E-02    3.57       1.0  T
   4    -54.5004675 -0.108691E-04  0.305E-03    3.57       5.4  T
   5    -54.5004676 -0.688934E-07  0.179E-03    3.57       9.2  T
   6    -54.5004676 -0.436499E-07  0.701E-04    3.57      23.4  T
   7    -54.5004676 -0.410810E-08  0.245E-04    3.57      67.0  T
     SCC iter.                  ...        0 min,  0.015 sec
     gradient                   ...        0 min,  0.004 sec
 * total energy  :   -53.6493842 Eh     change       -0.5315615E-03 Eh
   gradient norm :     0.0070080 Eh/α   predicted    -0.4099007E-03 ( -22.89%)
   displ. norm   :     0.5228448 α      lambda       -0.6212867E-03
   maximum displ.:     0.3092086 α      in ANC's #5, #3, #4, ...

........................................................................
.............................. CYCLE    9 ..............................
........................................................................

 iter      E             dE          RMSdq      gap      omega  full diag
   1    -54.5009340 -0.545009E+02  0.199E-01    3.58       0.0  T
   2    -54.5009363 -0.224127E-05  0.117E-01    3.58       1.0  T
   3    -54.5009333  0.297206E-05  0.985E-03    3.58       1.7  T
   4    -54.5009375 -0.423151E-05  0.250E-03    3.58       6.6  T
   5    -54.5009375 -0.153468E-07  0.107E-03    3.58      15.4  T
   6    -54.5009375 -0.665755E-08  0.411E-04    3.58      40.0  T
   7    -54.5009375 -0.275533E-08  0.169E-04    3.58      97.3  T
     SCC iter.                  ...        0 min,  0.015 sec
     gradient                   ...        0 min,  0.004 sec
 * total energy  :   -53.6498947 Eh     change       -0.5104650E-03 Eh
   gradient norm :     0.0089517 Eh/α   predicted    -0.3955640E-03 ( -22.51%)
   displ. norm   :     0.5304379 α      lambda       -0.6360704E-03
   maximum displ.:     0.2890500 α      in ANC's #5, #3, #2, ...

........................................................................
.............................. CYCLE   10 ..............................
........................................................................

 iter      E             dE          RMSdq      gap      omega  full diag
   1    -54.5017794 -0.545018E+02  0.187E-01    3.60       0.0  T
   2    -54.5017817 -0.228931E-05  0.110E-01    3.60       1.0  T
   3    -54.5017735  0.816013E-05  0.160E-02    3.60       1.0  T
   4    -54.5017832 -0.968641E-05  0.284E-03    3.60       5.8  T
   5    -54.5017833 -0.493781E-07  0.179E-03    3.60       9.2  T
   6    -54.5017833 -0.471226E-07  0.574E-04    3.60      28.6  T
   7    -54.5017833 -0.251718E-08  0.190E-04    3.60      86.4  T
     SCC iter.                  ...        0 min,  0.015 sec
     gradient                   ...        0 min,  0.004 sec
 * total energy  :   -53.6504310 Eh     change       -0.5363737E-03 Eh
   gradient norm :     0.0106402 Eh/α   predicted    -0.4075204E-03 ( -24.02%)
   displ. norm   :     0.5449756 α      lambda       -0.7032784E-03
   maximum displ.:     0.2732019 α      in ANC's #3, #5, #2, ...

........................................................................
.............................. CYCLE   11 ..............................
........................................................................

 iter      E             dE          RMSdq      gap      omega  full diag
   1    -54.5029501 -0.545030E+02  0.178E-01    3.62       0.0  T
   2    -54.5029529 -0.278007E-05  0.105E-01    3.62       1.0  T
   3    -54.5029366  0.162437E-04  0.227E-02    3.62       1.0  T
   4    -54.5029550 -0.183688E-04  0.298E-03    3.62       5.5  T
   5    -54.5029551 -0.943584E-07  0.183E-03    3.62       9.0  T
   6    -54.5029552 -0.560099E-07  0.658E-04    3.62      25.0  T
   7    -54.5029552 -0.113311E-08  0.219E-04    3.62      75.2  T
     SCC iter.                  ...        0 min,  0.019 sec
     gradient                   ...        0 min,  0.005 sec
 * total energy  :   -53.6510153 Eh     change       -0.5842899E-03 Eh
   gradient norm :     0.0099767 Eh/α   predicted    -0.4560771E-03 ( -21.94%)
   displ. norm   :     0.5342598 α      lambda       -0.6733795E-03
   maximum displ.:     0.2959643 α      in ANC's #2, #3, #5, ...

........................................................................
.............................. CYCLE   12 ..............................
........................................................................

 iter      E             dE          RMSdq      gap      omega  full diag
   1    -54.5039543 -0.545040E+02  0.164E-01    3.65       0.0  T
   2    -54.5039570 -0.264557E-05  0.965E-02    3.65       1.0  T
   3    -54.5039482  0.875034E-05  0.164E-02    3.65       1.0  T
   4    -54.5039584 -0.101489E-04  0.283E-03    3.65       5.8  T
   5    -54.5039585 -0.947274E-07  0.170E-03    3.65       9.7  T
   6    -54.5039585 -0.521360E-07  0.602E-04    3.65      27.3  T
   7    -54.5039585 -0.970822E-09  0.211E-04    3.65      78.0  T
     SCC iter.                  ...        0 min,  0.015 sec
     gradient                   ...        0 min,  0.004 sec
 * total energy  :   -53.6515526 Eh     change       -0.5372655E-03 Eh
   gradient norm :     0.0076866 Eh/α   predicted    -0.4327951E-03 ( -19.44%)
   displ. norm   :     0.5047599 α      lambda       -0.5440774E-03
   maximum displ.:     0.3100229 α      in ANC's #2, #3, #5, ...

........................................................................
.............................. CYCLE   13 ..............................
........................................................................

 iter      E             dE          RMSdq      gap      omega  full diag
   1    -54.5041486 -0.545041E+02  0.151E-01    3.67       0.0  T
   2    -54.5041508 -0.221196E-05  0.889E-02    3.67       1.0  T
   3    -54.5041461  0.471525E-05  0.125E-02    3.67       1.3  T
   4    -54.5041518 -0.575819E-05  0.226E-03    3.67       7.3  T
   5    -54.5041519 -0.529938E-07  0.151E-03    3.67      10.9  T
   6    -54.5041519 -0.300170E-07  0.576E-04    3.67      28.5  T
   7    -54.5041519 -0.336249E-08  0.190E-04    3.67      86.4  T
     SCC iter.                  ...        0 min,  0.015 sec
     gradient                   ...        0 min,  0.005 sec
 * total energy  :   -53.6519645 Eh     change       -0.4119195E-03 Eh
   gradient norm :     0.0065217 Eh/α   predicted    -0.3413528E-03 ( -17.13%)
   displ. norm   :     0.4622145 α      lambda       -0.4399524E-03
   maximum displ.:     0.3044295 α      in ANC's #2, #3, #5, ...

........................................................................
.............................. CYCLE   14 ..............................
........................................................................

 iter      E             dE          RMSdq      gap      omega  full diag
   1    -54.5048022 -0.545048E+02  0.134E-01    3.68       0.0  T
   2    -54.5048042 -0.199972E-05  0.791E-02    3.68       1.0  T
   3    -54.5048005  0.373494E-05  0.112E-02    3.68       1.5  T
   4    -54.5048050 -0.445203E-05  0.251E-03    3.68       6.6  T
   5    -54.5048051 -0.125327E-06  0.127E-03    3.68      12.9  T
   6    -54.5048051 -0.108450E-07  0.546E-04    3.68      30.1  T
   7    -54.5048051 -0.494975E-08  0.140E-04    3.68     117.6  T
     SCC iter.                  ...        0 min,  0.015 sec
     gradient                   ...        0 min,  0.004 sec
 * total energy  :   -53.6522815 Eh     change       -0.3170271E-03 Eh
   gradient norm :     0.0053738 Eh/α   predicted    -0.2669738E-03 ( -15.79%)
   displ. norm   :     0.3964412 α      lambda       -0.3251417E-03
   maximum displ.:     0.2829948 α      in ANC's #2, #3, #1, ...

........................................................................
.............................. CYCLE   15 ..............................
........................................................................

 iter      E             dE          RMSdq      gap      omega  full diag
   1    -54.5076278 -0.545076E+02  0.107E-01    3.70       0.0  T
   2    -54.5076291 -0.123316E-05  0.634E-02    3.70       1.0  T
   3    -54.5076258  0.325928E-05  0.969E-03    3.70       1.7  T
   4    -54.5076297 -0.384813E-05  0.209E-03    3.70       7.9  T
   5    -54.5076297 -0.737158E-07  0.108E-03    3.70      15.2  T
   6    -54.5076297 -0.597328E-08  0.459E-04    3.70      35.8  T
   7    -54.5076298 -0.355758E-08  0.135E-04    3.70     121.6  T
     SCC iter.                  ...        0 min,  0.015 sec
     gradient                   ...        0 min,  0.003 sec
 * total energy  :   -53.6525288 Eh     change       -0.2472610E-03 Eh
   gradient norm :     0.0060862 Eh/α   predicted    -0.1881229E-03 ( -23.92%)
   displ. norm   :     0.5417466 α      lambda       -0.3760140E-03
   maximum displ.:     0.3251281 α      in ANC's #2, #3, #5, ...

........................................................................
.............................. CYCLE   16 ..............................
........................................................................

 iter      E             dE          RMSdq      gap      omega  full diag
   1    -54.4996980 -0.544997E+02  0.162E-01    3.69       0.0  T
   2    -54.4997011 -0.312247E-05  0.956E-02    3.69       1.0  T
   3    -54.4996943  0.688418E-05  0.142E-02    3.69       1.2  T
   4    -54.4997026 -0.828640E-05  0.341E-03    3.69       4.8  T
   5    -54.4997027 -0.138094E-06  0.195E-03    3.69       8.4  T
   6    -54.4997027 -0.381309E-07  0.857E-04    3.69      19.2  T
   7    -54.4997027 -0.855984E-08  0.274E-04    3.69      60.1  T
     SCC iter.                  ...        0 min,  0.015 sec
     gradient                   ...        0 min,  0.005 sec
 * total energy  :   -53.6526228 Eh     change       -0.9405676E-04 Eh
   gradient norm :     0.0105788 Eh/α   predicted    -0.2431859E-03 ( 158.55%)
   displ. norm   :     0.2492647 α      lambda       -0.4685869E-03
   maximum displ.:     0.1915221 α      in ANC's #2, #1, #56, ...

........................................................................
.............................. CYCLE   17 ..............................
........................................................................

 iter      E             dE          RMSdq      gap      omega  full diag
   1    -54.5100089 -0.545100E+02  0.623E-02    3.73       0.0  T
   2    -54.5100097 -0.859101E-06  0.370E-02    3.73       1.0  T
   3    -54.5100085  0.126166E-05  0.674E-03    3.73       2.4  T
   4    -54.5100100 -0.153499E-05  0.178E-03    3.73       9.2  T
   5    -54.5100101 -0.588741E-07  0.100E-03    3.73      16.4  T
   6    -54.5100101 -0.955881E-08  0.336E-04    3.73      48.9  T
   7    -54.5100101 -0.998895E-09  0.123E-04    3.73     133.5  T
     SCC iter.                  ...        0 min,  0.018 sec
     gradient                   ...        0 min,  0.008 sec
 * total energy  :   -53.6528886 Eh     change       -0.2657076E-03 Eh
   gradient norm :     0.0057462 Eh/α   predicted    -0.2488515E-03 (  -6.34%)
   displ. norm   :     0.4011313 α      lambda       -0.2940127E-03
   maximum displ.:     0.2754562 α      in ANC's #2, #3, #1, ...

........................................................................
.............................. CYCLE   18 ..............................
........................................................................

 iter      E             dE          RMSdq      gap      omega  full diag
   1    -54.5086622 -0.545087E+02  0.116E-01    3.73       0.0  T
   2    -54.5086642 -0.207624E-05  0.683E-02    3.73       1.0  T
   3    -54.5086617  0.258121E-05  0.937E-03    3.73       1.8  T
   4    -54.5086649 -0.320105E-05  0.252E-03    3.73       6.5  T
   5    -54.5086650 -0.114613E-06  0.136E-03    3.73      12.1  T
   6    -54.5086650 -0.166493E-07  0.665E-04    3.73      24.7  T
   7    -54.5086650 -0.511515E-08  0.185E-04    3.73      88.7  T
     SCC iter.                  ...        0 min,  0.031 sec
     gradient                   ...        0 min,  0.004 sec
 * total energy  :   -53.6529360 Eh     change       -0.4745667E-04 Eh
   gradient norm :     0.0111442 Eh/α   predicted    -0.1706621E-03 ( 259.62%)
   displ. norm   :     0.1578865 α      lambda       -0.2576052E-03
   maximum displ.:     0.1209091 α      in ANC's #2, #1, #8, ...

........................................................................
.............................. CYCLE   19 ..............................
........................................................................

 iter      E             dE          RMSdq      gap      omega  full diag
   1    -54.5097472 -0.545097E+02  0.386E-02    3.74       0.0  T
   2    -54.5097479 -0.632212E-06  0.226E-02    3.74       1.0  T
   3    -54.5097476  0.240610E-06  0.390E-03    3.74       4.2  T
   4    -54.5097480 -0.383915E-06  0.117E-03    3.74      14.0  T
   5    -54.5097480 -0.134373E-07  0.618E-04    3.74      26.6  T
   6    -54.5097480 -0.640718E-09  0.334E-04    3.74      49.3  T
     SCC iter.                  ...        0 min,  0.017 sec
     gradient                   ...        0 min,  0.003 sec
 * total energy  :   -53.6531132 Eh     change       -0.1771870E-03 Eh
   gradient norm :     0.0050979 Eh/α   predicted    -0.1320159E-03 ( -25.49%)
   displ. norm   :     0.3238195 α      lambda       -0.1710206E-03
   maximum displ.:     0.2425944 α      in ANC's #2, #1, #3, ...

........................................................................
.............................. CYCLE   20 ..............................
........................................................................

 iter      E             dE          RMSdq      gap      omega  full diag
   1    -54.5094612 -0.545095E+02  0.782E-02    3.76       0.0  T
   2    -54.5094619 -0.653527E-06  0.460E-02    3.76       1.0  T
   3    -54.5094618  0.871873E-07  0.310E-03    3.76       5.3  T
   4    -54.5094621 -0.294635E-06  0.123E-03    3.76      13.3  T
   5    -54.5094621 -0.176644E-07  0.540E-04    3.76      30.5  T
   6    -54.5094621 -0.662936E-09  0.224E-04    3.76      73.4  T
     SCC iter.                  ...        0 min,  0.013 sec
     gradient                   ...        0 min,  0.005 sec
 * total energy  :   -53.6532318 Eh     change       -0.1186217E-03 Eh
   gradient norm :     0.0047241 Eh/α   predicted    -0.9447811E-04 ( -20.35%)
   displ. norm   :     0.4253565 α      lambda       -0.1935032E-03
   maximum displ.:     0.3205734 α      in ANC's #2, #1, #3, ...
 * RMSD in coord.:     1.0407604 α      energy gain  -0.3409864E-01 Eh

generating ANC from exact Hessian ...
Using Lindh-Hessian (1995)
 Shifting diagonal of input Hessian by   9.410562967764326E-003
 Lowest  eigenvalues of input Hessian
    0.000000    0.000000    0.000000    0.000000    0.000000    0.000000
    0.010000    0.010323    0.010555    0.011046    0.011389    0.012125
    0.013027    0.013579    0.014564    0.015461    0.015841    0.017386
 Highest eigenvalues
    1.901934    1.923082    2.007557    2.011870    2.023155    2.058646
 

........................................................................
.............................. CYCLE   21 ..............................
........................................................................

 iter      E             dE          RMSdq      gap      omega  full diag
   1    -54.5098609 -0.545099E+02  0.103E-01    3.77       0.0  T
   2    -54.5098619 -0.983320E-06  0.608E-02    3.77       1.0  T
   3    -54.5098608  0.113458E-05  0.683E-03    3.77       2.4  T
   4    -54.5098624 -0.157451E-05  0.142E-03    3.77      11.6  T
   5    -54.5098624 -0.798319E-08  0.667E-04    3.77      24.6  T
   6    -54.5098624 -0.129085E-08  0.290E-04    3.77      56.6  T
     SCC iter.                  ...        0 min,  0.013 sec
     gradient                   ...        0 min,  0.005 sec
 * total energy  :   -53.6533281 Eh     change       -0.9627570E-04 Eh
   gradient norm :     0.0056870 Eh/α   predicted     0.0000000E+00 (-100.00%)
   displ. norm   :     0.0602449 α      lambda       -0.1092670E-03
   maximum displ.:     0.0304910 α      in ANC's #9, #11, #4, ...

........................................................................
.............................. CYCLE   22 ..............................
........................................................................

 iter      E             dE          RMSdq      gap      omega  full diag
   1    -54.5096271 -0.545096E+02  0.270E-02    3.78       0.0  T
   2    -54.5096273 -0.244379E-06  0.161E-02    3.78       1.0  T
   3    -54.5096260  0.132373E-05  0.696E-03    3.78       2.4  T
   4    -54.5096275 -0.150308E-05  0.987E-04    3.78      16.7  T
   5    -54.5096275 -0.203143E-07  0.460E-04    3.78      35.7  T
   6    -54.5096275 -0.136998E-08  0.234E-04    3.78      70.4  T
     SCC iter.                  ...        0 min,  0.013 sec
     gradient                   ...        0 min,  0.005 sec
 * total energy  :   -53.6534083 Eh     change       -0.8024981E-04 Eh
   gradient norm :     0.0021816 Eh/α   predicted    -0.5509614E-04 ( -31.34%)
   displ. norm   :     0.1273990 α      lambda       -0.1058150E-03
   maximum displ.:     0.0645528 α      in ANC's #9, #11, #4, ...

........................................................................
.............................. CYCLE   23 ..............................
........................................................................

 iter      E             dE          RMSdq      gap      omega  full diag
   1    -54.5093037 -0.545093E+02  0.444E-02    3.78       0.0  T
   2    -54.5093040 -0.365243E-06  0.264E-02    3.78       1.0  T
   3    -54.5093031  0.933421E-06  0.571E-03    3.78       2.9  T
   4    -54.5093042 -0.110563E-05  0.133E-03    3.78      12.3  T
   5    -54.5093042 -0.201001E-07  0.739E-04    3.78      22.3  T
   6    -54.5093042 -0.602275E-08  0.282E-04    3.78      58.4  T
     SCC iter.                  ...        0 min,  0.013 sec
     gradient                   ...        0 min,  0.006 sec
 * total energy  :   -53.6534795 Eh     change       -0.7117555E-04 Eh
   gradient norm :     0.0025471 Eh/α   predicted    -0.5377588E-04 ( -24.45%)
   displ. norm   :     0.1526719 α      lambda       -0.7491250E-04
   maximum displ.:     0.0770500 α      in ANC's #9, #11, #4, ...

........................................................................
.............................. CYCLE   24 ..............................
........................................................................

 iter      E             dE          RMSdq      gap      omega  full diag
   1    -54.5090506 -0.545091E+02  0.481E-02    3.78       0.0  T
   2    -54.5090509 -0.336163E-06  0.287E-02    3.78       1.0  T
   3    -54.5090500  0.908719E-06  0.565E-03    3.78       2.9  T
   4    -54.5090510 -0.106397E-05  0.128E-03    3.78      12.8  T
   5    -54.5090511 -0.160507E-07  0.641E-04    3.78      25.6  T
   6    -54.5090511 -0.531259E-08  0.264E-04    3.78      62.3  T
     SCC iter.                  ...        0 min,  0.013 sec
     gradient                   ...        0 min,  0.005 sec
 * total energy  :   -53.6535336 Eh     change       -0.5410875E-04 Eh
   gradient norm :     0.0037021 Eh/α   predicted    -0.3833127E-04 ( -29.16%)
   displ. norm   :     0.1766892 α      lambda       -0.6906915E-04
   maximum displ.:     0.0818389 α      in ANC's #9, #4, #1, ...

........................................................................
.............................. CYCLE   25 ..............................
........................................................................

 iter      E             dE          RMSdq      gap      omega  full diag
   1    -54.5090733 -0.545091E+02  0.548E-02    3.79       0.0  T
   2    -54.5090736 -0.290926E-06  0.325E-02    3.79       1.0  T
   3    -54.5090735  0.551498E-07  0.237E-03    3.79       6.9  T
   4    -54.5090737 -0.148615E-06  0.109E-03    3.79      15.0  T
   5    -54.5090737 -0.126489E-07  0.447E-04    3.79      36.7  T
   6    -54.5090737 -0.121465E-08  0.248E-04    3.79      66.3  T
     SCC iter.                  ...        0 min,  0.013 sec
     gradient                   ...        0 min,  0.005 sec
 * total energy  :   -53.6535816 Eh     change       -0.4799904E-04 Eh
   gradient norm :     0.0034956 Eh/α   predicted    -0.3561579E-04 ( -25.80%)
   displ. norm   :     0.1308747 α      lambda       -0.5127976E-04
   maximum displ.:     0.0599079 α      in ANC's #1, #3, #4, ...

........................................................................
.............................. CYCLE   26 ..............................
........................................................................

 iter      E             dE          RMSdq      gap      omega  full diag
   1    -54.5098067 -0.545098E+02  0.432E-02    3.79       0.0  T
   2    -54.5098068 -0.119521E-06  0.254E-02    3.79       1.0  T
   3    -54.5098068  0.412558E-07  0.181E-03    3.79       9.1  T
   4    -54.5098069 -0.879564E-07  0.644E-04    3.79      25.5  T
   5    -54.5098069 -0.224296E-08  0.356E-04    3.79      46.2  T
     SCC iter.                  ...        0 min,  0.011 sec
     gradient                   ...        0 min,  0.005 sec
 * total energy  :   -53.6536208 Eh     change       -0.3915668E-04 Eh
   gradient norm :     0.0021915 Eh/α   predicted    -0.2608018E-04 ( -33.40%)
   displ. norm   :     0.1602826 α      lambda       -0.5155629E-04
   maximum displ.:     0.0761975 α      in ANC's #1, #3, #2, ...

........................................................................
.............................. CYCLE   27 ..............................
........................................................................

 iter      E             dE          RMSdq      gap      omega  full diag
   1    -54.5103368 -0.545103E+02  0.558E-02    3.79       0.0  T
   2    -54.5103370 -0.227560E-06  0.328E-02    3.79       1.0  T
   3    -54.5103369  0.622524E-07  0.218E-03    3.79       7.5  T
   4    -54.5103371 -0.137827E-06  0.744E-04    3.79      22.1  T
   5    -54.5103371 -0.506116E-08  0.356E-04    3.79      46.2  T
     SCC iter.                  ...        0 min,  0.011 sec
     gradient                   ...        0 min,  0.004 sec
 * total energy  :   -53.6536604 Eh     change       -0.3958243E-04 Eh
   gradient norm :     0.0019684 Eh/α   predicted    -0.2644068E-04 ( -33.20%)
   displ. norm   :     0.3062989 α      lambda       -0.4717881E-04
   maximum displ.:     0.1502603 α      in ANC's #3, #1, #2, ...

........................................................................
.............................. CYCLE   28 ..............................
........................................................................

 iter      E             dE          RMSdq      gap      omega  full diag
   1    -54.5096362 -0.545096E+02  0.109E-01    3.79       0.0  T
   2    -54.5096369 -0.744654E-06  0.642E-02    3.79       1.0  T
   3    -54.5096362  0.705229E-06  0.539E-03    3.79       3.1  T
   4    -54.5096372 -0.100225E-05  0.155E-03    3.79      10.6  T
   5    -54.5096373 -0.225556E-07  0.898E-04    3.79      18.3  T
   6    -54.5096373 -0.102187E-07  0.370E-04    3.79      44.5  T
     SCC iter.                  ...        0 min,  0.013 sec
     gradient                   ...        0 min,  0.003 sec
 * total energy  :   -53.6537082 Eh     change       -0.4785801E-04 Eh
   gradient norm :     0.0025986 Eh/α   predicted    -0.2457347E-04 ( -48.65%)
   displ. norm   :     0.1159925 α      lambda       -0.2824070E-04
   maximum displ.:     0.0629142 α      in ANC's #3, #1, #5, ...

........................................................................
.............................. CYCLE   29 ..............................
........................................................................

 iter      E             dE          RMSdq      gap      omega  full diag
   1    -54.5100818 -0.545101E+02  0.443E-02    3.79       0.0  T
   2    -54.5100819 -0.118438E-06  0.260E-02    3.80       1.0  T
   3    -54.5100817  0.286103E-06  0.302E-03    3.79       5.4  T
   4    -54.5100820 -0.344763E-06  0.604E-04    3.80      27.2  T
   5    -54.5100820 -0.448964E-08  0.315E-04    3.80      52.2  T
     SCC iter.                  ...        0 min,  0.011 sec
     gradient                   ...        0 min,  0.005 sec
 * total energy  :   -53.6537314 Eh     change       -0.2313136E-04 Eh
   gradient norm :     0.0023065 Eh/α   predicted    -0.1431056E-04 ( -38.13%)
   displ. norm   :     0.1839487 α      lambda       -0.3800369E-04
   maximum displ.:     0.1002449 α      in ANC's #3, #1, #5, ...

........................................................................
.............................. CYCLE   30 ..............................
........................................................................

 iter      E             dE          RMSdq      gap      omega  full diag
   1    -54.5098533 -0.545099E+02  0.698E-02    3.80       0.0  T
   2    -54.5098536 -0.286463E-06  0.410E-02    3.80       1.0  T
   3    -54.5098522  0.139284E-05  0.653E-03    3.80       2.5  T
   4    -54.5098538 -0.160232E-05  0.986E-04    3.80      16.7  T
   5    -54.5098538 -0.744014E-08  0.545E-04    3.80      30.2  T
   6    -54.5098538 -0.288568E-08  0.188E-04    3.80      87.6  T
     SCC iter.                  ...        0 min,  0.013 sec
     gradient                   ...        0 min,  0.005 sec
 * total energy  :   -53.6537606 Eh     change       -0.2925359E-04 Eh
   gradient norm :     0.0016309 Eh/α   predicted    -0.1964528E-04 ( -32.84%)
   displ. norm   :     0.2618199 α      lambda       -0.3079294E-04
   maximum displ.:     0.1499970 α      in ANC's #3, #5, #1, ...

........................................................................
.............................. CYCLE   31 ..............................
........................................................................

 iter      E             dE          RMSdq      gap      omega  full diag
   1    -54.5100872 -0.545101E+02  0.101E-01    3.80       0.0  T
   2    -54.5100877 -0.542526E-06  0.592E-02    3.80       1.0  T
   3    -54.5100857  0.204100E-05  0.800E-03    3.80       2.1  T
   4    -54.5100881 -0.239333E-05  0.130E-03    3.80      12.6  T
   5    -54.5100881 -0.156159E-07  0.687E-04    3.80      23.9  T
   6    -54.5100881 -0.277345E-08  0.253E-04    3.80      65.0  T
     SCC iter.                  ...        0 min,  0.013 sec
     gradient                   ...        0 min,  0.005 sec
 * total energy  :   -53.6537919 Eh     change       -0.3132370E-04 Eh
   gradient norm :     0.0025982 Eh/α   predicted    -0.1586609E-04 ( -49.35%)
   displ. norm   :     0.1330090 α      lambda       -0.2146224E-04
   maximum displ.:     0.0778740 α      in ANC's #3, #5, #1, ...

........................................................................
.............................. CYCLE   32 ..............................
........................................................................

 iter      E             dE          RMSdq      gap      omega  full diag
   1    -54.5101172 -0.545101E+02  0.501E-02    3.81       0.0  T
   2    -54.5101174 -0.143992E-06  0.294E-02    3.81       1.0  T
   3    -54.5101171  0.237920E-06  0.293E-03    3.81       5.6  T
   4    -54.5101174 -0.306575E-06  0.698E-04    3.81      23.5  T
   5    -54.5101174 -0.474672E-08  0.351E-04    3.81      46.8  T
     SCC iter.                  ...        0 min,  0.011 sec
     gradient                   ...        0 min,  0.003 sec
 * total energy  :   -53.6538099 Eh     change       -0.1792146E-04 Eh
   gradient norm :     0.0020463 Eh/α   predicted    -0.1092112E-04 ( -39.06%)
   displ. norm   :     0.2146910 α      lambda       -0.3504435E-04
   maximum displ.:     0.1287158 α      in ANC's #3, #5, #1, ...

........................................................................
.............................. CYCLE   33 ..............................
........................................................................

 iter      E             dE          RMSdq      gap      omega  full diag
   1    -54.5106660 -0.545107E+02  0.792E-02    3.82       0.0  T
   2    -54.5106664 -0.364681E-06  0.465E-02    3.82       1.0  T
   3    -54.5106660  0.368124E-06  0.391E-03    3.82       4.2  T
   4    -54.5106666 -0.520069E-06  0.108E-03    3.82      15.3  T
   5    -54.5106666 -0.129789E-07  0.581E-04    3.82      28.3  T
   6    -54.5106666 -0.416485E-08  0.224E-04    3.82      73.4  T
     SCC iter.                  ...        0 min,  0.013 sec
     gradient                   ...        0 min,  0.004 sec
 * total energy  :   -53.6538341 Eh     change       -0.2419627E-04 Eh
   gradient norm :     0.0010388 Eh/α   predicted    -0.1833171E-04 ( -24.24%)
   displ. norm   :     0.2127027 α      lambda       -0.1301089E-04
   maximum displ.:     0.1306287 α      in ANC's #3, #5, #1, ...

........................................................................
.............................. CYCLE   34 ..............................
........................................................................

 iter      E             dE          RMSdq      gap      omega  full diag
   1    -54.5102063 -0.545102E+02  0.769E-02    3.83       0.0  T
   2    -54.5102066 -0.368078E-06  0.452E-02    3.83       1.0  T
   3    -54.5102062  0.395658E-06  0.400E-03    3.83       4.1  T
   4    -54.5102068 -0.546456E-06  0.109E-03    3.83      15.1  T
   5    -54.5102068 -0.128951E-07  0.592E-04    3.83      27.8  T
   6    -54.5102068 -0.468786E-08  0.220E-04    3.83      74.6  T
     SCC iter.                  ...        0 min,  0.013 sec
     gradient                   ...        0 min,  0.005 sec
 * total energy  :   -53.6538442 Eh     change       -0.1010957E-04 Eh
   gradient norm :     0.0010202 Eh/α   predicted    -0.6640678E-05 ( -34.31%)
   displ. norm   :     0.0384823 α      lambda       -0.5496691E-05
   maximum displ.:     0.0235987 α      in ANC's #9, #7, #5, ...

........................................................................
.............................. CYCLE   35 ..............................
........................................................................

 iter      E             dE          RMSdq      gap      omega  full diag
   1    -54.5112367 -0.545112E+02  0.114E-02    3.83       0.0  T
   2    -54.5112367 -0.233017E-07  0.673E-03    3.83       2.4  T
   3    -54.5112367  0.372874E-07  0.115E-03    3.83      14.4  T
   4    -54.5112367 -0.467322E-07  0.192E-04    3.83      85.6  T
   5    -54.5112367 -0.232156E-09  0.126E-04    3.83     130.4  T
     SCC iter.                  ...        0 min,  0.011 sec
     gradient                   ...        0 min,  0.005 sec
 * total energy  :   -53.6538484 Eh     change       -0.4192189E-05 Eh
   gradient norm :     0.0010623 Eh/α   predicted    -0.2750476E-05 ( -34.39%)
   displ. norm   :     0.0490574 α      lambda       -0.5155885E-05
   maximum displ.:     0.0275941 α      in ANC's #3, #7, #6, ...

........................................................................
.............................. CYCLE   36 ..............................
........................................................................

 iter      E             dE          RMSdq      gap      omega  full diag
   1    -54.5106939 -0.545107E+02  0.141E-02    3.83       0.0  T
   2    -54.5106940 -0.362691E-07  0.840E-03    3.83       2.0  T
   3    -54.5106939  0.121212E-06  0.191E-03    3.83       8.6  T
   4    -54.5106940 -0.138476E-06  0.404E-04    3.83      40.7  T
   5    -54.5106940 -0.266057E-08  0.220E-04    3.83      74.7  T
     SCC iter.                  ...        0 min,  0.010 sec
     gradient                   ...        0 min,  0.005 sec
 * total energy  :   -53.6538532 Eh     change       -0.4819224E-05 Eh
   gradient norm :     0.0005711 Eh/α   predicted    -0.2581312E-05 ( -46.44%)
   displ. norm   :     0.0266456 α      lambda       -0.1631052E-05
   maximum displ.:     0.0153643 α      in ANC's #3, #6, #4, ...

   *** GEOMETRY OPTIMIZATION CONVERGED AFTER 36 ITERATIONS ***

------------------------------------------------------------------------
 total energy gain   :        -0.0347200 Eh      -21.7871 kcal/mol
 total RMSD          :         1.1231598 a0        0.5944 Å
 total power (kW/mol):        -2.5321479 (step) -106.4859 (real)
------------------------------------------------------------------------

 ANCopt (total)                0 d,  0 h,  0 min,  0.856 sec
 optimizer setup                ...        0 min,  0.000 sec (  0.014%)
 model hessian                  ...        0 min,  0.051 sec (  5.972%)
 ANC generation                 ...        0 min,  0.005 sec (  0.612%)
 coordinate transformation      ...        0 min,  0.001 sec (  0.064%)
 single point calculation       ...        0 min,  0.750 sec ( 87.600%)
 optimization log               ...        0 min,  0.025 sec (  2.925%)
 hessian update                 ...        0 min,  0.011 sec (  1.342%)
 rational function              ...        0 min,  0.006 sec (  0.711%)

================
 final structure:
================
37
 xtb: 6.7.1 (edcfbbe)
C           -0.92966651837075       -1.31399349479343       -2.20845115043513
O           -0.05206042590986       -0.54365689564406       -1.41638454655316
C           -0.39824387911088       -0.44084593180279       -0.05477697649317
C            0.70089775327607        0.39467888057481        0.59978292166910
C            2.05984819110076        0.24344844796340        0.05774196520964
C            2.54997525845304       -1.00224713399015       -0.32640133553829
C            3.83868196574843       -1.12826666503069       -0.81040758076469
C            4.65493798498820       -0.01593960936877       -0.92586720626495
C            4.17312294388769        1.22836477905247       -0.55541791172875
C            2.88686129684073        1.35776255174232       -0.06682209113133
C            0.44607992744325        1.18317538820281        1.63886829692338
O           -0.43020683817216       -1.76937063726586        0.47122347953576
C           -0.22529434398939       -1.91715661162530        1.85396658628015
C           -1.75784553487886        0.24054309087397        0.07369638260089
C           -1.88830935924665        1.54747726487256       -0.38408448544643
C           -3.11283145094027        2.18587454730783       -0.33082446509737
C           -4.22038603233435        1.52492823777737        0.17615187204464
C           -4.09948068367014        0.21799686334431        0.61259158700411
C           -2.87453883906923       -0.42618666752134        0.55439238034933
H           -0.48588520673155       -1.32816433456954       -3.20177700764053
H           -1.01321892093829       -2.33314062538649       -1.82421949034066
H           -1.92686161796350       -0.86253050894092       -2.25594069617042
H            1.91867857316948       -1.87292932715823       -0.24460466813213
H            4.20848979399833       -2.10083600495406       -1.10182018395979
H            5.66036244393714       -0.11670135250727       -1.30804640946807
H            4.80163384777862        2.10208136947753       -0.65143621417468
H            2.50899118451951        2.33288313685445        0.20383081882988
H           -0.54381563681718        1.30505944125548        2.04471492630308
H            1.23469074321799        1.73089790665818        2.12615502565018
H           -0.44267090819755       -2.96325126684811        2.06735097680664
H           -0.89559059436806       -1.27906571686220        2.43840186143556
H            0.80918474460976       -1.69573356131724        2.13858501298975
H           -1.02259908782530        2.05137725180482       -0.78742830649872
H           -3.20497847899998        3.20094756027106       -0.68831656339505
H           -5.17637931033931        2.02563846135802        0.22117676244368
H           -4.96212201508668       -0.30838125071399        0.99396317766105
H           -2.78945097001072       -1.45473958307914        0.87043225548632
 
 Bond Distances (Angstroems)
 ---------------------------
C1-O2=1.4110         C1-H20=1.0880        C1-H21=1.0924        C1-H22=1.0957        O2-C1=1.4110         O2-C3=1.4087         
C3-O2=1.4087         C3-C4=1.5280         C3-O12=1.4292        C3-C14=1.5262        C4-C3=1.5280         C4-C5=1.4709         
C4-C11=1.3290        C5-C4=1.4709         C5-C6=1.3927         C5-C10=1.3933        C6-C5=1.3927         C6-C7=1.3824         
C6-H23=1.0786        C7-C6=1.3824         C7-C8=1.3845         C7-H24=1.0805        C8-C7=1.3845         C8-C9=1.3848         
C8-H25=1.0803        C9-C8=1.3848         C9-C10=1.3820        C9-H26=1.0806        C10-C5=1.3933        C10-C9=1.3820        
C10-H27=1.0802       C11-C4=1.3290        C11-H28=1.0768       C11-H29=1.0767       O12-C3=1.4292        O12-C13=1.4056       
C13-O12=1.4056       C13-H30=1.0895       C13-H31=1.0945       C13-H32=1.0955       C14-C3=1.5262        C14-C15=1.3909       
C14-C19=1.3866       C15-C14=1.3909       C15-C16=1.3820       C15-H33=1.0798       C16-C15=1.3820       C16-C17=1.3858       
C16-H34=1.0801       C17-C16=1.3858       C17-C18=1.3832       C17-H35=1.0801       C18-C17=1.3832       C18-C19=1.3852       
C18-H36=1.0801       C19-C14=1.3866       C19-C18=1.3852       C19-H37=1.0794       H20-C1=1.0880        H21-C1=1.0924        
H22-C1=1.0957        H23-C6=1.0786        H24-C7=1.0805        H25-C8=1.0803        H26-C9=1.0806        H27-C10=1.0802       
H28-C11=1.0768       H29-C11=1.0767       H30-C13=1.0895       H31-C13=1.0945       H32-C13=1.0955       H33-C15=1.0798       
H34-C16=1.0801       H35-C17=1.0801       H36-C18=1.0801       H37-C19=1.0794       
 C  H  Rav=1.0838 sigma=0.0065  Rmin=1.0767  Rmax=1.0957    18
 C  C  Rav=1.4055 sigma=0.0527  Rmin=1.3290  Rmax=1.5280    16
 O  C  Rav=1.4136 sigma=0.0092  Rmin=1.4056  Rmax=1.4292     4
 
 selected bond angles (degree)
 --------------------
H20-C1-O2=105.42               H21-C1-O2=111.07               H21-C1-H20=109.89              H22-C1-O2=111.44               
H22-C1-H20=109.69              H22-C1-H21=109.27              C3-O2-C1=115.44                C4-C3-O2=106.09                
O12-C3-O2=107.06               O12-C3-C4=111.51               C14-C3-O2=109.44               C14-C3-C4=111.14               
C14-C3-O12=111.35              C5-C4-C3=116.78                C11-C4-C3=121.43               C11-C4-C5=121.75               
C6-C5-C4=121.25                C10-C5-C4=119.94               C10-C5-C6=118.80               C7-C6-C5=120.41                
H23-C6-C5=119.68               H23-C6-C7=119.91               C8-C7-C6=120.37                H24-C7-C6=119.71               
H24-C7-C8=119.92               C9-C8-C7=119.63                H25-C8-C7=120.22               H25-C8-C9=120.15               
C10-C9-C8=120.17               H26-C9-C8=120.03               H26-C9-C10=119.81              C9-C10-C5=120.61               
H27-C10-C5=119.47              H27-C10-C9=119.91              
 
 selected dihedral angles (degree)
 ---------------------------------
C3-O2-C1-H20=182.91           C3-O2-C1-H21=301.89           C3-O2-C1-H22= 63.97           C4-C3-O2-C1=178.49            
O12-C3-O2-C1= 59.29           C14-C3-O2-C1=298.48           C5-C4-C3-O2=326.54            C5-C4-C3-O12= 82.77           
C5-C4-C3-C14=207.66           C11-C4-C3-O2=148.84           C11-C4-C3-O12=265.07          C11-C4-C3-C14= 29.96          
C6-C5-C4-C3=320.37            C6-C5-C4-C11=138.07           C10-C5-C4-C3=141.00           C10-C5-C4-C11=318.69          
C7-C6-C5-C4=181.21            C7-C6-C5-C10=  0.59           H23-C6-C5-C4=  1.19           H23-C6-C5-C10=180.57          
C8-C7-C6-C5=359.64            C8-C7-C6-H23=179.67           H24-C7-C6-C5=179.78           H24-C7-C6-H23=359.80          
C9-C8-C7-C6=359.89            C9-C8-C7-H24=179.76           H25-C8-C7-C6=180.24           H25-C8-C7-H24=  0.10          
C10-C9-C8-C7=  0.33           C10-C9-C8-H25=179.98          H26-C9-C8-C7=180.56           H26-C9-C8-H25=  0.22          
C9-C10-C5-C4=179.02           C9-C10-C5-C6=359.63           H27-C10-C5-C4=357.81          H27-C10-C5-C6=178.42          
C5-C10-C9-C8=359.92           C5-C10-C9-H26=179.68          H27-C10-C9-C8=181.12          H27-C10-C9-H26=  0.89         
           -------------------------------------------------
          |                Final Singlepoint                |
           -------------------------------------------------

          ...................................................
          :                      SETUP                      :
          :.................................................:
          :  # basis functions                  94          :
          :  # atomic orbitals                  94          :
          :  # shells                           56          :
          :  # electrons                        98          :
          :  max. iterations                   250          :
          :  Hamiltonian                  GFN2-xTB          :
          :  restarted?                      false          :
          :  GBSA solvation                  false          :
          :  PC potential                    false          :
          :  electronic temp.          300.0000000     K    :
          :  accuracy                    1.0000000          :
          :  -> integral cutoff          0.2500000E+02      :
          :  -> integral neglect         0.1000000E-07      :
          :  -> SCF convergence          0.1000000E-05 Eh   :
          :  -> wf. convergence          0.1000000E-03 e    :
          :  Broyden damping             0.4000000          :
          :  net charge                          0          :
          :  unpaired electrons                  0          :
          ...................................................

 iter      E             dE          RMSdq      gap      omega  full diag
   1    -54.5106940 -0.545107E+02  0.825E-05    3.83       0.0  T
   2    -54.5106940 -0.369909E-10  0.567E-05    3.83     290.1  T
   3    -54.5106940 -0.343192E-10  0.344E-05    3.83     478.3  T

   *** convergence criteria satisfied after 3 iterations ***

         #    Occupation            Energy/Eh            Energy/eV
      -------------------------------------------------------------
         1        2.0000           -0.7056125             -19.2007
       ...           ...                  ...                  ...
        43        2.0000           -0.4145678             -11.2810
        44        2.0000           -0.4068336             -11.0705
        45        2.0000           -0.4056530             -11.0384
        46        2.0000           -0.4032354             -10.9726
        47        2.0000           -0.3977285             -10.8227
        48        2.0000           -0.3901347             -10.6161
        49        2.0000           -0.3844706             -10.4620 (HOMO)
        50                         -0.2436686              -6.6306 (LUMO)
        51                         -0.2282904              -6.2121
        52                         -0.2251831              -6.1275
        53                         -0.2156719              -5.8687
        54                         -0.1873207              -5.0973
       ...                                ...                  ...
        94                          0.6790176              18.4770
      -------------------------------------------------------------
                  HL-Gap            0.1408020 Eh            3.8314 eV
             Fermi-level           -0.3140696 Eh           -8.5463 eV

 SCC (total)                   0 d,  0 h,  0 min,  0.014 sec
 SCC setup                      ...        0 min,  0.000 sec (  1.352%)
 Dispersion                     ...        0 min,  0.000 sec (  1.343%)
 classical contributions        ...        0 min,  0.000 sec (  0.275%)
 integral evaluation            ...        0 min,  0.001 sec (  9.400%)
 iterations                     ...        0 min,  0.007 sec ( 47.498%)
 molecular gradient             ...        0 min,  0.004 sec ( 29.347%)
 printout                       ...        0 min,  0.001 sec ( 10.575%)

         :::::::::::::::::::::::::::::::::::::::::::::::::::::
         ::                     SUMMARY                     ::
         :::::::::::::::::::::::::::::::::::::::::::::::::::::
         :: total energy             -53.653853172056 Eh    ::
         :: gradient norm              0.000571022831 Eh/a0 ::
         :: HOMO-LUMO gap              3.831417268193 eV    ::
         ::.................................................::
         :: SCC energy               -54.510121164643 Eh    ::
         :: -> isotropic ES            0.041153955615 Eh    ::
         :: -> anisotropic ES          0.003252061623 Eh    ::
         :: -> anisotropic XC          0.024940724952 Eh    ::
         :: -> dispersion             -0.041669651156 Eh    ::
         :: repulsion energy           0.856267992588 Eh    ::
         :: add. restraining           0.000000000000 Eh    ::
         :: total charge               0.000000000000 e     ::
         :::::::::::::::::::::::::::::::::::::::::::::::::::::

           -------------------------------------------------
          |                Property Printout                |
           -------------------------------------------------

    * Orbital Energies and Occupations

         #    Occupation            Energy/Eh            Energy/eV
      -------------------------------------------------------------
         1        2.0000           -0.7056125             -19.2007
       ...           ...                  ...                  ...
        37        2.0000           -0.4531007             -12.3295
        38        2.0000           -0.4440927             -12.0844
        39        2.0000           -0.4372015             -11.8969
        40        2.0000           -0.4292541             -11.6806
        41        2.0000           -0.4238758             -11.5342
        42        2.0000           -0.4209488             -11.4546
        43        2.0000           -0.4145678             -11.2810
        44        2.0000           -0.4068336             -11.0705
        45        2.0000           -0.4056530             -11.0384
        46        2.0000           -0.4032354             -10.9726
        47        2.0000           -0.3977285             -10.8227
        48        2.0000           -0.3901347             -10.6161
        49        2.0000           -0.3844706             -10.4620 (HOMO)
        50                         -0.2436686              -6.6306 (LUMO)
        51                         -0.2282904              -6.2121
        52                         -0.2251831              -6.1275
        53                         -0.2156719              -5.8687
        54                         -0.1873207              -5.0973
        55                         -0.0988248              -2.6892
        56                         -0.0817721              -2.2251
        57                          0.0204845               0.5574
        58                          0.0382871               1.0418
        59                          0.0566629               1.5419
        60                          0.1031443               2.8067
       ...                                ...                  ...
        94                          0.6790176              18.4770
      -------------------------------------------------------------
                  HL-Gap            0.1408020 Eh            3.8314 eV
             Fermi-level           -0.3140696 Eh           -8.5463 eV

     #   Z          covCN         q      C6AA      α(0)
     1   6 C        3.643     0.043    20.187     6.459
     2   8 O        1.702    -0.314    19.238     5.922
     3   6 C        3.692     0.264    16.723     5.851
     4   6 C        2.948    -0.003    28.090     8.693
     5   6 C        2.979     0.021    27.543     8.609
     6   6 C        2.924    -0.025    28.634     8.775
     7   6 C        2.919    -0.029    28.731     8.790
     8   6 C        2.920    -0.030    28.757     8.794
     9   6 C        2.919    -0.030    28.744     8.792
    10   6 C        2.926    -0.033    28.821     8.804
    11   6 C        2.846    -0.095    30.370     9.032
    12   8 O        1.699    -0.336    19.632     5.982
    13   6 C        3.636     0.048    20.135     6.456
    14   6 C        2.971    -0.015    28.379     8.738
    15   6 C        2.924    -0.030    28.746     8.792
    16   6 C        2.920    -0.029    28.726     8.789
    17   6 C        2.920    -0.030    28.760     8.794
    18   6 C        2.920    -0.031    28.775     8.797
    19   6 C        2.922    -0.032    28.797     8.800
    20   1 H        0.925     0.058     2.221     2.331
    21   1 H        0.924     0.047     2.355     2.400
    22   1 H        0.924     0.028     2.615     2.529
    23   1 H        0.926     0.050     2.318     2.381
    24   1 H        0.926     0.031     2.574     2.509
    25   1 H        0.926     0.030     2.593     2.518
    26   1 H        0.926     0.030     2.589     2.516
    27   1 H        0.926     0.031     2.568     2.506
    28   1 H        0.926     0.037     2.488     2.467
    29   1 H        0.926     0.048     2.344     2.394
    30   1 H        0.925     0.058     2.225     2.333
    31   1 H        0.924     0.029     2.602     2.523
    32   1 H        0.924     0.031     2.574     2.509
    33   1 H        0.926     0.036     2.500     2.472
    34   1 H        0.926     0.034     2.534     2.489
    35   1 H        0.926     0.033     2.548     2.496
    36   1 H        0.926     0.033     2.550     2.497
    37   1 H        0.926     0.043     2.403     2.424

 Mol. C6AA /au·bohr⁶  :      15630.873755
 Mol. C8AA /au·bohr⁸  :     373150.614213
 Mol. α(0) /au        :        197.964275


Wiberg/Mayer (AO) data.
largest (>0.10) Wiberg bond orders for each atom

 ---------------------------------------------------------------------------
     #   Z sym  total        # sym  WBO       # sym  WBO       # sym  WBO
 ---------------------------------------------------------------------------
     1   6 C    3.947 --     2 O    0.983    20 H    0.980    21 H    0.979
                            22 H    0.978
     2   8 O    2.092 --     1 C    0.983     3 C    0.971
     3   6 C    3.919 --     2 O    0.971    14 C    0.955     4 C    0.947
                            12 O    0.936
     4   6 C    3.984 --    11 C    1.893     5 C    1.048     3 C    0.947
     5   6 C    3.989 --     6 C    1.387    10 C    1.385     4 C    1.048
                             8 C    0.105
     6   6 C    3.990 --     7 C    1.450     5 C    1.387    23 H    0.967
                             9 C    0.108
     7   6 C    3.992 --     6 C    1.450     8 C    1.436    24 H    0.971
                            10 C    0.108
     8   6 C    3.992 --     7 C    1.436     9 C    1.433    25 H    0.972
                             5 C    0.105
     9   6 C    3.992 --    10 C    1.453     8 C    1.433    26 H    0.971
                             6 C    0.108
    10   6 C    3.991 --     9 C    1.453     5 C    1.385    27 H    0.969
                             7 C    0.108
    11   6 C    3.989 --     4 C    1.893    28 H    0.973    29 H    0.973
    12   8 O    2.076 --    13 C    0.992     3 C    0.936
    13   6 C    3.951 --    12 O    0.992    30 H    0.979    31 H    0.977
                            32 H    0.976
    14   6 C    3.986 --    19 C    1.426    15 C    1.404     3 C    0.955
                            17 C    0.111
    15   6 C    3.992 --    16 C    1.454    14 C    1.404    33 H    0.969
                            18 C    0.113
    16   6 C    3.992 --    15 C    1.454    17 C    1.431    34 H    0.971
                            19 C    0.110
    17   6 C    3.992 --    18 C    1.447    16 C    1.431    35 H    0.971
                            14 C    0.111
    18   6 C    3.992 --    17 C    1.447    19 C    1.433    36 H    0.971
                            15 C    0.113
    19   6 C    3.991 --    18 C    1.433    14 C    1.426    37 H    0.967
                            16 C    0.110
    20   1 H    0.996 --     1 C    0.980
    21   1 H    0.998 --     1 C    0.979
    22   1 H    0.999 --     1 C    0.978
    23   1 H    0.997 --     6 C    0.967
    24   1 H    0.998 --     7 C    0.971
    25   1 H    0.999 --     8 C    0.972
    26   1 H    0.999 --     9 C    0.971
    27   1 H    0.999 --    10 C    0.969
    28   1 H    0.998 --    11 C    0.973
    29   1 H    0.997 --    11 C    0.973
    30   1 H    0.996 --    13 C    0.979
    31   1 H    0.999 --    13 C    0.977
    32   1 H    0.999 --    13 C    0.976
    33   1 H    0.999 --    15 C    0.969
    34   1 H    0.998 --    16 C    0.971
    35   1 H    0.998 --    17 C    0.971
    36   1 H    0.998 --    18 C    0.971
    37   1 H    0.998 --    19 C    0.967
 ---------------------------------------------------------------------------

Topologies differ in total number of bonds
Writing topology from bond orders to xtbtopo.mol

molecular dipole:
                 x           y           z       tot (Debye)
 q only:       -0.214       0.046       0.366
   full:       -0.359       0.085       0.488       1.555
molecular quadrupole (traceless):
                xx          xy          yy          xz          yz          zz
 q only:        1.030       0.077      -1.122       0.699      -0.277       0.092
  q+dip:        4.832      -0.053       1.890      -2.642      -0.617      -6.722
   full:        2.082       0.148      -0.279      -0.115      -0.598      -1.803

           -------------------------------------------------
          |                Geometry Summary                 |
           -------------------------------------------------

      molecular mass/u    :      254.3242536
   center of mass at/Å    :        0.0496101       0.0314989      -0.0598610
  moments of inertia/u·Å² :        0.6206951E+03   0.2040240E+04   0.2178949E+04
rotational constants/cm⁻¹ :        0.2715928E-01   0.8262573E-02   0.7736587E-02

 * 35 selected distances

     #   Z          #   Z                                           value/Å
     1   6 C        2   8 O                                       1.4110212
     2   8 O        3   6 C                                       1.4086833
     5   6 C        6   6 C                                       1.3926767
     6   6 C        7   6 C                                       1.3823561
     7   6 C        8   6 C                                       1.3845131
     8   6 C        9   6 C                                       1.3848004
     5   6 C       10   6 C                                       1.3932563
     9   6 C       10   6 C                                       1.3820054
     4   6 C       11   6 C                                       1.3290439
     3   6 C       12   8 O                                       1.4292223 (max)
    12   8 O       13   6 C                                       1.4056346
    14   6 C       15   6 C                                       1.3909211
    15   6 C       16   6 C                                       1.3819705
    16   6 C       17   6 C                                       1.3858400
    17   6 C       18   6 C                                       1.3831731
    14   6 C       19   6 C                                       1.3865791
    18   6 C       19   6 C                                       1.3852229
     1   6 C       20   1 H                                       1.0880437
     1   6 C       21   1 H                                       1.0923718
     1   6 C       22   1 H                                       1.0956607
     6   6 C       23   1 H                                       1.0785703
     7   6 C       24   1 H                                       1.0805417
     8   6 C       25   1 H                                       1.0803205
     9   6 C       26   1 H                                       1.0805676
    10   6 C       27   1 H                                       1.0802311
    11   6 C       28   1 H                                       1.0767825
    11   6 C       29   1 H                                       1.0767337 (min)
    13   6 C       30   1 H                                       1.0895411
    13   6 C       31   1 H                                       1.0945419
    13   6 C       32   1 H                                       1.0955287
    15   6 C       33   1 H                                       1.0798407
    16   6 C       34   1 H                                       1.0801227
    17   6 C       35   1 H                                       1.0801210
    18   6 C       36   1 H                                       1.0801243
    19   6 C       37   1 H                                       1.0793713

 * 3 distinct bonds (by element types)

   Z      Z             #   av. dist./Å        max./Å        min./Å
   1 H    6 C          18     1.0838342     1.0956607     1.0767337
   6 C    6 C          13     1.3817199     1.3932563     1.3290439
   6 C    8 O           4     1.4136404     1.4292223     1.4056346


optimized geometry written to: xtbopt.xyz


           -------------------------------------------------
          | TOTAL ENERGY              -53.653853172056 Eh   |
          | GRADIENT NORM               0.000571022831 Eh/α |
          | HOMO-LUMO GAP               3.831417268193 eV   |
           -------------------------------------------------

------------------------------------------------------------------------
 * finished run on 2025/12/01 at 14:18:35.752     
------------------------------------------------------------------------
 total:
 * wall-time:     0 d,  0 h,  0 min,  0.928 sec
 *  cpu-time:     0 d,  0 h,  0 min, 20.940 sec
 * ratio c/w:    22.566 speedup
 SCF:
 * wall-time:     0 d,  0 h,  0 min,  0.040 sec
 *  cpu-time:     0 d,  0 h,  0 min,  0.903 sec
 * ratio c/w:    22.638 speedup
 ANC optimizer:
 * wall-time:     0 d,  0 h,  0 min,  0.871 sec
 *  cpu-time:     0 d,  0 h,  0 min, 19.828 sec
 * ratio c/w:    22.765 speedup

normal termination of xtb
