      -----------------------------------------------------------      
     |                   =====================                   |     
     |                           x T B                           |     
     |                   =====================                   |     
     |                         S. Grimme                         |     
     |          Mulliken Center for Theoretical Chemistry        |     
     |                    University of Bonn                     |     
      -----------------------------------------------------------      

   * xtb version 6.7.1 (edcfbbe) compiled by 'albert@albert-system' on 2024-07-22

   xtb is free software: you can redistribute it and/or modify it under
   the terms of the GNU Lesser General Public License as published by
   the Free Software Foundation, either version 3 of the License, or
   (at your option) any later version.
   
   xtb is distributed in the hope that it will be useful,
   but WITHOUT ANY WARRANTY; without even the implied warranty of
   MERCHANTABILITY or FITNESS FOR A PARTICULAR PURPOSE.  See the
   GNU Lesser General Public License for more details.
   
   Cite this work as:
   * C. Bannwarth, E. Caldeweyher, S. Ehlert, A. Hansen, P. Pracht,
     J. Seibert, S. Spicher, S. Grimme, WIREs Comput. Mol. Sci., 2020, 11,
     e01493. DOI: 10.1002/wcms.1493
   
   for GFN2-xTB:
   * C. Bannwarth, S. Ehlert and S. Grimme., J. Chem. Theory Comput., 2019,
     15, 1652-1671. DOI: 10.1021/acs.jctc.8b01176
   for GFN1-xTB:
   * S. Grimme, C. Bannwarth, P. Shushkov, J. Chem. Theory Comput., 2017,
     13, 1989-2009. DOI: 10.1021/acs.jctc.7b00118
   for GFN0-xTB:
   * P. Pracht, E. Caldeweyher, S. Ehlert, S. Grimme, ChemRxiv, 2019, preprint.
     DOI: 10.26434/chemrxiv.8326202.v1
   for GFN-FF:
   * S. Spicher and S. Grimme, Angew. Chem. Int. Ed., 2020, 59, 15665-15673.
     DOI: 10.1002/anie.202004239
   
   for ALPB and GBSA implicit solvation:
   * S. Ehlert, M. Stahn, S. Spicher, S. Grimme, J. Chem. Theory Comput.,
     2021, 17, 4250-4261. DOI: 10.1021/acs.jctc.1c00471
   
   for ddCOSMO and CPCM-X implicit solvation:
   * M. Stahn, S. Ehlert, S. Grimme, J. Phys. Chem. A,
     2023, XX, XXXX-XXXX. DOI: 10.1021/acs.jpca.3c04382
   
   for DFT-D4:
   * E. Caldeweyher, C. Bannwarth and S. Grimme, J. Chem. Phys., 2017,
     147, 034112. DOI: 10.1063/1.4993215
   * E. Caldeweyher, S. Ehlert, A. Hansen, H. Neugebauer, S. Spicher,
     C. Bannwarth and S. Grimme, J. Chem. Phys., 2019, 150, 154122.
     DOI: 10.1063/1.5090222
   * E. Caldeweyher, J.-M. Mewes, S. Ehlert and S. Grimme, Phys. Chem. Chem. Phys.
     2020, 22, 8499-8512. DOI: 10.1039/D0CP00502A
   
   for sTDA-xTB:
   * S. Grimme and C. Bannwarth, J. Chem. Phys., 2016, 145, 054103.
     DOI: 10.1063/1.4959605
   
   in the mass-spec context:
   * V. Asgeirsson, C. Bauer and S. Grimme, Chem. Sci., 2017, 8, 4879.
     DOI: 10.1039/c7sc00601b
   * J. Koopman and S. Grimme, ACS Omega 2019, 4, 12, 15120-15133.
     DOI: 10.1021/acsomega.9b02011
   
   for metadynamics refer to:
   * S. Grimme, J. Chem. Theory Comput., 2019, 155, 2847-2862
     DOI: 10.1021/acs.jctc.9b00143
   
   for SPH calculations refer to:
   * S. Spicher and S. Grimme, J. Chem. Theory Comput., 2021, 17, 1701-1714
     DOI: 10.1021/acs.jctc.0c01306
   
   for ONIOM refer to:
   * C. Plett, A. Katbashev, S. Ehlert, S. Grimme, M. Bursch,
     Phys. Chem. Chem. Phys., 2023, 25, 17860-17868. DOI: 10.1039/D3CP02178E
   
   for DIPRO refer to:
   * J. Kohn, N. Gildemeister, S. Grimme, D. Fazzi, A. Hansen,
     J. Chem. Phys., 2023, just accepted.
   
   for PTB refer to:
   * S. Grimme, M. Mueller, A. Hansen, J. Chem. Phys., 2023, 158, 124111.
     DOI: 10.1063/5.0137838
   
   with help from (in alphabetical order)
   P. Atkinson, C. Bannwarth, F. Bohle, G. Brandenburg, E. Caldeweyher
   M. Checinski, S. Dohm, S. Ehlert, S. Ehrlich, I. Gerasimov, C. Hölzer
   A. Katbashev, J. Kohn, J. Koopman, C. Lavigne, S. Lehtola, F. März, M. Müller,
   F. Musil, H. Neugebauer, J. Pisarek, C. Plett, P. Pracht, F. Pultar,
   J. Seibert, P. Shushkov, S. Spicher, M. Stahn, M. Steiner, T. Strunk,
   J. Stückrath, T. Rose, and J. Unsleber
   
 * started run on 2025/12/01 at 14:18:35.798     
   ID    Z sym.   atoms
    1    6 C      1, 3-11, 13-19
    2    8 O      2, 12
    3    1 H      20-37

           -------------------------------------------------
          |                Calculation Setup                |
           -------------------------------------------------

          program call               : xtb pipeline_data/3_conformer_xyz/acrylates/rdkit/OQCIXXVMXBXDSC-UHFFFAOYSA-N_conf37.xyz --opt --gfn 2-xTB --iterations 250
          coordinate file            : pipeline_data/3_conformer_xyz/acrylates/rdkit/OQCIXXVMXBXDSC-UHFFFAOYSA-N_conf37.xyz
          omp threads                :                    24

########################################################################
[WARNING] Please study the warnings concerning your input carefully
-1- readin_getIntValue: could not parse '2-xTB'
########################################################################

           -------------------------------------------------
          |                 G F N 2 - x T B                 |
           -------------------------------------------------

        Reference                      10.1021/acs.jctc.8b01176
      * Hamiltonian:
        H0-scaling (s, p, d)           1.850000    2.230000    2.230000
        zeta-weighting                 0.500000
      * Dispersion:
        s8                             2.700000
        a1                             0.520000
        a2                             5.000000
        s9                             5.000000
      * Repulsion:
        kExp                           1.500000    1.000000
        rExp                           1.000000
      * Coulomb:
        alpha                          2.000000
        third order                    shell-resolved
        anisotropic                    true
        a3                             3.000000
        a5                             4.000000
        cn-shift                       1.200000
        cn-exp                         4.000000
        max-rad                        5.000000

q/qsh data taken from xtbrestart
CAMM data taken from xtbrestart

          ...................................................
          :                      SETUP                      :
          :.................................................:
          :  # basis functions                  94          :
          :  # atomic orbitals                  94          :
          :  # shells                           56          :
          :  # electrons                        98          :
          :  max. iterations                   250          :
          :  Hamiltonian                  GFN2-xTB          :
          :  restarted?                       true          :
          :  GBSA solvation                  false          :
          :  PC potential                    false          :
          :  electronic temp.          300.0000000     K    :
          :  accuracy                    1.0000000          :
          :  -> integral cutoff          0.2500000E+02      :
          :  -> integral neglect         0.1000000E-07      :
          :  -> SCF convergence          0.1000000E-05 Eh   :
          :  -> wf. convergence          0.1000000E-03 e    :
          :  Broyden damping             0.4000000          :
          :  net charge                          0          :
          :  unpaired electrons                  0          :
          ...................................................

 iter      E             dE          RMSdq      gap      omega  full diag
   1    -54.4763300 -0.544763E+02  0.472E+00    2.96       0.0  T
   2    -54.4855274 -0.919738E-02  0.278E+00    3.47       1.0  T
   3    -54.4766674  0.886001E-02  0.541E-01    3.64       1.0  T
   4    -54.4890970 -0.124296E-01  0.160E-01    3.65       1.0  T
   5    -54.4893110 -0.213979E-03  0.776E-02    3.64       1.0  T
   6    -54.4893213 -0.103052E-04  0.295E-02    3.64       1.0  T
   7    -54.4893352 -0.138906E-04  0.965E-03    3.64       1.7  T
   8    -54.4893361 -0.937229E-06  0.485E-03    3.64       3.4  T
   9    -54.4893363 -0.217826E-06  0.304E-03    3.64       5.4  T
  10    -54.4893364 -0.118075E-06  0.882E-04    3.64      18.6  T
  11    -54.4893365 -0.141027E-07  0.446E-04    3.64      36.9  T

   *** convergence criteria satisfied after 11 iterations ***

         #    Occupation            Energy/Eh            Energy/eV
      -------------------------------------------------------------
         1        2.0000           -0.7188850             -19.5619
       ...           ...                  ...                  ...
        43        2.0000           -0.4125054             -11.2248
        44        2.0000           -0.4094721             -11.1423
        45        2.0000           -0.4074549             -11.0874
        46        2.0000           -0.4036453             -10.9837
        47        2.0000           -0.3950546             -10.7500
        48        2.0000           -0.3874299             -10.5425
        49        2.0000           -0.3837047             -10.4411 (HOMO)
        50                         -0.2498546              -6.7989 (LUMO)
        51                         -0.2288635              -6.2277
        52                         -0.2271433              -6.1809
        53                         -0.2160428              -5.8788
        54                         -0.1756031              -4.7784
       ...                                ...                  ...
        94                          0.7111139              19.3504
      -------------------------------------------------------------
                  HL-Gap            0.1338501 Eh            3.6422 eV
             Fermi-level           -0.3167797 Eh           -8.6200 eV

 SCC (total)                   0 d,  0 h,  0 min,  0.107 sec
 SCC setup                      ...        0 min,  0.001 sec (  0.636%)
 Dispersion                     ...        0 min,  0.002 sec (  2.124%)
 classical contributions        ...        0 min,  0.001 sec (  0.476%)
 integral evaluation            ...        0 min,  0.003 sec (  2.382%)
 iterations                     ...        0 min,  0.097 sec ( 90.442%)
 molecular gradient             ...        0 min,  0.004 sec (  3.380%)
 printout                       ...        0 min,  0.001 sec (  0.511%)

         :::::::::::::::::::::::::::::::::::::::::::::::::::::
         ::                     SUMMARY                     ::
         :::::::::::::::::::::::::::::::::::::::::::::::::::::
         :: total energy             -53.620927793952 Eh    ::
         :: gradient norm              0.127538042466 Eh/a0 ::
         :: HOMO-LUMO gap              3.642246164155 eV    ::
         ::.................................................::
         :: SCC energy               -54.488889728123 Eh    ::
         :: -> isotropic ES            0.037914306218 Eh    ::
         :: -> anisotropic ES          0.005301202636 Eh    ::
         :: -> anisotropic XC          0.023264876932 Eh    ::
         :: -> dispersion             -0.042576386482 Eh    ::
         :: repulsion energy           0.867961934171 Eh    ::
         :: add. restraining           0.000000000000 Eh    ::
         :: total charge               0.000000000000 e     ::
         :::::::::::::::::::::::::::::::::::::::::::::::::::::

      ----------------------------------------------------------- 
     |                   =====================                   |
     |                        A N C O P T                        |
     |                   =====================                   |
     |               Approximate Normal Coordinate               |
     |                Rational Function Optimizer                |
      ----------------------------------------------------------- 
      ----------------------------------------------------------- 
     |                   =====================                   |
     |                        A N C O P T                        |
     |                   =====================                   |
     |               Approximate Normal Coordinate               |
     |                Rational Function Optimizer                |
      ----------------------------------------------------------- 

          ...................................................
          :                      SETUP                      :
          :.................................................:
          :   optimization level            normal          :
          :   max. optcycles                   200          :
          :   ANC micro-cycles                  20          :
          :   degrees of freedom               105          :
          :.................................................:
          :   RF solver                   davidson          :
          :   write xtbopt.log                true          :
          :   linear?                        false          :
          :   energy convergence         0.5000000E-05 Eh   :
          :   grad. convergence          0.1000000E-02 Eh/α :
          :   maxmium RF displ.          1.0000000          :
          :   Hlow (freq-cutoff)         0.1000000E-01      :
          :   Hmax (freq-cutoff)         5.0000000          :
          :   S6 in model hess.         20.0000000          :
          ...................................................

generating ANC from exact Hessian ...
Using Lindh-Hessian (1995)
 Shifting diagonal of input Hessian by   9.422093535842110E-003
 Lowest  eigenvalues of input Hessian
    0.000000    0.000000    0.000000    0.000000    0.000000    0.000000
    0.010000    0.010217    0.010563    0.011058    0.011834    0.012168
    0.013201    0.013575    0.014776    0.015537    0.015799    0.016727
 Highest eigenvalues
    1.918479    1.972970    2.020365    2.063994    2.070937    2.088938
 

........................................................................
.............................. CYCLE    1 ..............................
........................................................................

 iter      E             dE          RMSdq      gap      omega  full diag
   1    -54.4893365 -0.544893E+02  0.132E-04    3.64       0.0  T
   2    -54.4893365 -0.749196E-10  0.821E-05    3.64     200.2  T
   3    -54.4893365  0.107576E-10  0.486E-05    3.64     338.3  T
     SCC iter.                  ...        0 min,  0.013 sec
     gradient                   ...        0 min,  0.009 sec
 * total energy  :   -53.6209278 Eh     change       -0.1672724E-08 Eh
   gradient norm :     0.1275388 Eh/α   predicted     0.0000000E+00 (-100.00%)
   displ. norm   :     0.3435100 α      lambda       -0.2727670E-01
   maximum displ.:     0.1106162 α      in ANC's #15, #45, #50, ...

........................................................................
.............................. CYCLE    2 ..............................
........................................................................

 iter      E             dE          RMSdq      gap      omega  full diag
   1    -54.4977458 -0.544977E+02  0.288E-01    3.57       0.0  T
   2    -54.4979705 -0.224679E-03  0.190E-01    3.57       1.0  T
   3    -54.4977778  0.192702E-03  0.110E-01    3.58       1.0  T
   4    -54.4980990 -0.321174E-03  0.288E-02    3.57       1.0  T
   5    -54.4981185 -0.195466E-04  0.817E-03    3.57       2.0  T
   6    -54.4981198 -0.129209E-05  0.345E-03    3.57       4.8  T
   7    -54.4981201 -0.273137E-06  0.118E-03    3.57      13.9  T
   8    -54.4981201 -0.630591E-08  0.524E-04    3.57      31.3  T
   9    -54.4981201 -0.276486E-08  0.158E-04    3.57     104.3  T
     SCC iter.                  ...        0 min,  0.034 sec
     gradient                   ...        0 min,  0.006 sec
 * total energy  :   -53.6396412 Eh     change       -0.1871343E-01 Eh
   gradient norm :     0.0538774 Eh/α   predicted    -0.1524813E-01 ( -18.52%)
   displ. norm   :     0.3267427 α      lambda       -0.8362769E-02
   maximum displ.:     0.1335219 α      in ANC's #15, #12, #10, ...

........................................................................
.............................. CYCLE    3 ..............................
........................................................................

 iter      E             dE          RMSdq      gap      omega  full diag
   1    -54.4983498 -0.544983E+02  0.199E-01    3.55       0.0  T
   2    -54.4984511 -0.101328E-03  0.124E-01    3.55       1.0  T
   3    -54.4983581  0.930289E-04  0.641E-02    3.55       1.0  T
   4    -54.4984833 -0.125252E-03  0.182E-02    3.55       1.0  T
   5    -54.4984912 -0.783690E-05  0.612E-03    3.55       2.7  T
   6    -54.4984920 -0.798751E-06  0.233E-03    3.55       7.1  T
   7    -54.4984921 -0.136762E-06  0.831E-04    3.55      19.8  T
   8    -54.4984921 -0.247262E-08  0.334E-04    3.55      49.2  T
     SCC iter.                  ...        0 min,  0.030 sec
     gradient                   ...        0 min,  0.005 sec
 * total energy  :   -53.6446765 Eh     change       -0.5035277E-02 Eh
   gradient norm :     0.0152078 Eh/α   predicted    -0.4632284E-02 (  -8.00%)
   displ. norm   :     0.2782648 α      lambda       -0.1560629E-02
   maximum displ.:     0.1469211 α      in ANC's #5, #10, #15, ...

........................................................................
.............................. CYCLE    4 ..............................
........................................................................

 iter      E             dE          RMSdq      gap      omega  full diag
   1    -54.4962237 -0.544962E+02  0.104E-01    3.56       0.0  T
   2    -54.4962300 -0.635896E-05  0.618E-02    3.56       1.0  T
   3    -54.4962115  0.185320E-04  0.230E-02    3.56       1.0  T
   4    -54.4962327 -0.212128E-04  0.439E-03    3.56       3.7  T
   5    -54.4962331 -0.329708E-06  0.229E-03    3.56       7.2  T
   6    -54.4962332 -0.110986E-06  0.766E-04    3.56      21.5  T
   7    -54.4962332 -0.660754E-08  0.407E-04    3.56      40.4  T
     SCC iter.                  ...        0 min,  0.027 sec
     gradient                   ...        0 min,  0.005 sec
 * total energy  :   -53.6457725 Eh     change       -0.1095982E-02 Eh
   gradient norm :     0.0090923 Eh/α   predicted    -0.8407788E-03 ( -23.29%)
   displ. norm   :     0.3299083 α      lambda       -0.9553616E-03
   maximum displ.:     0.2050416 α      in ANC's #5, #10, #12, ...

........................................................................
.............................. CYCLE    5 ..............................
........................................................................

 iter      E             dE          RMSdq      gap      omega  full diag
   1    -54.4951245 -0.544951E+02  0.107E-01    3.56       0.0  T
   2    -54.4951264 -0.189314E-05  0.633E-02    3.57       1.0  T
   3    -54.4951211  0.530897E-05  0.129E-02    3.57       1.3  T
   4    -54.4951273 -0.622098E-05  0.278E-03    3.57       5.9  T
   5    -54.4951274 -0.602098E-07  0.151E-03    3.57      10.9  T
   6    -54.4951274 -0.428467E-07  0.662E-04    3.57      24.8  T
   7    -54.4951274 -0.404515E-08  0.215E-04    3.57      76.4  T
     SCC iter.                  ...        0 min,  0.019 sec
     gradient                   ...        0 min,  0.004 sec
 * total energy  :   -53.6464434 Eh     change       -0.6709266E-03 Eh
   gradient norm :     0.0093878 Eh/α   predicted    -0.5296739E-03 ( -21.05%)
   displ. norm   :     0.3243916 α      lambda       -0.6375297E-03
   maximum displ.:     0.2174883 α      in ANC's #5, #10, #8, ...

........................................................................
.............................. CYCLE    6 ..............................
........................................................................

 iter      E             dE          RMSdq      gap      omega  full diag
   1    -54.4959515 -0.544960E+02  0.106E-01    3.57       0.0  T
   2    -54.4959531 -0.162110E-05  0.629E-02    3.57       1.0  T
   3    -54.4959458  0.728094E-05  0.150E-02    3.57       1.1  T
   4    -54.4959540 -0.815519E-05  0.275E-03    3.57       6.0  T
   5    -54.4959541 -0.130525E-06  0.128E-03    3.57      12.9  T
   6    -54.4959541 -0.697236E-08  0.579E-04    3.57      28.4  T
   7    -54.4959541 -0.405768E-08  0.194E-04    3.57      84.5  T
     SCC iter.                  ...        0 min,  0.030 sec
     gradient                   ...        0 min,  0.009 sec
 * total energy  :   -53.6469514 Eh     change       -0.5079671E-03 Eh
   gradient norm :     0.0093035 Eh/α   predicted    -0.3523094E-03 ( -30.64%)
   displ. norm   :     0.4288628 α      lambda       -0.7678761E-03
   maximum displ.:     0.2829061 α      in ANC's #5, #3, #10, ...

........................................................................
.............................. CYCLE    7 ..............................
........................................................................

 iter      E             dE          RMSdq      gap      omega  full diag
   1    -54.4974575 -0.544975E+02  0.149E-01    3.56       0.0  T
   2    -54.4974604 -0.287665E-05  0.879E-02    3.56       1.0  T
   3    -54.4974434  0.169988E-04  0.229E-02    3.56       1.0  T
   4    -54.4974623 -0.189045E-04  0.335E-03    3.56       4.9  T
   5    -54.4974625 -0.183539E-06  0.162E-03    3.56      10.2  T
   6    -54.4974625 -0.137237E-07  0.727E-04    3.56      22.6  T
   7    -54.4974625 -0.419178E-08  0.315E-04    3.56      52.2  T
     SCC iter.                  ...        0 min,  0.020 sec
     gradient                   ...        0 min,  0.005 sec
 * total energy  :   -53.6475899 Eh     change       -0.6385380E-03 Eh
   gradient norm :     0.0084116 Eh/α   predicted    -0.4545554E-03 ( -28.81%)
   displ. norm   :     0.5686932 α      lambda       -0.9184146E-03
   maximum displ.:     0.3647246 α      in ANC's #5, #3, #8, ...

........................................................................
.............................. CYCLE    8 ..............................
........................................................................

 iter      E             dE          RMSdq      gap      omega  full diag
   1    -54.4979640 -0.544980E+02  0.209E-01    3.56       0.0  T
   2    -54.4979677 -0.366342E-05  0.123E-01    3.56       1.0  T
   3    -54.4979563  0.113313E-04  0.189E-02    3.56       1.0  T
   4    -54.4979695 -0.131782E-04  0.385E-03    3.56       4.3  T
   5    -54.4979697 -0.200711E-06  0.202E-03    3.56       8.2  T
   6    -54.4979697 -0.311966E-07  0.900E-04    3.56      18.3  T
   7    -54.4979697 -0.778630E-08  0.345E-04    3.56      47.6  T
     SCC iter.                  ...        0 min,  0.028 sec
     gradient                   ...        0 min,  0.004 sec
 * total energy  :   -53.6483579 Eh     change       -0.7680008E-03 Eh
   gradient norm :     0.0101402 Eh/α   predicted    -0.6077269E-03 ( -20.87%)
   displ. norm   :     0.6290055 α      lambda       -0.9427714E-03
   maximum displ.:     0.3922551 α      in ANC's #5, #3, #8, ...

........................................................................
.............................. CYCLE    9 ..............................
........................................................................

 iter      E             dE          RMSdq      gap      omega  full diag
   1    -54.4979494 -0.544979E+02  0.236E-01    3.56       0.0  T
   2    -54.4979523 -0.286225E-05  0.139E-01    3.56       1.0  T
   3    -54.4979507  0.163832E-05  0.901E-03    3.56       1.8  T
   4    -54.4979537 -0.305194E-05  0.309E-03    3.56       5.3  T
   5    -54.4979537 -0.320115E-07  0.186E-03    3.56       8.8  T
   6    -54.4979538 -0.464065E-07  0.748E-04    3.56      22.0  T
   7    -54.4979538 -0.967390E-08  0.256E-04    3.56      64.1  T
     SCC iter.                  ...        0 min,  0.016 sec
     gradient                   ...        0 min,  0.004 sec
 * total energy  :   -53.6491380 Eh     change       -0.7800743E-03 Eh
   gradient norm :     0.0127492 Eh/α   predicted    -0.6578891E-03 ( -15.66%)
   displ. norm   :     0.6146569 α      lambda       -0.9055912E-03
   maximum displ.:     0.3543186 α      in ANC's #5, #3, #2, ...

........................................................................
.............................. CYCLE   10 ..............................
........................................................................

 iter      E             dE          RMSdq      gap      omega  full diag
   1    -54.4982299 -0.544982E+02  0.226E-01    3.57       0.0  T
   2    -54.4982329 -0.297756E-05  0.133E-01    3.57       1.0  T
   3    -54.4982247  0.814769E-05  0.161E-02    3.57       1.0  T
   4    -54.4982346 -0.990853E-05  0.332E-03    3.57       4.9  T
   5    -54.4982347 -0.103355E-06  0.193E-03    3.57       8.5  T
   6    -54.4982348 -0.277585E-07  0.709E-04    3.57      23.2  T
   7    -54.4982348 -0.872566E-08  0.240E-04    3.57      68.5  T
     SCC iter.                  ...        0 min,  0.016 sec
     gradient                   ...        0 min,  0.004 sec
 * total energy  :   -53.6498876 Eh     change       -0.7496174E-03 Eh
   gradient norm :     0.0133266 Eh/α   predicted    -0.6238661E-03 ( -16.78%)
   displ. norm   :     0.5432740 α      lambda       -0.1083171E-02
   maximum displ.:     0.2868483 α      in ANC's #3, #5, #2, ...

........................................................................
.............................. CYCLE   11 ..............................
........................................................................

 iter      E             dE          RMSdq      gap      omega  full diag
   1    -54.5088969 -0.545089E+02  0.202E-01    3.61       0.0  T
   2    -54.5089062 -0.923549E-05  0.119E-01    3.61       1.0  T
   3    -54.5088786  0.275414E-04  0.296E-02    3.61       1.0  T
   4    -54.5089095 -0.308476E-04  0.551E-03    3.61       3.0  T
   5    -54.5089101 -0.619257E-06  0.237E-03    3.61       6.9  T
   6    -54.5089101 -0.488719E-07  0.118E-03    3.61      13.9  T
   7    -54.5089102 -0.123269E-07  0.435E-04    3.61      37.8  T
   8    -54.5089102 -0.245556E-08  0.154E-04    3.61     106.8  T
     SCC iter.                  ...        0 min,  0.018 sec
     gradient                   ...        0 min,  0.004 sec
 * total energy  :   -53.6503617 Eh     change       -0.4741042E-03 Eh
   gradient norm :     0.0160431 Eh/α   predicted    -0.7014463E-03 (  47.95%)
   displ. norm   :     0.5900096 α      lambda       -0.1480904E-02
   maximum displ.:     0.2673905 α      in ANC's #5, #3, #2, ...

........................................................................
.............................. CYCLE   12 ..............................
........................................................................

 iter      E             dE          RMSdq      gap      omega  full diag
   1    -54.5014198 -0.545014E+02  0.203E-01    3.64       0.0  T
   2    -54.5014309 -0.110913E-04  0.119E-01    3.64       1.0  T
   3    -54.5014115  0.194263E-04  0.257E-02    3.64       1.0  T
   4    -54.5014336 -0.221318E-04  0.676E-03    3.64       2.4  T
   5    -54.5014346 -0.989175E-06  0.276E-03    3.64       6.0  T
   6    -54.5014346 -0.168599E-07  0.147E-03    3.64      11.2  T
   7    -54.5014347 -0.327944E-07  0.272E-04    3.64      60.4  T
   8    -54.5014347 -0.132157E-08  0.122E-04    3.64     134.3  T
     SCC iter.                  ...        0 min,  0.030 sec
     gradient                   ...        0 min,  0.016 sec
 * total energy  :   -53.6510373 Eh     change       -0.6755991E-03 Eh
   gradient norm :     0.0145026 Eh/α   predicted    -0.9982170E-03 (  47.75%)
   displ. norm   :     0.2903687 α      lambda       -0.5510685E-03
   maximum displ.:     0.1576409 α      in ANC's #3, #2, #5, ...

........................................................................
.............................. CYCLE   13 ..............................
........................................................................

 iter      E             dE          RMSdq      gap      omega  full diag
   1    -54.4987707 -0.544988E+02  0.108E-01    3.63       0.0  T
   2    -54.4987723 -0.169691E-05  0.635E-02    3.63       1.0  T
   3    -54.4987696  0.278850E-05  0.928E-03    3.63       1.8  T
   4    -54.4987729 -0.331672E-05  0.237E-03    3.63       6.9  T
   5    -54.4987730 -0.111933E-06  0.112E-03    3.63      14.7  T
   6    -54.4987730 -0.711761E-08  0.551E-04    3.63      29.8  T
   7    -54.4987730 -0.417278E-08  0.149E-04    3.63     110.0  T
     SCC iter.                  ...        0 min,  0.033 sec
     gradient                   ...        0 min,  0.009 sec
 * total energy  :   -53.6514336 Eh     change       -0.3962540E-03 Eh
   gradient norm :     0.0100128 Eh/α   predicted    -0.2987668E-03 ( -24.60%)
   displ. norm   :     0.2981624 α      lambda       -0.8911472E-03
   maximum displ.:     0.2255329 α      in ANC's #2, #1, #9, ...

........................................................................
.............................. CYCLE   14 ..............................
........................................................................

 iter      E             dE          RMSdq      gap      omega  full diag
   1    -54.5111369 -0.545111E+02  0.909E-02    3.66       0.0  T
   2    -54.5111436 -0.678607E-05  0.543E-02    3.66       1.0  T
   3    -54.5111341  0.952726E-05  0.189E-02    3.66       1.0  T
   4    -54.5111452 -0.110455E-04  0.527E-03    3.66       3.1  T
   5    -54.5111459 -0.706924E-06  0.185E-03    3.66       8.9  T
   6    -54.5111459 -0.198841E-07  0.960E-04    3.66      17.1  T
   7    -54.5111459 -0.653507E-08  0.371E-04    3.66      44.4  T
     SCC iter.                  ...        0 min,  0.014 sec
     gradient                   ...        0 min,  0.004 sec
 * total energy  :   -53.6517507 Eh     change       -0.3171081E-03 Eh
   gradient norm :     0.0110114 Eh/α   predicted    -0.4851907E-03 (  53.00%)
   displ. norm   :     0.5633879 α      lambda       -0.7217899E-03
   maximum displ.:     0.2944961 α      in ANC's #2, #3, #5, ...

........................................................................
.............................. CYCLE   15 ..............................
........................................................................

 iter      E             dE          RMSdq      gap      omega  full diag
   1    -54.5033999 -0.545034E+02  0.192E-01    3.66       0.0  T
   2    -54.5034031 -0.319894E-05  0.113E-01    3.66       1.0  T
   3    -54.5033995  0.364880E-05  0.110E-02    3.66       1.5  T
   4    -54.5034044 -0.490600E-05  0.266E-03    3.66       6.2  T
   5    -54.5034044 -0.676818E-07  0.150E-03    3.66      11.0  T
   6    -54.5034044 -0.545796E-09  0.826E-04    3.66      19.9  T
   7    -54.5034045 -0.165774E-07  0.172E-04    3.66      95.4  T
     SCC iter.                  ...        0 min,  0.014 sec
     gradient                   ...        0 min,  0.004 sec
 * total energy  :   -53.6522593 Eh     change       -0.5086079E-03 Eh
   gradient norm :     0.0072632 Eh/α   predicted    -0.4754471E-03 (  -6.52%)
   displ. norm   :     0.4215036 α      lambda       -0.3256286E-03
   maximum displ.:     0.2663549 α      in ANC's #2, #3, #5, ...

........................................................................
.............................. CYCLE   16 ..............................
........................................................................

 iter      E             dE          RMSdq      gap      omega  full diag
   1    -54.5011027 -0.545011E+02  0.125E-01    3.68       0.0  T
   2    -54.5011041 -0.136912E-05  0.738E-02    3.68       1.0  T
   3    -54.5011029  0.123171E-05  0.663E-03    3.68       2.5  T
   4    -54.5011046 -0.178824E-05  0.192E-03    3.68       8.5  T
   5    -54.5011047 -0.325105E-07  0.104E-03    3.68      15.9  T
   6    -54.5011047 -0.196061E-08  0.561E-04    3.68      29.3  T
   7    -54.5011047 -0.729315E-08  0.125E-04    3.68     131.3  T
     SCC iter.                  ...        0 min,  0.013 sec
     gradient                   ...        0 min,  0.004 sec
 * total energy  :   -53.6524808 Eh     change       -0.2215088E-03 Eh
   gradient norm :     0.0078464 Eh/α   predicted    -0.1917414E-03 ( -13.44%)
   displ. norm   :     0.3195697 α      lambda       -0.3168587E-03
   maximum displ.:     0.2488925 α      in ANC's #2, #1, #3, ...

........................................................................
.............................. CYCLE   17 ..............................
........................................................................

 iter      E             dE          RMSdq      gap      omega  full diag
   1    -54.5055490 -0.545055E+02  0.761E-02    3.70       0.0  T
   2    -54.5055495 -0.525464E-06  0.449E-02    3.70       1.0  T
   3    -54.5055486  0.947788E-06  0.564E-03    3.70       2.9  T
   4    -54.5055498 -0.123715E-05  0.115E-03    3.70      14.3  T
   5    -54.5055498 -0.355045E-08  0.653E-04    3.70      25.2  T
   6    -54.5055498 -0.416706E-08  0.256E-04    3.70      64.2  T
     SCC iter.                  ...        0 min,  0.011 sec
     gradient                   ...        0 min,  0.005 sec
 * total energy  :   -53.6527192 Eh     change       -0.2383739E-03 Eh
   gradient norm :     0.0054980 Eh/α   predicted    -0.1746118E-03 ( -26.75%)
   displ. norm   :     0.4432036 α      lambda       -0.3091314E-03
   maximum displ.:     0.3408373 α      in ANC's #2, #1, #3, ...

........................................................................
.............................. CYCLE   18 ..............................
........................................................................

 iter      E             dE          RMSdq      gap      omega  full diag
   1    -54.5079356 -0.545079E+02  0.108E-01    3.72       0.0  T
   2    -54.5079368 -0.124247E-05  0.636E-02    3.72       1.0  T
   3    -54.5079358  0.103928E-05  0.617E-03    3.72       2.7  T
   4    -54.5079373 -0.147984E-05  0.177E-03    3.72       9.3  T
   5    -54.5079373 -0.388975E-07  0.986E-04    3.72      16.7  T
   6    -54.5079373 -0.384997E-08  0.521E-04    3.72      31.6  T
     SCC iter.                  ...        0 min,  0.011 sec
     gradient                   ...        0 min,  0.005 sec
 * total energy  :   -53.6529274 Eh     change       -0.2082587E-03 Eh
   gradient norm :     0.0042634 Eh/α   predicted    -0.1849297E-03 ( -11.20%)
   displ. norm   :     0.4700207 α      lambda       -0.2160964E-03
   maximum displ.:     0.3526396 α      in ANC's #2, #1, #3, ...

........................................................................
.............................. CYCLE   19 ..............................
........................................................................

 iter      E             dE          RMSdq      gap      omega  full diag
   1    -54.5066370 -0.545066E+02  0.114E-01    3.73       0.0  T
   2    -54.5066383 -0.125766E-05  0.673E-02    3.73       1.0  T
   3    -54.5066348  0.347498E-05  0.993E-03    3.73       1.7  T
   4    -54.5066390 -0.420884E-05  0.154E-03    3.73      10.7  T
   5    -54.5066390 -0.124124E-07  0.965E-04    3.73      17.0  T
   6    -54.5066390 -0.652675E-08  0.485E-04    3.73      33.9  T
     SCC iter.                  ...        0 min,  0.011 sec
     gradient                   ...        0 min,  0.005 sec
 * total energy  :   -53.6530395 Eh     change       -0.1120633E-03 Eh
   gradient norm :     0.0063257 Eh/α   predicted    -0.1319234E-03 (  17.72%)
   displ. norm   :     0.2288613 α      lambda       -0.1478328E-03
   maximum displ.:     0.1707998 α      in ANC's #2, #1, #4, ...

........................................................................
.............................. CYCLE   20 ..............................
........................................................................

 iter      E             dE          RMSdq      gap      omega  full diag
   1    -54.5106505 -0.545107E+02  0.474E-02    3.75       0.0  T
   2    -54.5106509 -0.406493E-06  0.279E-02    3.76       1.0  T
   3    -54.5106506  0.297147E-06  0.355E-03    3.76       4.6  T
   4    -54.5106510 -0.430791E-06  0.851E-04    3.76      19.3  T
   5    -54.5106510 -0.412859E-08  0.448E-04    3.76      36.7  T
     SCC iter.                  ...        0 min,  0.009 sec
     gradient                   ...        0 min,  0.004 sec
 * total energy  :   -53.6531203 Eh     change       -0.8085317E-04 Eh
   gradient norm :     0.0053437 Eh/α   predicted    -0.7778949E-04 (  -3.79%)
   displ. norm   :     0.3128145 α      lambda       -0.1150694E-03
   maximum displ.:     0.2297209 α      in ANC's #2, #1, #3, ...
 * RMSD in coord.:     1.0927217 α      energy gain  -0.3219255E-01 Eh

generating ANC from exact Hessian ...
Using Lindh-Hessian (1995)
 Shifting diagonal of input Hessian by   9.409026552335147E-003
 Lowest  eigenvalues of input Hessian
    0.000000    0.000000    0.000000    0.000000    0.000000    0.000000
    0.010000    0.010312    0.010554    0.011039    0.011384    0.012134
    0.013037    0.013578    0.014620    0.015456    0.015844    0.017323
 Highest eigenvalues
    1.902791    1.921740    2.007215    2.009764    2.024053    2.054996
 

........................................................................
.............................. CYCLE   21 ..............................
........................................................................

 iter      E             dE          RMSdq      gap      omega  full diag
   1    -54.5094220 -0.545094E+02  0.773E-02    3.76       0.0  T
   2    -54.5094225 -0.540033E-06  0.454E-02    3.76       1.0  T
   3    -54.5094221  0.426141E-06  0.445E-03    3.76       3.7  T
   4    -54.5094227 -0.621793E-06  0.108E-03    3.76      15.3  T
   5    -54.5094227 -0.792153E-08  0.678E-04    3.76      24.3  T
   6    -54.5094228 -0.710137E-08  0.307E-04    3.76      53.5  T
     SCC iter.                  ...        0 min,  0.011 sec
     gradient                   ...        0 min,  0.005 sec
 * total energy  :   -53.6531780 Eh     change       -0.5766299E-04 Eh
   gradient norm :     0.0057570 Eh/α   predicted     0.0000000E+00 (-100.00%)
   displ. norm   :     0.0677427 α      lambda       -0.9597770E-04
   maximum displ.:     0.0389573 α      in ANC's #9, #1, #4, ...

........................................................................
.............................. CYCLE   22 ..............................
........................................................................

 iter      E             dE          RMSdq      gap      omega  full diag
   1    -54.5091566 -0.545092E+02  0.215E-02    3.76       0.0  T
   2    -54.5091567 -0.149719E-06  0.129E-02    3.76       1.3  T
   3    -54.5091558  0.897410E-06  0.542E-03    3.76       3.0  T
   4    -54.5091568 -0.100888E-05  0.824E-04    3.76      20.0  T
   5    -54.5091569 -0.115700E-07  0.358E-04    3.76      45.9  T
   6    -54.5091569 -0.101254E-08  0.156E-04    3.76     105.5  T
     SCC iter.                  ...        0 min,  0.011 sec
     gradient                   ...        0 min,  0.005 sec
 * total energy  :   -53.6532593 Eh     change       -0.8132699E-04 Eh
   gradient norm :     0.0024010 Eh/α   predicted    -0.5022097E-04 ( -38.25%)
   displ. norm   :     0.2027564 α      lambda       -0.1776289E-03
   maximum displ.:     0.1154349 α      in ANC's #9, #1, #4, ...

........................................................................
.............................. CYCLE   23 ..............................
........................................................................

 iter      E             dE          RMSdq      gap      omega  full diag
   1    -54.5085081 -0.545085E+02  0.572E-02    3.76       0.0  T
   2    -54.5085088 -0.675094E-06  0.341E-02    3.76       1.0  T
   3    -54.5085061  0.270540E-05  0.940E-03    3.76       1.7  T
   4    -54.5085092 -0.307559E-05  0.178E-03    3.76       9.2  T
   5    -54.5085092 -0.425995E-07  0.857E-04    3.76      19.2  T
   6    -54.5085092 -0.609226E-08  0.334E-04    3.76      49.2  T
     SCC iter.                  ...        0 min,  0.011 sec
     gradient                   ...        0 min,  0.004 sec
 * total energy  :   -53.6533734 Eh     change       -0.1140742E-03 Eh
   gradient norm :     0.0045437 Eh/α   predicted    -0.9247184E-04 ( -18.94%)
   displ. norm   :     0.1435085 α      lambda       -0.7412861E-04
   maximum displ.:     0.0717227 α      in ANC's #9, #1, #3, ...

........................................................................
.............................. CYCLE   24 ..............................
........................................................................

 iter      E             dE          RMSdq      gap      omega  full diag
   1    -54.5084979 -0.545085E+02  0.396E-02    3.77       0.0  T
   2    -54.5084980 -0.161242E-06  0.235E-02    3.77       1.0  T
   3    -54.5084976  0.422593E-06  0.396E-03    3.77       4.1  T
   4    -54.5084981 -0.511507E-06  0.876E-04    3.77      18.8  T
   5    -54.5084981 -0.388092E-08  0.454E-04    3.77      36.2  T
     SCC iter.                  ...        0 min,  0.010 sec
     gradient                   ...        0 min,  0.004 sec
 * total energy  :   -53.6534327 Eh     change       -0.5931628E-04 Eh
   gradient norm :     0.0053219 Eh/α   predicted    -0.3783182E-04 ( -36.22%)
   displ. norm   :     0.2135176 α      lambda       -0.1210611E-03
   maximum displ.:     0.1080888 α      in ANC's #1, #3, #9, ...

........................................................................
.............................. CYCLE   25 ..............................
........................................................................

 iter      E             dE          RMSdq      gap      omega  full diag
   1    -54.5090551 -0.545091E+02  0.604E-02    3.77       0.0  T
   2    -54.5090554 -0.319425E-06  0.356E-02    3.77       1.0  T
   3    -54.5090553  0.113594E-06  0.271E-03    3.77       6.1  T
   4    -54.5090555 -0.239885E-06  0.100E-03    3.77      16.4  T
   5    -54.5090555 -0.669115E-08  0.420E-04    3.77      39.2  T
   6    -54.5090555 -0.892570E-09  0.129E-04    3.77     127.8  T
     SCC iter.                  ...        0 min,  0.012 sec
     gradient                   ...        0 min,  0.004 sec
 * total energy  :   -53.6535235 Eh     change       -0.9082083E-04 Eh
   gradient norm :     0.0034792 Eh/α   predicted    -0.6329385E-04 ( -30.31%)
   displ. norm   :     0.2026244 α      lambda       -0.8414347E-04
   maximum displ.:     0.1111078 α      in ANC's #1, #3, #2, ...

........................................................................
.............................. CYCLE   26 ..............................
........................................................................

 iter      E             dE          RMSdq      gap      omega  full diag
   1    -54.5096100 -0.545096E+02  0.600E-02    3.78       0.0  T
   2    -54.5096104 -0.354880E-06  0.353E-02    3.78       1.0  T
   3    -54.5096102  0.152254E-06  0.290E-03    3.78       5.7  T
   4    -54.5096105 -0.268800E-06  0.943E-04    3.78      17.4  T
   5    -54.5096105 -0.803536E-08  0.500E-04    3.78      32.9  T
     SCC iter.                  ...        0 min,  0.010 sec
     gradient                   ...        0 min,  0.004 sec
 * total energy  :   -53.6535846 Eh     change       -0.6106108E-04 Eh
   gradient norm :     0.0019620 Eh/α   predicted    -0.4380006E-04 ( -28.27%)
   displ. norm   :     0.2846238 α      lambda       -0.5028503E-04
   maximum displ.:     0.1581388 α      in ANC's #1, #3, #2, ...

........................................................................
.............................. CYCLE   27 ..............................
........................................................................

 iter      E             dE          RMSdq      gap      omega  full diag
   1    -54.5093922 -0.545094E+02  0.874E-02    3.78       0.0  T
   2    -54.5093927 -0.534117E-06  0.514E-02    3.78       1.0  T
   3    -54.5093926  0.177756E-06  0.350E-03    3.78       4.7  T
   4    -54.5093930 -0.391043E-06  0.120E-03    3.78      13.7  T
   5    -54.5093930 -0.733538E-08  0.620E-04    3.78      26.5  T
   6    -54.5093930 -0.305140E-08  0.311E-04    3.78      52.8  T
     SCC iter.                  ...        0 min,  0.012 sec
     gradient                   ...        0 min,  0.004 sec
 * total energy  :   -53.6536345 Eh     change       -0.4991411E-04 Eh
   gradient norm :     0.0022234 Eh/α   predicted    -0.2605228E-04 ( -47.81%)
   displ. norm   :     0.1257540 α      lambda       -0.3791664E-04
   maximum displ.:     0.0713676 α      in ANC's #1, #3, #5, ...

........................................................................
.............................. CYCLE   28 ..............................
........................................................................

 iter      E             dE          RMSdq      gap      omega  full diag
   1    -54.5101889 -0.545102E+02  0.437E-02    3.79       0.0  T
   2    -54.5101891 -0.171783E-06  0.257E-02    3.79       1.0  T
   3    -54.5101887  0.436112E-06  0.377E-03    3.79       4.4  T
   4    -54.5101892 -0.509656E-06  0.753E-04    3.79      21.8  T
   5    -54.5101892 -0.101401E-07  0.350E-04    3.79      47.0  T
     SCC iter.                  ...        0 min,  0.010 sec
     gradient                   ...        0 min,  0.005 sec
 * total energy  :   -53.6536620 Eh     change       -0.2748949E-04 Eh
   gradient norm :     0.0023579 Eh/α   predicted    -0.1925929E-04 ( -29.94%)
   displ. norm   :     0.1790337 α      lambda       -0.4111457E-04
   maximum displ.:     0.0988920 α      in ANC's #1, #3, #5, ...

........................................................................
.............................. CYCLE   29 ..............................
........................................................................

 iter      E             dE          RMSdq      gap      omega  full diag
   1    -54.5099773 -0.545100E+02  0.611E-02    3.79       0.0  T
   2    -54.5099775 -0.228828E-06  0.359E-02    3.79       1.0  T
   3    -54.5099763  0.119532E-05  0.599E-03    3.79       2.7  T
   4    -54.5099777 -0.137153E-05  0.882E-04    3.79      18.6  T
   5    -54.5099777 -0.632341E-08  0.484E-04    3.79      34.0  T
   6    -54.5099777 -0.217659E-08  0.167E-04    3.79      98.2  T
     SCC iter.                  ...        0 min,  0.011 sec
     gradient                   ...        0 min,  0.004 sec
 * total energy  :   -53.6536956 Eh     change       -0.3355829E-04 Eh
   gradient norm :     0.0015838 Eh/α   predicted    -0.2122221E-04 ( -36.76%)
   displ. norm   :     0.2845144 α      lambda       -0.4489024E-04
   maximum displ.:     0.1603619 α      in ANC's #3, #1, #5, ...

........................................................................
.............................. CYCLE   30 ..............................
........................................................................

 iter      E             dE          RMSdq      gap      omega  full diag
   1    -54.5101654 -0.545102E+02  0.100E-01    3.79       0.0  T
   2    -54.5101659 -0.525793E-06  0.589E-02    3.79       1.0  T
   3    -54.5101641  0.175657E-05  0.725E-03    3.79       2.3  T
   4    -54.5101662 -0.210225E-05  0.128E-03    3.79      12.8  T
   5    -54.5101663 -0.177087E-07  0.697E-04    3.79      23.6  T
   6    -54.5101663 -0.369551E-08  0.211E-04    3.79      78.1  T
     SCC iter.                  ...        0 min,  0.011 sec
     gradient                   ...        0 min,  0.004 sec
 * total energy  :   -53.6537429 Eh     change       -0.4735979E-04 Eh
   gradient norm :     0.0029526 Eh/α   predicted    -0.2325762E-04 ( -50.89%)
   displ. norm   :     0.1755534 α      lambda       -0.3794080E-04
   maximum displ.:     0.1014189 α      in ANC's #3, #1, #5, ...

........................................................................
.............................. CYCLE   31 ..............................
........................................................................

 iter      E             dE          RMSdq      gap      omega  full diag
   1    -54.5097310 -0.545097E+02  0.615E-02    3.80       0.0  T
   2    -54.5097312 -0.220310E-06  0.361E-02    3.80       1.0  T
   3    -54.5097305  0.665514E-06  0.467E-03    3.80       3.5  T
   4    -54.5097313 -0.799051E-06  0.808E-04    3.80      20.3  T
   5    -54.5097313 -0.595682E-08  0.435E-04    3.80      37.8  T
     SCC iter.                  ...        0 min,  0.010 sec
     gradient                   ...        0 min,  0.006 sec
 * total energy  :   -53.6537738 Eh     change       -0.3085943E-04 Eh
   gradient norm :     0.0024982 Eh/α   predicted    -0.1955940E-04 ( -36.62%)
   displ. norm   :     0.2547642 α      lambda       -0.5339861E-04
   maximum displ.:     0.1451550 α      in ANC's #3, #5, #1, ...

........................................................................
.............................. CYCLE   32 ..............................
........................................................................

 iter      E             dE          RMSdq      gap      omega  full diag
   1    -54.5100736 -0.545101E+02  0.884E-02    3.81       0.0  T
   2    -54.5100740 -0.441554E-06  0.519E-02    3.81       1.0  T
   3    -54.5100735  0.522675E-06  0.460E-03    3.81       3.6  T
   4    -54.5100743 -0.730309E-06  0.110E-03    3.81      14.9  T
   5    -54.5100743 -0.136660E-07  0.632E-04    3.81      26.0  T
   6    -54.5100743 -0.375122E-08  0.245E-04    3.81      67.2  T
     SCC iter.                  ...        0 min,  0.012 sec
     gradient                   ...        0 min,  0.004 sec
 * total energy  :   -53.6538127 Eh     change       -0.3896080E-04 Eh
   gradient norm :     0.0018153 Eh/α   predicted    -0.2843553E-04 ( -27.02%)
   displ. norm   :     0.3093932 α      lambda       -0.2646218E-04
   maximum displ.:     0.1785130 α      in ANC's #3, #5, #1, ...

........................................................................
.............................. CYCLE   33 ..............................
........................................................................

 iter      E             dE          RMSdq      gap      omega  full diag
   1    -54.5098415 -0.545098E+02  0.106E-01    3.83       0.0  T
   2    -54.5098422 -0.675044E-06  0.624E-02    3.83       1.0  T
   3    -54.5098416  0.568705E-06  0.507E-03    3.83       3.2  T
   4    -54.5098425 -0.861756E-06  0.137E-03    3.83      12.0  T
   5    -54.5098425 -0.196791E-07  0.788E-04    3.83      20.9  T
   6    -54.5098425 -0.727283E-08  0.307E-04    3.83      53.6  T
     SCC iter.                  ...        0 min,  0.012 sec
     gradient                   ...        0 min,  0.004 sec
 * total energy  :   -53.6538315 Eh     change       -0.1878196E-04 Eh
   gradient norm :     0.0013948 Eh/α   predicted    -0.1379469E-04 ( -26.55%)
   displ. norm   :     0.0369131 α      lambda       -0.7081053E-05
   maximum displ.:     0.0181542 α      in ANC's #9, #5, #1, ...

........................................................................
.............................. CYCLE   34 ..............................
........................................................................

 iter      E             dE          RMSdq      gap      omega  full diag
   1    -54.5114005 -0.545114E+02  0.124E-02    3.83       0.0  T
   2    -54.5114005 -0.280063E-07  0.730E-03    3.83       2.3  T
   3    -54.5114005  0.308984E-07  0.112E-03    3.83      14.7  T
   4    -54.5114006 -0.406452E-07  0.178E-04    3.83      92.2  T
   5    -54.5114006 -0.547686E-10  0.112E-04    3.83     147.0  T
     SCC iter.                  ...        0 min,  0.010 sec
     gradient                   ...        0 min,  0.004 sec
 * total energy  :   -53.6538369 Eh     change       -0.5368231E-05 Eh
   gradient norm :     0.0011554 Eh/α   predicted    -0.3543330E-05 ( -33.99%)
   displ. norm   :     0.0643401 α      lambda       -0.7194190E-05
   maximum displ.:     0.0362431 α      in ANC's #3, #4, #6, ...

........................................................................
.............................. CYCLE   35 ..............................
........................................................................

 iter      E             dE          RMSdq      gap      omega  full diag
   1    -54.5111214 -0.545111E+02  0.194E-02    3.83       0.0  T
   2    -54.5111215 -0.567079E-07  0.114E-02    3.83       1.4  T
   3    -54.5111213  0.184236E-06  0.247E-03    3.83       6.7  T
   4    -54.5111215 -0.210803E-06  0.452E-04    3.83      36.3  T
   5    -54.5111215 -0.224387E-08  0.243E-04    3.83      67.8  T
     SCC iter.                  ...        0 min,  0.010 sec
     gradient                   ...        0 min,  0.004 sec
 * total energy  :   -53.6538454 Eh     change       -0.8520717E-05 Eh
   gradient norm :     0.0008700 Eh/α   predicted    -0.3603882E-05 ( -57.70%)
   displ. norm   :     0.1293203 α      lambda       -0.9406931E-05
   maximum displ.:     0.0781212 α      in ANC's #3, #6, #1, ...

........................................................................
.............................. CYCLE   36 ..............................
........................................................................

 iter      E             dE          RMSdq      gap      omega  full diag
   1    -54.5103456 -0.545103E+02  0.389E-02    3.83       0.0  T
   2    -54.5103458 -0.169848E-06  0.230E-02    3.83       1.0  T
   3    -54.5103452  0.570149E-06  0.427E-03    3.83       3.8  T
   4    -54.5103459 -0.661327E-06  0.816E-04    3.83      20.1  T
   5    -54.5103459 -0.551524E-08  0.449E-04    3.83      36.6  T
     SCC iter.                  ...        0 min,  0.009 sec
     gradient                   ...        0 min,  0.004 sec
 * total energy  :   -53.6538542 Eh     change       -0.8748380E-05 Eh
   gradient norm :     0.0009066 Eh/α   predicted    -0.4739366E-05 ( -45.83%)
   displ. norm   :     0.0508171 α      lambda       -0.2626903E-05
   maximum displ.:     0.0258703 α      in ANC's #3, #4, #6, ...

........................................................................
.............................. CYCLE   37 ..............................
........................................................................

 iter      E             dE          RMSdq      gap      omega  full diag
   1    -54.5104064 -0.545104E+02  0.141E-02    3.83       0.0  T
   2    -54.5104065 -0.275634E-07  0.835E-03    3.83       2.0  T
   3    -54.5104064  0.702366E-07  0.154E-03    3.83      10.7  T
   4    -54.5104065 -0.830333E-07  0.347E-04    3.83      47.4  T
   5    -54.5104065 -0.108948E-08  0.196E-04    3.83      83.9  T
     SCC iter.                  ...        0 min,  0.009 sec
     gradient                   ...        0 min,  0.005 sec
 * total energy  :   -53.6538563 Eh     change       -0.2148123E-05 Eh
   gradient norm :     0.0006755 Eh/α   predicted    -0.1317031E-05 ( -38.69%)
   displ. norm   :     0.0252077 α      lambda       -0.1255229E-05
   maximum displ.:     0.0130817 α      in ANC's #3, #4, #9, ...

   *** GEOMETRY OPTIMIZATION CONVERGED AFTER 37 ITERATIONS ***

------------------------------------------------------------------------
 total energy gain   :        -0.0329285 Eh      -20.6630 kcal/mol
 total RMSD          :         1.1989951 a0        0.6345 Å
 total power (kW/mol):        -2.3365897 (step)  -90.9301 (real)
------------------------------------------------------------------------

 ANCopt (total)                0 d,  0 h,  0 min,  0.951 sec
 optimizer setup                ...        0 min,  0.000 sec (  0.014%)
 model hessian                  ...        0 min,  0.064 sec (  6.684%)
 ANC generation                 ...        0 min,  0.004 sec (  0.384%)
 coordinate transformation      ...        0 min,  0.001 sec (  0.065%)
 single point calculation       ...        0 min,  0.848 sec ( 89.211%)
 optimization log               ...        0 min,  0.011 sec (  1.146%)
 hessian update                 ...        0 min,  0.017 sec (  1.808%)
 rational function              ...        0 min,  0.005 sec (  0.479%)

================
 final structure:
================
37
 xtb: 6.7.1 (edcfbbe)
C            0.45068259408881        1.31670540093009       -2.36670896024722
O           -0.23580186049472        0.53096773218335       -1.41685252864795
C            0.36537901310615        0.45370188892039       -0.14540153141717
C           -0.56266195640056       -0.41005958490283        0.70777395352420
C           -2.00341714983788       -0.30598946692762        0.43060735458335
C           -2.59834589616951        0.92065449147027        0.14627559820227
C           -3.95846729676704        1.00117425439999       -0.08754241587090
C           -4.74408486301592       -0.13834415493195       -0.04931248748712
C           -4.15978518466212       -1.36406133380837        0.22259900504125
C           -2.80116374372062       -1.44784906646519        0.46175376611996
C           -0.09164612121023       -1.18203756449134        1.68164442705134
O            0.45142046834355        1.78755165671673        0.36008984416748
C            0.51168694852975        1.94082915184820        1.75573606832321
C            1.74684967022713       -0.18252070123985       -0.27254258352205
C            2.91141501147079        0.52384398990238       -0.01139721310379
C            4.14610903032250       -0.08161974246304       -0.17854436465170
C            4.22606259352449       -1.38915624418844       -0.62283403212716
C            3.06538753361777       -2.08938402412316       -0.91243142557705
C            1.83225193932031       -1.48965708081660       -0.74057103901662
H            0.57999696656884        2.34085593865744       -2.00959373122750
H           -0.17793302781751        1.31104516247107       -3.25485409607599
H            1.43134619671575        0.89026585372594       -2.60559966560078
H           -1.99277954573150        1.81239064663402        0.10888139921539
H           -4.40870571419605        1.95947918119573       -0.30312841599180
H           -5.80615582647452       -0.07343142959316       -0.23624628643020
H           -4.76504140985598       -2.25900850386004        0.24414189929820
H           -2.34648987342454       -2.40844923170622        0.65534785933967
H            0.96045321530347       -1.26973678741952        1.89362733281455
H           -0.75633462537734       -1.75013676704324        2.31002397271032
H           -0.44147951593174        1.69116579720754        2.23484439024457
H            1.30094048020951        1.32733811836088        2.20225394061966
H            0.73416043464637        2.99461916695207        1.92187308926222
H            2.85363171193981        1.55263844540519        0.31000306676850
H            5.04709930715811        0.47485190804095        0.03420988311316
H            5.18951667701784       -1.85987506779363       -0.75281543464940
H            3.12244530494531       -3.10468255725281       -1.27625307687050
H            0.92345951403096       -2.02407847601073       -0.97404356189700
 
 Bond Distances (Angstroems)
 ---------------------------
C1-O2=1.4110         C1-H20=1.0923        C1-H21=1.0881        C1-H22=1.0957        O2-C1=1.4110         O2-C3=1.4085         
C3-O2=1.4085         C3-C4=1.5282         C3-O12=1.4290        C3-C14=1.5262        C4-C3=1.5282         C4-C5=1.4709         
C4-C11=1.3290        C5-C4=1.4709         C5-C6=1.3926         C5-C10=1.3933        C6-C5=1.3926         C6-C7=1.3824         
C6-H23=1.0786        C7-C6=1.3824         C7-C8=1.3846         C7-H24=1.0805        C8-C7=1.3846         C8-C9=1.3848         
C8-H25=1.0803        C9-C8=1.3848         C9-C10=1.3821        C9-H26=1.0806        C10-C5=1.3933        C10-C9=1.3821        
C10-H27=1.0803       C11-C4=1.3290        C11-H28=1.0768       C11-H29=1.0768       O12-C3=1.4290        O12-C13=1.4053       
C13-O12=1.4053       C13-H30=1.0956       C13-H31=1.0948       C13-H32=1.0898       C14-C3=1.5262        C14-C15=1.3869       
C14-C19=1.3910       C15-C14=1.3869       C15-C16=1.3853       C15-H33=1.0794       C16-C15=1.3853       C16-C17=1.3833       
C16-H34=1.0801       C17-C16=1.3833       C17-C18=1.3861       C17-H35=1.0801       C18-C17=1.3861       C18-C19=1.3820       
C18-H36=1.0800       C19-C14=1.3910       C19-C18=1.3820       C19-H37=1.0798       H20-C1=1.0923        H21-C1=1.0881        
H22-C1=1.0957        H23-C6=1.0786        H24-C7=1.0805        H25-C8=1.0803        H26-C9=1.0806        H27-C10=1.0803       
H28-C11=1.0768       H29-C11=1.0768       H30-C13=1.0956       H31-C13=1.0948       H32-C13=1.0898       H33-C15=1.0794       
H34-C16=1.0801       H35-C17=1.0801       H36-C18=1.0800       H37-C19=1.0798       
 C  H  Rav=1.0839 sigma=0.0066  Rmin=1.0768  Rmax=1.0957    18
 C  C  Rav=1.4055 sigma=0.0527  Rmin=1.3290  Rmax=1.5282    16
 O  C  Rav=1.4135 sigma=0.0092  Rmin=1.4053  Rmax=1.4290     4
 
 selected bond angles (degree)
 --------------------
H20-C1-O2=111.08               H21-C1-O2=105.40               H21-C1-H20=109.88              H22-C1-O2=111.44               
H22-C1-H20=109.28              H22-C1-H21=109.70              C3-O2-C1=115.50                C4-C3-O2=106.01                
O12-C3-O2=107.09               O12-C3-C4=111.51               C14-C3-O2=109.51               C14-C3-C4=111.14               
C14-C3-O12=111.35              C5-C4-C3=116.72                C11-C4-C3=121.48               C11-C4-C5=121.76               
C6-C5-C4=121.28                C10-C5-C4=119.91               C10-C5-C6=118.81               C7-C6-C5=120.41                
H23-C6-C5=119.70               H23-C6-C7=119.89               C8-C7-C6=120.37                H24-C7-C6=119.69               
H24-C7-C8=119.93               C9-C8-C7=119.63                H25-C8-C7=120.24               H25-C8-C9=120.13               
C10-C9-C8=120.16               H26-C9-C8=120.04               H26-C9-C10=119.80              C9-C10-C5=120.62               
H27-C10-C5=119.46              H27-C10-C9=119.91              
 
 selected dihedral angles (degree)
 ---------------------------------
C3-O2-C1-H20=302.22           C3-O2-C1-H21=183.26           C3-O2-C1-H22= 64.33           C4-C3-O2-C1=178.69            
O12-C3-O2-C1= 59.53           C14-C3-O2-C1=298.67           C5-C4-C3-O2=326.51            C5-C4-C3-O12= 82.72           
C5-C4-C3-C14=207.60           C11-C4-C3-O2=148.72           C11-C4-C3-O12=264.93          C11-C4-C3-C14= 29.81          
C6-C5-C4-C3=320.13            C6-C5-C4-C11=137.92           C10-C5-C4-C3=140.71           C10-C5-C4-C11=318.50          
C7-C6-C5-C4=181.18            C7-C6-C5-C10=  0.61           H23-C6-C5-C4=  1.17           H23-C6-C5-C10=180.60          
C8-C7-C6-C5=359.63            C8-C7-C6-H23=179.64           H24-C7-C6-C5=179.75           H24-C7-C6-H23=359.77          
C9-C8-C7-C6=359.88            C9-C8-C7-H24=179.76           H25-C8-C7-C6=180.24           H25-C8-C7-H24=  0.12          
C10-C9-C8-C7=  0.36           C10-C9-C8-H25=180.00          H26-C9-C8-C7=180.62           H26-C9-C8-H25=  0.26          
C9-C10-C5-C4=179.06           C9-C10-C5-C6=359.62           H27-C10-C5-C4=357.83          H27-C10-C5-C6=178.39          
C5-C10-C9-C8=359.89           C5-C10-C9-H26=179.63          H27-C10-C9-C8=181.13          H27-C10-C9-H26=  0.87         
           -------------------------------------------------
          |                Final Singlepoint                |
           -------------------------------------------------

          ...................................................
          :                      SETUP                      :
          :.................................................:
          :  # basis functions                  94          :
          :  # atomic orbitals                  94          :
          :  # shells                           56          :
          :  # electrons                        98          :
          :  max. iterations                   250          :
          :  Hamiltonian                  GFN2-xTB          :
          :  restarted?                      false          :
          :  GBSA solvation                  false          :
          :  PC potential                    false          :
          :  electronic temp.          300.0000000     K    :
          :  accuracy                    1.0000000          :
          :  -> integral cutoff          0.2500000E+02      :
          :  -> integral neglect         0.1000000E-07      :
          :  -> SCF convergence          0.1000000E-05 Eh   :
          :  -> wf. convergence          0.1000000E-03 e    :
          :  Broyden damping             0.4000000          :
          :  net charge                          0          :
          :  unpaired electrons                  0          :
          ...................................................

 iter      E             dE          RMSdq      gap      omega  full diag
   1    -54.5104065 -0.545104E+02  0.680E-05    3.83       0.0  T
   2    -54.5104065 -0.293525E-10  0.457E-05    3.83     359.7  T
   3    -54.5104065 -0.262972E-10  0.281E-05    3.83     584.6  T

   *** convergence criteria satisfied after 3 iterations ***

         #    Occupation            Energy/Eh            Energy/eV
      -------------------------------------------------------------
         1        2.0000           -0.7056494             -19.2017
       ...           ...                  ...                  ...
        43        2.0000           -0.4145361             -11.2801
        44        2.0000           -0.4068546             -11.0711
        45        2.0000           -0.4056512             -11.0383
        46        2.0000           -0.4032097             -10.9719
        47        2.0000           -0.3976710             -10.8212
        48        2.0000           -0.3901752             -10.6172
        49        2.0000           -0.3844448             -10.4613 (HOMO)
        50                         -0.2435473              -6.6273 (LUMO)
        51                         -0.2283767              -6.2144
        52                         -0.2252458              -6.1292
        53                         -0.2156397              -5.8679
        54                         -0.1873710              -5.0986
       ...                                ...                  ...
        94                          0.6789299              18.4746
      -------------------------------------------------------------
                  HL-Gap            0.1408976 Eh            3.8340 eV
             Fermi-level           -0.3139961 Eh           -8.5443 eV

 SCC (total)                   0 d,  0 h,  0 min,  0.012 sec
 SCC setup                      ...        0 min,  0.000 sec (  1.393%)
 Dispersion                     ...        0 min,  0.000 sec (  1.369%)
 classical contributions        ...        0 min,  0.000 sec (  0.311%)
 integral evaluation            ...        0 min,  0.001 sec (  8.295%)
 iterations                     ...        0 min,  0.006 sec ( 45.313%)
 molecular gradient             ...        0 min,  0.005 sec ( 41.958%)
 printout                       ...        0 min,  0.000 sec (  1.170%)

         :::::::::::::::::::::::::::::::::::::::::::::::::::::
         ::                     SUMMARY                     ::
         :::::::::::::::::::::::::::::::::::::::::::::::::::::
         :: total energy             -53.653856314522 Eh    ::
         :: gradient norm              0.000675920952 Eh/a0 ::
         :: HOMO-LUMO gap              3.834017736996 eV    ::
         ::.................................................::
         :: SCC energy               -54.509832988428 Eh    ::
         :: -> isotropic ES            0.041134332234 Eh    ::
         :: -> anisotropic ES          0.003263198656 Eh    ::
         :: -> anisotropic XC          0.024945795464 Eh    ::
         :: -> dispersion             -0.041671417266 Eh    ::
         :: repulsion energy           0.855976673906 Eh    ::
         :: add. restraining           0.000000000000 Eh    ::
         :: total charge               0.000000000000 e     ::
         :::::::::::::::::::::::::::::::::::::::::::::::::::::

           -------------------------------------------------
          |                Property Printout                |
           -------------------------------------------------

    * Orbital Energies and Occupations

         #    Occupation            Energy/Eh            Energy/eV
      -------------------------------------------------------------
         1        2.0000           -0.7056494             -19.2017
       ...           ...                  ...                  ...
        37        2.0000           -0.4530903             -12.3292
        38        2.0000           -0.4441386             -12.0856
        39        2.0000           -0.4372464             -11.8981
        40        2.0000           -0.4291866             -11.6788
        41        2.0000           -0.4239023             -11.5350
        42        2.0000           -0.4209330             -11.4542
        43        2.0000           -0.4145361             -11.2801
        44        2.0000           -0.4068546             -11.0711
        45        2.0000           -0.4056512             -11.0383
        46        2.0000           -0.4032097             -10.9719
        47        2.0000           -0.3976710             -10.8212
        48        2.0000           -0.3901752             -10.6172
        49        2.0000           -0.3844448             -10.4613 (HOMO)
        50                         -0.2435473              -6.6273 (LUMO)
        51                         -0.2283767              -6.2144
        52                         -0.2252458              -6.1292
        53                         -0.2156397              -5.8679
        54                         -0.1873710              -5.0986
        55                         -0.0989557              -2.6927
        56                         -0.0817898              -2.2256
        57                          0.0207394               0.5643
        58                          0.0383960               1.0448
        59                          0.0567680               1.5447
        60                          0.1029818               2.8023
       ...                                ...                  ...
        94                          0.6789299              18.4746
      -------------------------------------------------------------
                  HL-Gap            0.1408976 Eh            3.8340 eV
             Fermi-level           -0.3139961 Eh           -8.5443 eV

     #   Z          covCN         q      C6AA      α(0)
     1   6 C        3.643     0.043    20.188     6.459
     2   8 O        1.702    -0.314    19.237     5.922
     3   6 C        3.692     0.264    16.722     5.851
     4   6 C        2.948    -0.003    28.089     8.693
     5   6 C        2.979     0.021    27.542     8.608
     6   6 C        2.924    -0.025    28.634     8.775
     7   6 C        2.919    -0.029    28.731     8.790
     8   6 C        2.920    -0.030    28.757     8.794
     9   6 C        2.919    -0.030    28.744     8.792
    10   6 C        2.926    -0.033    28.820     8.804
    11   6 C        2.846    -0.095    30.370     9.032
    12   8 O        1.699    -0.336    19.628     5.982
    13   6 C        3.636     0.048    20.132     6.456
    14   6 C        2.971    -0.015    28.381     8.738
    15   6 C        2.922    -0.032    28.798     8.800
    16   6 C        2.920    -0.031    28.775     8.797
    17   6 C        2.920    -0.030    28.760     8.794
    18   6 C        2.920    -0.029    28.727     8.789
    19   6 C        2.924    -0.030    28.746     8.792
    20   1 H        0.924     0.047     2.355     2.400
    21   1 H        0.925     0.058     2.220     2.330
    22   1 H        0.924     0.028     2.616     2.529
    23   1 H        0.926     0.050     2.319     2.381
    24   1 H        0.926     0.031     2.574     2.509
    25   1 H        0.926     0.029     2.593     2.518
    26   1 H        0.926     0.030     2.589     2.516
    27   1 H        0.926     0.031     2.568     2.506
    28   1 H        0.926     0.037     2.488     2.467
    29   1 H        0.926     0.048     2.344     2.394
    30   1 H        0.924     0.031     2.575     2.510
    31   1 H        0.924     0.029     2.603     2.523
    32   1 H        0.925     0.058     2.227     2.334
    33   1 H        0.926     0.043     2.403     2.424
    34   1 H        0.926     0.033     2.550     2.497
    35   1 H        0.926     0.033     2.548     2.496
    36   1 H        0.926     0.034     2.534     2.489
    37   1 H        0.926     0.036     2.499     2.472

 Mol. C6AA /au·bohr⁶  :      15631.073667
 Mol. C8AA /au·bohr⁸  :     373153.190549
 Mol. α(0) /au        :        197.965646


Wiberg/Mayer (AO) data.
largest (>0.10) Wiberg bond orders for each atom

 ---------------------------------------------------------------------------
     #   Z sym  total        # sym  WBO       # sym  WBO       # sym  WBO
 ---------------------------------------------------------------------------
     1   6 C    3.947 --     2 O    0.983    21 H    0.980    20 H    0.979
                            22 H    0.978
     2   8 O    2.092 --     1 C    0.983     3 C    0.971
     3   6 C    3.919 --     2 O    0.971    14 C    0.955     4 C    0.946
                            12 O    0.936
     4   6 C    3.984 --    11 C    1.894     5 C    1.048     3 C    0.946
     5   6 C    3.989 --     6 C    1.387    10 C    1.385     4 C    1.048
                             8 C    0.105
     6   6 C    3.990 --     7 C    1.450     5 C    1.387    23 H    0.967
                             9 C    0.108
     7   6 C    3.992 --     6 C    1.450     8 C    1.436    24 H    0.971
                            10 C    0.108
     8   6 C    3.992 --     7 C    1.436     9 C    1.433    25 H    0.972
                             5 C    0.105
     9   6 C    3.992 --    10 C    1.453     8 C    1.433    26 H    0.971
                             6 C    0.108
    10   6 C    3.991 --     9 C    1.453     5 C    1.385    27 H    0.969
                             7 C    0.108
    11   6 C    3.989 --     4 C    1.894    28 H    0.973    29 H    0.973
    12   8 O    2.077 --    13 C    0.992     3 C    0.936
    13   6 C    3.951 --    12 O    0.992    32 H    0.979    31 H    0.977
                            30 H    0.976
    14   6 C    3.986 --    15 C    1.426    19 C    1.404     3 C    0.955
                            17 C    0.111
    15   6 C    3.991 --    16 C    1.433    14 C    1.426    33 H    0.967
                            18 C    0.110
    16   6 C    3.992 --    17 C    1.447    15 C    1.433    34 H    0.971
                            19 C    0.113
    17   6 C    3.992 --    16 C    1.447    18 C    1.430    35 H    0.971
                            14 C    0.111
    18   6 C    3.992 --    19 C    1.454    17 C    1.430    36 H    0.971
                            15 C    0.110
    19   6 C    3.992 --    18 C    1.454    14 C    1.404    37 H    0.969
                            16 C    0.113
    20   1 H    0.998 --     1 C    0.979
    21   1 H    0.996 --     1 C    0.980
    22   1 H    0.999 --     1 C    0.978
    23   1 H    0.997 --     6 C    0.967
    24   1 H    0.998 --     7 C    0.971
    25   1 H    0.999 --     8 C    0.972
    26   1 H    0.999 --     9 C    0.971
    27   1 H    0.999 --    10 C    0.969
    28   1 H    0.998 --    11 C    0.973
    29   1 H    0.997 --    11 C    0.973
    30   1 H    0.999 --    13 C    0.976
    31   1 H    0.999 --    13 C    0.977
    32   1 H    0.996 --    13 C    0.979
    33   1 H    0.998 --    15 C    0.967
    34   1 H    0.998 --    16 C    0.971
    35   1 H    0.998 --    17 C    0.971
    36   1 H    0.998 --    18 C    0.971
    37   1 H    0.999 --    19 C    0.969
 ---------------------------------------------------------------------------

Topologies differ in total number of bonds
Writing topology from bond orders to xtbtopo.mol

molecular dipole:
                 x           y           z       tot (Debye)
 q only:        0.283      -0.037       0.317
   full:        0.451      -0.071       0.409       1.559
molecular quadrupole (traceless):
                xx          xy          yy          xz          yz          zz
 q only:        0.739       0.191      -1.114      -0.823       0.245       0.375
  q+dip:        5.400       0.184       1.923       0.318       0.628      -7.323
   full:        1.979       0.338      -0.250      -0.621       0.555      -1.729

           -------------------------------------------------
          |                Geometry Summary                 |
           -------------------------------------------------

      molecular mass/u    :      254.3242536
   center of mass at/Å    :       -0.0592686      -0.0330855      -0.0635860
  moments of inertia/u·Å² :        0.6205623E+03   0.2039969E+04   0.2178594E+04
rotational constants/cm⁻¹ :        0.2716509E-01   0.8263669E-02   0.7737849E-02

 * 35 selected distances

     #   Z          #   Z                                           value/Å
     1   6 C        2   8 O                                       1.4109827
     2   8 O        3   6 C                                       1.4085370
     5   6 C        6   6 C                                       1.3926380
     6   6 C        7   6 C                                       1.3824199
     7   6 C        8   6 C                                       1.3846151
     8   6 C        9   6 C                                       1.3848195
     5   6 C       10   6 C                                       1.3932744
     9   6 C       10   6 C                                       1.3820521
     4   6 C       11   6 C                                       1.3289958
     3   6 C       12   8 O                                       1.4290137 (max)
    12   8 O       13   6 C                                       1.4053308
    14   6 C       15   6 C                                       1.3868528
    15   6 C       16   6 C                                       1.3852777
    16   6 C       17   6 C                                       1.3832707
    17   6 C       18   6 C                                       1.3861286
    14   6 C       19   6 C                                       1.3910248
    18   6 C       19   6 C                                       1.3819668
     1   6 C       20   1 H                                       1.0923086
     1   6 C       21   1 H                                       1.0881138
     1   6 C       22   1 H                                       1.0957284
     6   6 C       23   1 H                                       1.0785650
     7   6 C       24   1 H                                       1.0805279
     8   6 C       25   1 H                                       1.0803485
     9   6 C       26   1 H                                       1.0806155
    10   6 C       27   1 H                                       1.0802592
    11   6 C       28   1 H                                       1.0768199
    11   6 C       29   1 H                                       1.0767584 (min)
    13   6 C       30   1 H                                       1.0956291
    13   6 C       31   1 H                                       1.0948383
    13   6 C       32   1 H                                       1.0897567
    15   6 C       33   1 H                                       1.0793773
    16   6 C       34   1 H                                       1.0801429
    17   6 C       35   1 H                                       1.0801460
    18   6 C       36   1 H                                       1.0800246
    19   6 C       37   1 H                                       1.0798238

 * 3 distinct bonds (by element types)

   Z      Z             #   av. dist./Å        max./Å        min./Å
   1 H    6 C          18     1.0838769     1.0957284     1.0767584
   6 C    6 C          13     1.3817951     1.3932744     1.3289958
   6 C    8 O           4     1.4134661     1.4290137     1.4053308


optimized geometry written to: xtbopt.xyz


           -------------------------------------------------
          | TOTAL ENERGY              -53.653856314522 Eh   |
          | GRADIENT NORM               0.000675920952 Eh/α |
          | HOMO-LUMO GAP               3.834017736996 eV   |
           -------------------------------------------------

------------------------------------------------------------------------
 * finished run on 2025/12/01 at 14:18:36.905     
------------------------------------------------------------------------
 total:
 * wall-time:     0 d,  0 h,  0 min,  1.106 sec
 *  cpu-time:     0 d,  0 h,  0 min, 24.647 sec
 * ratio c/w:    22.276 speedup
 SCF:
 * wall-time:     0 d,  0 h,  0 min,  0.107 sec
 *  cpu-time:     0 d,  0 h,  0 min,  2.382 sec
 * ratio c/w:    22.250 speedup
 ANC optimizer:
 * wall-time:     0 d,  0 h,  0 min,  0.964 sec
 *  cpu-time:     0 d,  0 h,  0 min, 21.876 sec
 * ratio c/w:    22.682 speedup

normal termination of xtb
