      -----------------------------------------------------------      
     |                   =====================                   |     
     |                           x T B                           |     
     |                   =====================                   |     
     |                         S. Grimme                         |     
     |          Mulliken Center for Theoretical Chemistry        |     
     |                    University of Bonn                     |     
      -----------------------------------------------------------      

   * xtb version 6.7.1 (edcfbbe) compiled by 'albert@albert-system' on 2024-07-22

   xtb is free software: you can redistribute it and/or modify it under
   the terms of the GNU Lesser General Public License as published by
   the Free Software Foundation, either version 3 of the License, or
   (at your option) any later version.
   
   xtb is distributed in the hope that it will be useful,
   but WITHOUT ANY WARRANTY; without even the implied warranty of
   MERCHANTABILITY or FITNESS FOR A PARTICULAR PURPOSE.  See the
   GNU Lesser General Public License for more details.
   
   Cite this work as:
   * C. Bannwarth, E. Caldeweyher, S. Ehlert, A. Hansen, P. Pracht,
     J. Seibert, S. Spicher, S. Grimme, WIREs Comput. Mol. Sci., 2020, 11,
     e01493. DOI: 10.1002/wcms.1493
   
   for GFN2-xTB:
   * C. Bannwarth, S. Ehlert and S. Grimme., J. Chem. Theory Comput., 2019,
     15, 1652-1671. DOI: 10.1021/acs.jctc.8b01176
   for GFN1-xTB:
   * S. Grimme, C. Bannwarth, P. Shushkov, J. Chem. Theory Comput., 2017,
     13, 1989-2009. DOI: 10.1021/acs.jctc.7b00118
   for GFN0-xTB:
   * P. Pracht, E. Caldeweyher, S. Ehlert, S. Grimme, ChemRxiv, 2019, preprint.
     DOI: 10.26434/chemrxiv.8326202.v1
   for GFN-FF:
   * S. Spicher and S. Grimme, Angew. Chem. Int. Ed., 2020, 59, 15665-15673.
     DOI: 10.1002/anie.202004239
   
   for ALPB and GBSA implicit solvation:
   * S. Ehlert, M. Stahn, S. Spicher, S. Grimme, J. Chem. Theory Comput.,
     2021, 17, 4250-4261. DOI: 10.1021/acs.jctc.1c00471
   
   for ddCOSMO and CPCM-X implicit solvation:
   * M. Stahn, S. Ehlert, S. Grimme, J. Phys. Chem. A,
     2023, XX, XXXX-XXXX. DOI: 10.1021/acs.jpca.3c04382
   
   for DFT-D4:
   * E. Caldeweyher, C. Bannwarth and S. Grimme, J. Chem. Phys., 2017,
     147, 034112. DOI: 10.1063/1.4993215
   * E. Caldeweyher, S. Ehlert, A. Hansen, H. Neugebauer, S. Spicher,
     C. Bannwarth and S. Grimme, J. Chem. Phys., 2019, 150, 154122.
     DOI: 10.1063/1.5090222
   * E. Caldeweyher, J.-M. Mewes, S. Ehlert and S. Grimme, Phys. Chem. Chem. Phys.
     2020, 22, 8499-8512. DOI: 10.1039/D0CP00502A
   
   for sTDA-xTB:
   * S. Grimme and C. Bannwarth, J. Chem. Phys., 2016, 145, 054103.
     DOI: 10.1063/1.4959605
   
   in the mass-spec context:
   * V. Asgeirsson, C. Bauer and S. Grimme, Chem. Sci., 2017, 8, 4879.
     DOI: 10.1039/c7sc00601b
   * J. Koopman and S. Grimme, ACS Omega 2019, 4, 12, 15120-15133.
     DOI: 10.1021/acsomega.9b02011
   
   for metadynamics refer to:
   * S. Grimme, J. Chem. Theory Comput., 2019, 155, 2847-2862
     DOI: 10.1021/acs.jctc.9b00143
   
   for SPH calculations refer to:
   * S. Spicher and S. Grimme, J. Chem. Theory Comput., 2021, 17, 1701-1714
     DOI: 10.1021/acs.jctc.0c01306
   
   for ONIOM refer to:
   * C. Plett, A. Katbashev, S. Ehlert, S. Grimme, M. Bursch,
     Phys. Chem. Chem. Phys., 2023, 25, 17860-17868. DOI: 10.1039/D3CP02178E
   
   for DIPRO refer to:
   * J. Kohn, N. Gildemeister, S. Grimme, D. Fazzi, A. Hansen,
     J. Chem. Phys., 2023, just accepted.
   
   for PTB refer to:
   * S. Grimme, M. Mueller, A. Hansen, J. Chem. Phys., 2023, 158, 124111.
     DOI: 10.1063/5.0137838
   
   with help from (in alphabetical order)
   P. Atkinson, C. Bannwarth, F. Bohle, G. Brandenburg, E. Caldeweyher
   M. Checinski, S. Dohm, S. Ehlert, S. Ehrlich, I. Gerasimov, C. Hölzer
   A. Katbashev, J. Kohn, J. Koopman, C. Lavigne, S. Lehtola, F. März, M. Müller,
   F. Musil, H. Neugebauer, J. Pisarek, C. Plett, P. Pracht, F. Pultar,
   J. Seibert, P. Shushkov, S. Spicher, M. Stahn, M. Steiner, T. Strunk,
   J. Stückrath, T. Rose, and J. Unsleber
   
 * started run on 2025/12/01 at 14:18:36.928     
   ID    Z sym.   atoms
    1    6 C      1-4, 7, 8, 10, 11, 13
    2    8 O      5, 6, 14
    3    7 N      9, 12
    4    1 H      15-28

           -------------------------------------------------
          |                Calculation Setup                |
           -------------------------------------------------

          program call               : xtb pipeline_data/3_conformer_xyz/acrylates/rdkit/PFPUZMSQZJFLBK-UHFFFAOYSA-N_conf56.xyz --opt --gfn 2-xTB --iterations 250
          coordinate file            : pipeline_data/3_conformer_xyz/acrylates/rdkit/PFPUZMSQZJFLBK-UHFFFAOYSA-N_conf56.xyz
          omp threads                :                    24

########################################################################
[WARNING] Please study the warnings concerning your input carefully
-1- readin_getIntValue: could not parse '2-xTB'
########################################################################

           -------------------------------------------------
          |                 G F N 2 - x T B                 |
           -------------------------------------------------

        Reference                      10.1021/acs.jctc.8b01176
      * Hamiltonian:
        H0-scaling (s, p, d)           1.850000    2.230000    2.230000
        zeta-weighting                 0.500000
      * Dispersion:
        s8                             2.700000
        a1                             0.520000
        a2                             5.000000
        s9                             5.000000
      * Repulsion:
        kExp                           1.500000    1.000000
        rExp                           1.000000
      * Coulomb:
        alpha                          2.000000
        third order                    shell-resolved
        anisotropic                    true
        a3                             3.000000
        a5                             4.000000
        cn-shift                       1.200000
        cn-exp                         4.000000
        max-rad                        5.000000


          ...................................................
          :                      SETUP                      :
          :.................................................:
          :  # basis functions                  70          :
          :  # atomic orbitals                  70          :
          :  # shells                           42          :
          :  # electrons                        78          :
          :  max. iterations                   250          :
          :  Hamiltonian                  GFN2-xTB          :
          :  restarted?                      false          :
          :  GBSA solvation                  false          :
          :  PC potential                    false          :
          :  electronic temp.          300.0000000     K    :
          :  accuracy                    1.0000000          :
          :  -> integral cutoff          0.2500000E+02      :
          :  -> integral neglect         0.1000000E-07      :
          :  -> SCF convergence          0.1000000E-05 Eh   :
          :  -> wf. convergence          0.1000000E-03 e    :
          :  Broyden damping             0.4000000          :
          :  net charge                          0          :
          :  unpaired electrons                  0          :
          ...................................................

 iter      E             dE          RMSdq      gap      omega  full diag
   1    -44.7976166 -0.447976E+02  0.430E+00    2.26       0.0  T
   2    -44.8998345 -0.102218E+00  0.227E+00    2.66       1.0  T
   3    -44.9033254 -0.349087E-02  0.126E+00    2.69       1.0  T
   4    -44.9077386 -0.441318E-02  0.259E-01    2.54       1.0  T
   5    -44.9091019 -0.136325E-02  0.853E-02    2.65       1.0  T
   6    -44.9091111 -0.923374E-05  0.419E-02    2.64       1.0  T
   7    -44.9091104  0.667089E-06  0.239E-02    2.64       1.0  T
   8    -44.9091218 -0.113966E-04  0.668E-03    2.64       2.8  T
   9    -44.9091221 -0.244512E-06  0.234E-03    2.64       8.1  T
  10    -44.9091221 -0.173332E-07  0.848E-04    2.64      22.3  T
  11    -44.9091221 -0.253265E-08  0.285E-04    2.64      66.3  T

   *** convergence criteria satisfied after 11 iterations ***

         #    Occupation            Energy/Eh            Energy/eV
      -------------------------------------------------------------
         1        2.0000           -0.7295636             -19.8524
       ...           ...                  ...                  ...
        33        2.0000           -0.4556934             -12.4000
        34        2.0000           -0.4296619             -11.6917
        35        2.0000           -0.4227711             -11.5042
        36        2.0000           -0.4115732             -11.1995
        37        2.0000           -0.4004210             -10.8960
        38        2.0000           -0.3968979             -10.8001
        39        2.0000           -0.3805884             -10.3563 (HOMO)
        40                         -0.2836646              -7.7189 (LUMO)
        41                         -0.1991523              -5.4192
        42                         -0.1708409              -4.6488
        43                         -0.0873724              -2.3775
        44                         -0.0362889              -0.9875
       ...                                ...                  ...
        70                          0.6306317              17.1604
      -------------------------------------------------------------
                  HL-Gap            0.0969238 Eh            2.6374 eV
             Fermi-level           -0.3321265 Eh           -9.0376 eV

 SCC (total)                   0 d,  0 h,  0 min,  0.029 sec
 SCC setup                      ...        0 min,  0.001 sec (  1.964%)
 Dispersion                     ...        0 min,  0.001 sec (  2.362%)
 classical contributions        ...        0 min,  0.000 sec (  0.476%)
 integral evaluation            ...        0 min,  0.002 sec (  6.766%)
 iterations                     ...        0 min,  0.023 sec ( 78.567%)
 molecular gradient             ...        0 min,  0.003 sec (  9.102%)
 printout                       ...        0 min,  0.000 sec (  0.600%)

         :::::::::::::::::::::::::::::::::::::::::::::::::::::
         ::                     SUMMARY                     ::
         :::::::::::::::::::::::::::::::::::::::::::::::::::::
         :: total energy             -44.447767315155 Eh    ::
         :: gradient norm              0.176649360490 Eh/a0 ::
         :: HOMO-LUMO gap              2.637429915395 eV    ::
         ::.................................................::
         :: SCC energy               -44.909217730396 Eh    ::
         :: -> isotropic ES            0.097151672315 Eh    ::
         :: -> anisotropic ES          0.003813430001 Eh    ::
         :: -> anisotropic XC          0.013690916661 Eh    ::
         :: -> dispersion             -0.021123570394 Eh    ::
         :: repulsion energy           0.461450415240 Eh    ::
         :: add. restraining           0.000000000000 Eh    ::
         :: total charge              -0.000000000000 e     ::
         :::::::::::::::::::::::::::::::::::::::::::::::::::::

      ----------------------------------------------------------- 
     |                   =====================                   |
     |                        A N C O P T                        |
     |                   =====================                   |
     |               Approximate Normal Coordinate               |
     |                Rational Function Optimizer                |
      ----------------------------------------------------------- 
      ----------------------------------------------------------- 
     |                   =====================                   |
     |                        A N C O P T                        |
     |                   =====================                   |
     |               Approximate Normal Coordinate               |
     |                Rational Function Optimizer                |
      ----------------------------------------------------------- 

          ...................................................
          :                      SETUP                      :
          :.................................................:
          :   optimization level            normal          :
          :   max. optcycles                   200          :
          :   ANC micro-cycles                  20          :
          :   degrees of freedom                78          :
          :.................................................:
          :   RF solver                   davidson          :
          :   write xtbopt.log                true          :
          :   linear?                        false          :
          :   energy convergence         0.5000000E-05 Eh   :
          :   grad. convergence          0.1000000E-02 Eh/α :
          :   maxmium RF displ.          1.0000000          :
          :   Hlow (freq-cutoff)         0.1000000E-01      :
          :   Hmax (freq-cutoff)         5.0000000          :
          :   S6 in model hess.         20.0000000          :
          ...................................................

generating ANC from exact Hessian ...
Using Lindh-Hessian (1995)
 Shifting diagonal of input Hessian by   9.378153591965397E-003
 Lowest  eigenvalues of input Hessian
    0.000000    0.000000    0.000000    0.000000    0.000000    0.000000
    0.010000    0.010165    0.010363    0.012337    0.013458    0.014408
    0.018030    0.019028    0.021870    0.022735    0.024533    0.026316
 Highest eigenvalues
    1.577241    1.804178    1.841413    1.880124    2.127687    2.218800
 

........................................................................
.............................. CYCLE    1 ..............................
........................................................................

 iter      E             dE          RMSdq      gap      omega  full diag
   1    -44.9091221 -0.449091E+02  0.102E-04    2.64       0.0  T
   2    -44.9091221 -0.519762E-10  0.552E-05    2.64     342.2  T
   3    -44.9091221 -0.944311E-11  0.369E-05    2.64     512.7  T
     SCC iter.                  ...        0 min,  0.004 sec
     gradient                   ...        0 min,  0.002 sec
 * total energy  :   -44.4477673 Eh     change       -0.4763479E-09 Eh
   gradient norm :     0.1766497 Eh/α   predicted     0.0000000E+00 (-100.00%)
   displ. norm   :     0.3544392 α      lambda       -0.3541111E-01
   maximum displ.:     0.1250663 α      in ANC's #37, #21, #9, ...

........................................................................
.............................. CYCLE    2 ..............................
........................................................................

 iter      E             dE          RMSdq      gap      omega  full diag
   1    -44.9667435 -0.449667E+02  0.291E-01    2.81       0.0  T
   2    -44.9673005 -0.557001E-03  0.185E-01    2.80       1.0  T
   3    -44.9673298 -0.293456E-04  0.894E-02    2.80       1.0  T
   4    -44.9673508 -0.209499E-04  0.242E-02    2.80       1.0  T
   5    -44.9673599 -0.912231E-05  0.119E-02    2.80       1.6  T
   6    -44.9673624 -0.246463E-05  0.471E-03    2.80       4.0  T
   7    -44.9673625 -0.120789E-06  0.157E-03    2.80      12.1  T
   8    -44.9673625 -0.639828E-08  0.695E-04    2.80      27.2  T
   9    -44.9673625 -0.221308E-08  0.197E-04    2.80      96.1  T
     SCC iter.                  ...        0 min,  0.011 sec
     gradient                   ...        0 min,  0.002 sec
 * total energy  :   -44.4724413 Eh     change       -0.2467395E-01 Eh
   gradient norm :     0.0671124 Eh/α   predicted    -0.1994583E-01 ( -19.16%)
   displ. norm   :     0.3505166 α      lambda       -0.1045635E-01
   maximum displ.:     0.1522650 α      in ANC's #7, #9, #37, ...

........................................................................
.............................. CYCLE    3 ..............................
........................................................................

 iter      E             dE          RMSdq      gap      omega  full diag
   1    -44.9969873 -0.449970E+02  0.212E-01    2.93       0.0  T
   2    -44.9971994 -0.212060E-03  0.131E-01    2.96       1.0  T
   3    -44.9972045 -0.512511E-05  0.536E-02    2.95       1.0  T
   4    -44.9972150 -0.105248E-04  0.102E-02    2.95       1.8  T
   5    -44.9972159 -0.839046E-06  0.506E-03    2.95       3.7  T
   6    -44.9972159 -0.798310E-07  0.315E-03    2.96       6.0  T
   7    -44.9972161 -0.164430E-06  0.928E-04    2.96      20.4  T
   8    -44.9972161 -0.553608E-08  0.386E-04    2.96      49.0  T
     SCC iter.                  ...        0 min,  0.010 sec
     gradient                   ...        0 min,  0.002 sec
 * total energy  :   -44.4783556 Eh     change       -0.5914305E-02 Eh
   gradient norm :     0.0218207 Eh/α   predicted    -0.5873567E-02 (  -0.69%)
   displ. norm   :     0.2539333 α      lambda       -0.1719636E-02
   maximum displ.:     0.1391416 α      in ANC's #7, #9, #5, ...

........................................................................
.............................. CYCLE    4 ..............................
........................................................................

 iter      E             dE          RMSdq      gap      omega  full diag
   1    -44.9982435 -0.449982E+02  0.991E-02    2.97       0.0  T
   2    -44.9982845 -0.410049E-04  0.617E-02    2.99       1.0  T
   3    -44.9982840  0.524986E-06  0.249E-02    2.99       1.0  T
   4    -44.9982839  0.864054E-07  0.105E-02    2.99       1.8  T
   5    -44.9982864 -0.246637E-05  0.254E-03    2.99       7.4  T
   6    -44.9982865 -0.101520E-06  0.988E-04    2.99      19.1  T
   7    -44.9982865 -0.477029E-08  0.312E-04    2.99      60.6  T
     SCC iter.                  ...        0 min,  0.016 sec
     gradient                   ...        0 min,  0.006 sec
 * total energy  :   -44.4795526 Eh     change       -0.1196993E-02 Eh
   gradient norm :     0.0114073 Eh/α   predicted    -0.9153367E-03 ( -23.53%)
   displ. norm   :     0.2793026 α      lambda       -0.9859621E-03
   maximum displ.:     0.1427411 α      in ANC's #9, #7, #5, ...

........................................................................
.............................. CYCLE    5 ..............................
........................................................................

 iter      E             dE          RMSdq      gap      omega  full diag
   1    -44.9986208 -0.449986E+02  0.878E-02    3.00       0.0  T
   2    -44.9986581 -0.373332E-04  0.546E-02    3.02       1.0  T
   3    -44.9986589 -0.743473E-06  0.231E-02    3.02       1.0  T
   4    -44.9986598 -0.908506E-06  0.463E-03    3.02       4.1  T
   5    -44.9986601 -0.306705E-06  0.188E-03    3.02      10.0  T
   6    -44.9986601 -0.310170E-07  0.104E-03    3.02      18.2  T
   7    -44.9986601 -0.126709E-07  0.267E-04    3.02      70.8  T
   8    -44.9986601 -0.543359E-09  0.826E-05    3.02     228.8  T
     SCC iter.                  ...        0 min,  0.018 sec
     gradient                   ...        0 min,  0.002 sec
 * total energy  :   -44.4801233 Eh     change       -0.5707800E-03 Eh
   gradient norm :     0.0081762 Eh/α   predicted    -0.5314441E-03 (  -6.89%)
   displ. norm   :     0.1471482 α      lambda       -0.3005473E-03
   maximum displ.:     0.0665964 α      in ANC's #6, #5, #9, ...

........................................................................
.............................. CYCLE    6 ..............................
........................................................................

 iter      E             dE          RMSdq      gap      omega  full diag
   1    -44.9997094 -0.449997E+02  0.480E-02    3.03       0.0  T
   2    -44.9997127 -0.325114E-05  0.284E-02    3.03       1.0  T
   3    -44.9997118  0.865687E-06  0.950E-03    3.04       2.0  T
   4    -44.9997128 -0.947406E-06  0.435E-03    3.04       4.3  T
   5    -44.9997132 -0.397503E-06  0.124E-03    3.04      15.2  T
   6    -44.9997132 -0.807797E-08  0.548E-04    3.04      34.5  T
   7    -44.9997132 -0.114679E-08  0.967E-05    3.04     195.4  T
     SCC iter.                  ...        0 min,  0.009 sec
     gradient                   ...        0 min,  0.002 sec
 * total energy  :   -44.4803281 Eh     change       -0.2047309E-03 Eh
   gradient norm :     0.0063277 Eh/α   predicted    -0.1535323E-03 ( -25.01%)
   displ. norm   :     0.1962480 α      lambda       -0.2929101E-03
   maximum displ.:     0.1048420 α      in ANC's #6, #5, #3, ...

........................................................................
.............................. CYCLE    7 ..............................
........................................................................

 iter      E             dE          RMSdq      gap      omega  full diag
   1    -45.0003164 -0.450003E+02  0.684E-02    3.05       0.0  T
   2    -45.0003186 -0.217589E-05  0.399E-02    3.05       1.0  T
   3    -45.0003166  0.194306E-05  0.112E-02    3.05       1.7  T
   4    -45.0003191 -0.251484E-05  0.389E-03    3.05       4.9  T
   5    -45.0003193 -0.181447E-06  0.155E-03    3.05      12.2  T
   6    -45.0003193 -0.496319E-08  0.354E-04    3.05      53.4  T
   7    -45.0003193 -0.117044E-08  0.123E-04    3.05     153.2  T
     SCC iter.                  ...        0 min,  0.009 sec
     gradient                   ...        0 min,  0.002 sec
 * total energy  :   -44.4805601 Eh     change       -0.2319836E-03 Eh
   gradient norm :     0.0057624 Eh/α   predicted    -0.1520970E-03 ( -34.44%)
   displ. norm   :     0.3503342 α      lambda       -0.4622134E-03
   maximum displ.:     0.1851854 α      in ANC's #6, #5, #3, ...

........................................................................
.............................. CYCLE    8 ..............................
........................................................................

 iter      E             dE          RMSdq      gap      omega  full diag
   1    -44.9992404 -0.449992E+02  0.136E-01    3.08       0.0  T
   2    -44.9992510 -0.105544E-04  0.789E-02    3.08       1.0  T
   3    -44.9992492  0.174692E-05  0.161E-02    3.08       1.2  T
   4    -44.9992525 -0.324273E-05  0.784E-03    3.08       2.4  T
   5    -44.9992534 -0.895725E-06  0.335E-03    3.08       5.6  T
   6    -44.9992534 -0.576825E-07  0.825E-04    3.08      22.9  T
   7    -44.9992534 -0.716741E-08  0.254E-04    3.08      74.5  T
     SCC iter.                  ...        0 min,  0.009 sec
     gradient                   ...        0 min,  0.002 sec
 * total energy  :   -44.4808978 Eh     change       -0.3377014E-03 Eh
   gradient norm :     0.0081010 Eh/α   predicted    -0.2594721E-03 ( -23.17%)
   displ. norm   :     0.3105103 α      lambda       -0.3714267E-03
   maximum displ.:     0.1466868 α      in ANC's #6, #3, #2, ...

........................................................................
.............................. CYCLE    9 ..............................
........................................................................

 iter      E             dE          RMSdq      gap      omega  full diag
   1    -44.9980922 -0.449981E+02  0.128E-01    3.12       0.0  T
   2    -44.9981057 -0.135039E-04  0.743E-02    3.11       1.0  T
   3    -44.9981063 -0.531862E-06  0.132E-02    3.11       1.4  T
   4    -44.9981076 -0.131438E-05  0.460E-03    3.11       4.1  T
   5    -44.9981076 -0.408621E-07  0.279E-03    3.11       6.8  T
   6    -44.9981077 -0.701562E-07  0.112E-03    3.11      16.9  T
   7    -44.9981077 -0.221712E-07  0.271E-04    3.11      69.8  T
   8    -44.9981077 -0.412733E-09  0.111E-04    3.11     170.9  T
     SCC iter.                  ...        0 min,  0.010 sec
     gradient                   ...        0 min,  0.003 sec
 * total energy  :   -44.4811491 Eh     change       -0.2513666E-03 Eh
   gradient norm :     0.0085085 Eh/α   predicted    -0.2036353E-03 ( -18.99%)
   displ. norm   :     0.1704420 α      lambda       -0.2845781E-03
   maximum displ.:     0.0844854 α      in ANC's #3, #8, #4, ...

........................................................................
.............................. CYCLE   10 ..............................
........................................................................

 iter      E             dE          RMSdq      gap      omega  full diag
   1    -44.9998567 -0.449999E+02  0.682E-02    3.12       0.0  T
   2    -44.9998608 -0.417314E-05  0.397E-02    3.12       1.0  T
   3    -44.9998592  0.162719E-05  0.110E-02    3.12       1.7  T
   4    -44.9998610 -0.181685E-05  0.492E-03    3.12       3.8  T
   5    -44.9998615 -0.497962E-06  0.146E-03    3.12      12.9  T
   6    -44.9998615 -0.470772E-08  0.582E-04    3.12      32.5  T
   7    -44.9998615 -0.220700E-08  0.147E-04    3.12     128.6  T
     SCC iter.                  ...        0 min,  0.009 sec
     gradient                   ...        0 min,  0.003 sec
 * total energy  :   -44.4813376 Eh     change       -0.1884532E-03 Eh
   gradient norm :     0.0054179 Eh/α   predicted    -0.1464250E-03 ( -22.30%)
   displ. norm   :     0.1680756 α      lambda       -0.1601223E-03
   maximum displ.:     0.0793116 α      in ANC's #3, #2, #8, ...

........................................................................
.............................. CYCLE   11 ..............................
........................................................................

 iter      E             dE          RMSdq      gap      omega  full diag
   1    -44.9988331 -0.449988E+02  0.653E-02    3.13       0.0  T
   2    -44.9988353 -0.217873E-05  0.384E-02    3.14       1.0  T
   3    -44.9988318  0.344992E-05  0.137E-02    3.14       1.4  T
   4    -44.9988358 -0.401099E-05  0.335E-03    3.14       5.6  T
   5    -44.9988360 -0.180044E-06  0.126E-03    3.14      15.0  T
   6    -44.9988360 -0.284812E-08  0.406E-04    3.14      46.5  T
   7    -44.9988360 -0.107342E-08  0.129E-04    3.14     147.0  T
     SCC iter.                  ...        0 min,  0.009 sec
     gradient                   ...        0 min,  0.002 sec
 * total energy  :   -44.4814270 Eh     change       -0.8938262E-04 Eh
   gradient norm :     0.0041460 Eh/α   predicted    -0.8232430E-04 (  -7.90%)
   displ. norm   :     0.1079250 α      lambda       -0.1142780E-03
   maximum displ.:     0.0493634 α      in ANC's #3, #11, #5, ...

........................................................................
.............................. CYCLE   12 ..............................
........................................................................

 iter      E             dE          RMSdq      gap      omega  full diag
   1    -45.0003249 -0.450003E+02  0.347E-02    3.13       0.0  T
   2    -45.0003261 -0.116632E-05  0.205E-02    3.13       1.0  T
   3    -45.0003242  0.181929E-05  0.110E-02    3.13       1.7  T
   4    -45.0003264 -0.216431E-05  0.230E-03    3.13       8.2  T
   5    -45.0003265 -0.117277E-06  0.656E-04    3.13      28.8  T
   6    -45.0003265 -0.225542E-08  0.292E-04    3.13      64.8  T
     SCC iter.                  ...        0 min,  0.007 sec
     gradient                   ...        0 min,  0.002 sec
 * total energy  :   -44.4814772 Eh     change       -0.5022143E-04 Eh
   gradient norm :     0.0052366 Eh/α   predicted    -0.5780660E-04 (  15.10%)
   displ. norm   :     0.0767930 α      lambda       -0.5533768E-04
   maximum displ.:     0.0420213 α      in ANC's #2, #3, #7, ...

........................................................................
.............................. CYCLE   13 ..............................
........................................................................

 iter      E             dE          RMSdq      gap      omega  full diag
   1    -44.9996614 -0.449997E+02  0.242E-02    3.13       0.0  T
   2    -44.9996619 -0.493732E-06  0.142E-02    3.13       1.3  T
   3    -44.9996618  0.892888E-07  0.322E-03    3.13       5.9  T
   4    -44.9996619 -0.116832E-06  0.114E-03    3.13      16.5  T
   5    -44.9996620 -0.267738E-07  0.435E-04    3.13      43.5  T
   6    -44.9996620 -0.186064E-08  0.197E-04    3.13      96.1  T
     SCC iter.                  ...        0 min,  0.008 sec
     gradient                   ...        0 min,  0.002 sec
 * total energy  :   -44.4815230 Eh     change       -0.4580646E-04 Eh
   gradient norm :     0.0037178 Eh/α   predicted    -0.2784735E-04 ( -39.21%)
   displ. norm   :     0.1907095 α      lambda       -0.1149299E-03
   maximum displ.:     0.0941286 α      in ANC's #2, #3, #5, ...

........................................................................
.............................. CYCLE   14 ..............................
........................................................................

 iter      E             dE          RMSdq      gap      omega  full diag
   1    -44.9992884 -0.449993E+02  0.551E-02    3.13       0.0  T
   2    -44.9992897 -0.133521E-05  0.320E-02    3.13       1.0  T
   3    -44.9992897  0.593842E-07  0.421E-03    3.13       4.5  T
   4    -44.9992899 -0.210084E-06  0.117E-03    3.13      16.2  T
   5    -44.9992899 -0.983235E-08  0.662E-04    3.13      28.5  T
   6    -44.9992899 -0.880434E-10  0.368E-04    3.13      51.3  T
     SCC iter.                  ...        0 min,  0.009 sec
     gradient                   ...        0 min,  0.002 sec
 * total energy  :   -44.4815982 Eh     change       -0.7519257E-04 Eh
   gradient norm :     0.0031735 Eh/α   predicted    -0.5955716E-04 ( -20.79%)
   displ. norm   :     0.1872449 α      lambda       -0.5860387E-04
   maximum displ.:     0.0952954 α      in ANC's #2, #3, #8, ...

........................................................................
.............................. CYCLE   15 ..............................
........................................................................

 iter      E             dE          RMSdq      gap      omega  full diag
   1    -44.9983347 -0.449983E+02  0.556E-02    3.14       0.0  T
   2    -44.9983357 -0.937556E-06  0.323E-02    3.13       1.0  T
   3    -44.9983356  0.963922E-07  0.389E-03    3.14       4.9  T
   4    -44.9983358 -0.192107E-06  0.192E-03    3.13       9.8  T
   5    -44.9983358 -0.656757E-07  0.841E-04    3.13      22.5  T
   6    -44.9983358 -0.371710E-08  0.285E-04    3.13      66.2  T
     SCC iter.                  ...        0 min,  0.008 sec
     gradient                   ...        0 min,  0.002 sec
 * total energy  :   -44.4816391 Eh     change       -0.4089576E-04 Eh
   gradient norm :     0.0041958 Eh/α   predicted    -0.3033195E-04 ( -25.83%)
   displ. norm   :     0.1908164 α      lambda       -0.6281306E-04
   maximum displ.:     0.0959925 α      in ANC's #2, #3, #8, ...

........................................................................
.............................. CYCLE   16 ..............................
........................................................................

 iter      E             dE          RMSdq      gap      omega  full diag
   1    -44.9990120 -0.449990E+02  0.573E-02    3.13       0.0  T
   2    -44.9990132 -0.122984E-05  0.334E-02    3.13       1.0  T
   3    -44.9990132 -0.258375E-09  0.347E-03    3.13       5.4  T
   4    -44.9990133 -0.151345E-06  0.139E-03    3.13      13.6  T
   5    -44.9990134 -0.168411E-07  0.884E-04    3.13      21.4  T
   6    -44.9990134 -0.692071E-08  0.373E-04    3.13      50.6  T
     SCC iter.                  ...        0 min,  0.007 sec
     gradient                   ...        0 min,  0.002 sec
 * total energy  :   -44.4816810 Eh     change       -0.4191562E-04 Eh
   gradient norm :     0.0030019 Eh/α   predicted    -0.3255238E-04 ( -22.34%)
   displ. norm   :     0.1406181 α      lambda       -0.4198006E-04
   maximum displ.:     0.0720186 α      in ANC's #2, #8, #3, ...

........................................................................
.............................. CYCLE   17 ..............................
........................................................................

 iter      E             dE          RMSdq      gap      omega  full diag
   1    -44.9992002 -0.449992E+02  0.469E-02    3.14       0.0  T
   2    -44.9992010 -0.840406E-06  0.274E-02    3.14       1.0  T
   3    -44.9992010  0.201039E-07  0.330E-03    3.14       5.7  T
   4    -44.9992012 -0.131432E-06  0.140E-03    3.14      13.5  T
   5    -44.9992012 -0.196753E-07  0.806E-04    3.14      23.4  T
   6    -44.9992012 -0.453771E-08  0.311E-04    3.14      60.7  T
     SCC iter.                  ...        0 min,  0.008 sec
     gradient                   ...        0 min,  0.009 sec
 * total energy  :   -44.4817084 Eh     change       -0.2740079E-04 Eh
   gradient norm :     0.0022313 Eh/α   predicted    -0.2140632E-04 ( -21.88%)
   displ. norm   :     0.0746686 α      lambda       -0.2686014E-04
   maximum displ.:     0.0420846 α      in ANC's #2, #8, #1, ...

........................................................................
.............................. CYCLE   18 ..............................
........................................................................

 iter      E             dE          RMSdq      gap      omega  full diag
   1    -45.0002651 -0.450003E+02  0.308E-02    3.14       0.0  T
   2    -45.0002657 -0.597690E-06  0.180E-02    3.14       1.0  T
   3    -45.0002658 -0.238201E-07  0.220E-03    3.14       8.6  T
   4    -45.0002658 -0.296184E-07  0.984E-04    3.14      19.2  T
   5    -45.0002658 -0.110025E-07  0.577E-04    3.14      32.8  T
     SCC iter.                  ...        0 min,  0.006 sec
     gradient                   ...        0 min,  0.002 sec
 * total energy  :   -44.4817254 Eh     change       -0.1705246E-04 Eh
   gradient norm :     0.0018361 Eh/α   predicted    -0.1350704E-04 ( -20.79%)
   displ. norm   :     0.1766301 α      lambda       -0.2277374E-04
   maximum displ.:     0.1027125 α      in ANC's #2, #8, #6, ...

........................................................................
.............................. CYCLE   19 ..............................
........................................................................

 iter      E             dE          RMSdq      gap      omega  full diag
   1    -44.9996615 -0.449997E+02  0.668E-02    3.14       0.0  T
   2    -44.9996626 -0.106447E-05  0.390E-02    3.14       1.0  T
   3    -44.9996622  0.389178E-06  0.577E-03    3.14       3.3  T
   4    -44.9996627 -0.567052E-06  0.270E-03    3.14       7.0  T
   5    -44.9996629 -0.122191E-06  0.106E-03    3.14      17.8  T
   6    -44.9996629 -0.214340E-08  0.228E-04    3.14      83.0  T
   7    -44.9996629 -0.288551E-09  0.114E-04    3.14     166.1  T
     SCC iter.                  ...        0 min,  0.009 sec
     gradient                   ...        0 min,  0.003 sec
 * total energy  :   -44.4817466 Eh     change       -0.2113641E-04 Eh
   gradient norm :     0.0027841 Eh/α   predicted    -0.1154746E-04 ( -45.37%)
   displ. norm   :     0.1067555 α      lambda       -0.3097552E-04
   maximum displ.:     0.0593886 α      in ANC's #2, #8, #5, ...

........................................................................
.............................. CYCLE   20 ..............................
........................................................................

 iter      E             dE          RMSdq      gap      omega  full diag
   1    -45.0000561 -0.450001E+02  0.415E-02    3.14       0.0  T
   2    -45.0000564 -0.320500E-06  0.242E-02    3.14       1.0  T
   3    -45.0000563  0.913606E-07  0.338E-03    3.14       5.6  T
   4    -45.0000565 -0.195074E-06  0.136E-03    3.14      13.9  T
   5    -45.0000565 -0.172014E-07  0.778E-04    3.14      24.3  T
   6    -45.0000565 -0.439542E-08  0.213E-04    3.14      88.8  T
     SCC iter.                  ...        0 min,  0.008 sec
     gradient                   ...        0 min,  0.003 sec
 * total energy  :   -44.4817708 Eh     change       -0.2425850E-04 Eh
   gradient norm :     0.0024705 Eh/α   predicted    -0.1566606E-04 ( -35.42%)
   displ. norm   :     0.1800253 α      lambda       -0.4371641E-04
   maximum displ.:     0.1045093 α      in ANC's #2, #8, #1, ...
 * RMSD in coord.:     0.5139371 α      energy gain  -0.3400353E-01 Eh

generating ANC from exact Hessian ...
Using Lindh-Hessian (1995)
 Shifting diagonal of input Hessian by   9.354794891710719E-003
 Lowest  eigenvalues of input Hessian
    0.000000    0.000000    0.000000    0.000000    0.000000    0.000000
    0.010000    0.010248    0.010418    0.012459    0.013669    0.014883
    0.018762    0.019174    0.021963    0.022101    0.027676    0.029713
 Highest eigenvalues
    1.690328    1.831367    1.920438    2.061116    2.375178    2.543298
 

........................................................................
.............................. CYCLE   21 ..............................
........................................................................

 iter      E             dE          RMSdq      gap      omega  full diag
   1    -44.9996747 -0.449997E+02  0.743E-02    3.13       0.0  T
   2    -44.9996758 -0.116443E-05  0.434E-02    3.13       1.0  T
   3    -44.9996752  0.651196E-06  0.702E-03    3.13       2.7  T
   4    -44.9996761 -0.925787E-06  0.280E-03    3.13       6.7  T
   5    -44.9996762 -0.115631E-06  0.125E-03    3.13      15.1  T
   6    -44.9996762 -0.434879E-08  0.405E-04    3.13      46.7  T
   7    -44.9996762 -0.141299E-08  0.141E-04    3.13     134.0  T
     SCC iter.                  ...        0 min,  0.009 sec
     gradient                   ...        0 min,  0.002 sec
 * total energy  :   -44.4818013 Eh     change       -0.3048877E-04 Eh
   gradient norm :     0.0031087 Eh/α   predicted     0.0000000E+00 (-100.00%)
   displ. norm   :     0.0187189 α      lambda       -0.8402263E-05
   maximum displ.:     0.0088755 α      in ANC's #8, #6, #2, ...

........................................................................
.............................. CYCLE   22 ..............................
........................................................................

 iter      E             dE          RMSdq      gap      omega  full diag
   1    -45.0001170 -0.450001E+02  0.108E-02    3.14       0.0  T
   2    -45.0001172 -0.144355E-06  0.639E-03    3.14       3.0  T
   3    -45.0001170  0.168386E-06  0.325E-03    3.14       5.8  T
   4    -45.0001172 -0.192607E-06  0.830E-04    3.14      22.8  T
   5    -45.0001172 -0.146232E-07  0.162E-04    3.14     117.0  T
     SCC iter.                  ...        0 min,  0.007 sec
     gradient                   ...        0 min,  0.003 sec
 * total energy  :   -44.4818126 Eh     change       -0.1131633E-04 Eh
   gradient norm :     0.0012755 Eh/α   predicted    -0.7306516E-05 ( -35.43%)
   displ. norm   :     0.0697380 α      lambda       -0.1894036E-04
   maximum displ.:     0.0326817 α      in ANC's #8, #6, #2, ...

........................................................................
.............................. CYCLE   23 ..............................
........................................................................

 iter      E             dE          RMSdq      gap      omega  full diag
   1    -45.0006080 -0.450006E+02  0.353E-02    3.14       0.0  T
   2    -45.0006086 -0.551332E-06  0.207E-02    3.14       1.0  T
   3    -45.0006076  0.932043E-06  0.694E-03    3.14       2.7  T
   4    -45.0006087 -0.102969E-05  0.167E-03    3.14      11.3  T
   5    -45.0006087 -0.596056E-07  0.454E-04    3.14      41.6  T
   6    -45.0006087 -0.410793E-09  0.149E-04    3.14     126.7  T
     SCC iter.                  ...        0 min,  0.008 sec
     gradient                   ...        0 min,  0.002 sec
 * total energy  :   -44.4818250 Eh     change       -0.1237343E-04 Eh
   gradient norm :     0.0028193 Eh/α   predicted    -0.9490958E-05 ( -23.30%)
   displ. norm   :     0.0239306 α      lambda       -0.8355742E-05
   maximum displ.:     0.0128070 α      in ANC's #2, #8, #6, ...

........................................................................
.............................. CYCLE   24 ..............................
........................................................................

 iter      E             dE          RMSdq      gap      omega  full diag
   1    -45.0003936 -0.450004E+02  0.122E-02    3.14       0.0  T
   2    -45.0003936 -0.485066E-07  0.724E-03    3.14       2.6  T
   3    -45.0003936  0.215564E-07  0.117E-03    3.14      16.2  T
   4    -45.0003936 -0.229234E-07  0.556E-04    3.14      34.0  T
   5    -45.0003936 -0.664570E-08  0.170E-04    3.14     111.2  T
     SCC iter.                  ...        0 min,  0.007 sec
     gradient                   ...        0 min,  0.003 sec
 * total energy  :   -44.4818314 Eh     change       -0.6347886E-05 Eh
   gradient norm :     0.0022064 Eh/α   predicted    -0.4181195E-05 ( -34.13%)
   displ. norm   :     0.0595397 α      lambda       -0.1609345E-04
   maximum displ.:     0.0325252 α      in ANC's #2, #8, #6, ...

........................................................................
.............................. CYCLE   25 ..............................
........................................................................

 iter      E             dE          RMSdq      gap      omega  full diag
   1    -44.9999270 -0.449999E+02  0.267E-02    3.13       0.0  T
   2    -44.9999274 -0.413338E-06  0.157E-02    3.14       1.2  T
   3    -44.9999271  0.314360E-06  0.422E-03    3.14       4.5  T
   4    -44.9999274 -0.328628E-06  0.161E-03    3.14      11.7  T
   5    -44.9999275 -0.585378E-07  0.405E-04    3.14      46.6  T
   6    -44.9999275 -0.307971E-09  0.147E-04    3.14     128.9  T
     SCC iter.                  ...        0 min,  0.008 sec
     gradient                   ...        0 min,  0.002 sec
 * total energy  :   -44.4818427 Eh     change       -0.1129857E-04 Eh
   gradient norm :     0.0010460 Eh/α   predicted    -0.8075958E-05 ( -28.52%)
   displ. norm   :     0.0999448 α      lambda       -0.9948481E-05
   maximum displ.:     0.0565008 α      in ANC's #2, #8, #3, ...

........................................................................
.............................. CYCLE   26 ..............................
........................................................................

 iter      E             dE          RMSdq      gap      omega  full diag
   1    -44.9996413 -0.449996E+02  0.432E-02    3.13       0.0  T
   2    -44.9996419 -0.649079E-06  0.254E-02    3.13       1.0  T
   3    -44.9996416  0.333436E-06  0.464E-03    3.13       4.1  T
   4    -44.9996420 -0.380332E-06  0.203E-03    3.13       9.3  T
   5    -44.9996421 -0.848174E-07  0.661E-04    3.13      28.6  T
   6    -44.9996421 -0.968399E-09  0.217E-04    3.13      86.9  T
     SCC iter.                  ...        0 min,  0.008 sec
     gradient                   ...        0 min,  0.003 sec
 * total energy  :   -44.4818517 Eh     change       -0.8992592E-05 Eh
   gradient norm :     0.0020691 Eh/α   predicted    -0.4997627E-05 ( -44.43%)
   displ. norm   :     0.0389665 α      lambda       -0.6212660E-05
   maximum displ.:     0.0241589 α      in ANC's #2, #8, #3, ...

........................................................................
.............................. CYCLE   27 ..............................
........................................................................

 iter      E             dE          RMSdq      gap      omega  full diag
   1    -44.9998711 -0.449999E+02  0.161E-02    3.13       0.0  T
   2    -44.9998712 -0.449072E-07  0.941E-03    3.13       2.0  T
   3    -44.9998712 -0.249145E-08  0.849E-04    3.13      22.2  T
   4    -44.9998712 -0.108669E-07  0.418E-04    3.13      45.2  T
     SCC iter.                  ...        0 min,  0.005 sec
     gradient                   ...        0 min,  0.003 sec
 * total energy  :   -44.4818571 Eh     change       -0.5416806E-05 Eh
   gradient norm :     0.0015339 Eh/α   predicted    -0.3112598E-05 ( -42.54%)
   displ. norm   :     0.1378263 α      lambda       -0.1312077E-04
   maximum displ.:     0.0889942 α      in ANC's #2, #8, #11, ...

........................................................................
.............................. CYCLE   28 ..............................
........................................................................

 iter      E             dE          RMSdq      gap      omega  full diag
   1    -45.0003564 -0.450004E+02  0.566E-02    3.13       0.0  T
   2    -45.0003568 -0.358461E-06  0.332E-02    3.13       1.0  T
   3    -45.0003568 -0.418159E-07  0.287E-03    3.13       6.6  T
   4    -45.0003569 -0.116140E-06  0.159E-03    3.13      11.9  T
   5    -45.0003569 -0.175882E-07  0.915E-04    3.13      20.7  T
   6    -45.0003570 -0.579915E-08  0.188E-04    3.13     100.3  T
     SCC iter.                  ...        0 min,  0.008 sec
     gradient                   ...        0 min,  0.002 sec
 * total energy  :   -44.4818687 Eh     change       -0.1162792E-04 Eh
   gradient norm :     0.0011067 Eh/α   predicted    -0.6616197E-05 ( -43.10%)
   displ. norm   :     0.0680516 α      lambda       -0.4267069E-05
   maximum displ.:     0.0486469 α      in ANC's #2, #8, #11, ...

........................................................................
.............................. CYCLE   29 ..............................
........................................................................

 iter      E             dE          RMSdq      gap      omega  full diag
   1    -45.0002685 -0.450003E+02  0.289E-02    3.13       0.0  T
   2    -45.0002686 -0.855905E-07  0.169E-02    3.13       1.1  T
   3    -45.0002687 -0.387535E-07  0.100E-03    3.13      18.8  T
   4    -45.0002687 -0.915477E-09  0.678E-04    3.13      27.9  T
   5    -45.0002687 -0.189336E-08  0.398E-04    3.13      47.5  T
     SCC iter.                  ...        0 min,  0.006 sec
     gradient                   ...        0 min,  0.003 sec
 * total energy  :   -44.4818743 Eh     change       -0.5631191E-05 Eh
   gradient norm :     0.0008403 Eh/α   predicted    -0.2140878E-05 ( -61.98%)
   displ. norm   :     0.0724810 α      lambda       -0.7271245E-05
   maximum displ.:     0.0536801 α      in ANC's #2, #11, #8, ...

........................................................................
.............................. CYCLE   30 ..............................
........................................................................

 iter      E             dE          RMSdq      gap      omega  full diag
   1    -45.0003862 -0.450004E+02  0.301E-02    3.14       0.0  T
   2    -45.0003865 -0.294442E-06  0.175E-02    3.14       1.1  T
   3    -45.0003864  0.218215E-07  0.232E-03    3.14       8.1  T
   4    -45.0003865 -0.679643E-07  0.132E-03    3.14      14.3  T
   5    -45.0003865 -0.279384E-07  0.585E-04    3.14      32.3  T
   6    -45.0003865 -0.117133E-08  0.193E-04    3.14      97.8  T
     SCC iter.                  ...        0 min,  0.014 sec
     gradient                   ...        0 min,  0.005 sec
 * total energy  :   -44.4818832 Eh     change       -0.8908357E-05 Eh
   gradient norm :     0.0005595 Eh/α   predicted    -0.3648084E-05 ( -59.05%)
   displ. norm   :     0.1140939 α      lambda       -0.8312569E-05
   maximum displ.:     0.0849996 α      in ANC's #2, #8, #11, ...

........................................................................
.............................. CYCLE   31 ..............................
........................................................................

 iter      E             dE          RMSdq      gap      omega  full diag
   1    -44.9998729 -0.449999E+02  0.487E-02    3.13       0.0  T
   2    -44.9998735 -0.588613E-06  0.284E-02    3.13       1.0  T
   3    -44.9998736 -0.926416E-07  0.249E-03    3.14       7.6  T
   4    -44.9998736 -0.339618E-07  0.166E-03    3.13      11.4  T
   5    -44.9998736 -0.333677E-07  0.876E-04    3.13      21.6  T
   6    -44.9998736 -0.433809E-08  0.195E-04    3.13      97.0  T
     SCC iter.                  ...        0 min,  0.014 sec
     gradient                   ...        0 min,  0.005 sec
 * total energy  :   -44.4818922 Eh     change       -0.8960871E-05 Eh
   gradient norm :     0.0011926 Eh/α   predicted    -0.4182102E-05 ( -53.33%)
   displ. norm   :     0.0846775 α      lambda       -0.5389866E-05
   maximum displ.:     0.0648045 α      in ANC's #2, #8, #11, ...

........................................................................
.............................. CYCLE   32 ..............................
........................................................................

 iter      E             dE          RMSdq      gap      omega  full diag
   1    -44.9999427 -0.449999E+02  0.344E-02    3.14       0.0  T
   2    -44.9999429 -0.257427E-06  0.199E-02    3.14       1.0  T
   3    -44.9999430 -0.550634E-07  0.160E-03    3.14      11.8  T
   4    -44.9999430 -0.223357E-07  0.909E-04    3.14      20.8  T
   5    -44.9999430 -0.216233E-08  0.572E-04    3.14      33.0  T
     SCC iter.                  ...        0 min,  0.013 sec
     gradient                   ...        0 min,  0.006 sec
 * total energy  :   -44.4818983 Eh     change       -0.6056744E-05 Eh
   gradient norm :     0.0009830 Eh/α   predicted    -0.2708060E-05 ( -55.29%)
   displ. norm   :     0.0998282 α      lambda       -0.6007243E-05
   maximum displ.:     0.0773126 α      in ANC's #2, #8, #11, ...

........................................................................
.............................. CYCLE   33 ..............................
........................................................................

 iter      E             dE          RMSdq      gap      omega  full diag
   1    -45.0000218 -0.450000E+02  0.425E-02    3.14       0.0  T
   2    -45.0000221 -0.285382E-06  0.248E-02    3.14       1.0  T
   3    -45.0000220  0.833986E-07  0.318E-03    3.14       5.9  T
   4    -45.0000222 -0.178725E-06  0.137E-03    3.14      13.8  T
   5    -45.0000222 -0.216541E-07  0.697E-04    3.14      27.1  T
   6    -45.0000222 -0.216932E-08  0.203E-04    3.14      92.9  T
     SCC iter.                  ...        0 min,  0.012 sec
     gradient                   ...        0 min,  0.002 sec
 * total energy  :   -44.4819050 Eh     change       -0.6741226E-05 Eh
   gradient norm :     0.0010328 Eh/α   predicted    -0.3022079E-05 ( -55.17%)
   displ. norm   :     0.1058324 α      lambda       -0.6344670E-05
   maximum displ.:     0.0818753 α      in ANC's #2, #8, #11, ...

........................................................................
.............................. CYCLE   34 ..............................
........................................................................

 iter      E             dE          RMSdq      gap      omega  full diag
   1    -45.0000685 -0.450001E+02  0.452E-02    3.14       0.0  T
   2    -45.0000686 -0.184015E-06  0.264E-02    3.14       1.0  T
   3    -45.0000687 -0.124882E-07  0.220E-03    3.14       8.6  T
   4    -45.0000687 -0.756380E-07  0.109E-03    3.14      17.3  T
   5    -45.0000687 -0.887658E-08  0.549E-04    3.14      34.4  T
   6    -45.0000687 -0.162214E-08  0.127E-04    3.14     148.8  T
     SCC iter.                  ...        0 min,  0.008 sec
     gradient                   ...        0 min,  0.002 sec
 * total energy  :   -44.4819125 Eh     change       -0.7523339E-05 Eh
   gradient norm :     0.0008458 Eh/α   predicted    -0.3192415E-05 ( -57.57%)
   displ. norm   :     0.1195482 α      lambda       -0.6223954E-05
   maximum displ.:     0.0945701 α      in ANC's #2, #8, #11, ...

........................................................................
.............................. CYCLE   35 ..............................
........................................................................

 iter      E             dE          RMSdq      gap      omega  full diag
   1    -45.0000685 -0.450001E+02  0.495E-02    3.14       0.0  T
   2    -45.0000687 -0.252371E-06  0.289E-02    3.14       1.0  T
   3    -45.0000687 -0.374143E-09  0.258E-03    3.14       7.3  T
   4    -45.0000688 -0.104392E-06  0.124E-03    3.14      15.2  T
   5    -45.0000688 -0.132937E-07  0.687E-04    3.14      27.5  T
   6    -45.0000689 -0.268615E-08  0.175E-04    3.14     108.3  T
     SCC iter.                  ...        0 min,  0.008 sec
     gradient                   ...        0 min,  0.002 sec
 * total energy  :   -44.4819200 Eh     change       -0.7519738E-05 Eh
   gradient norm :     0.0007626 Eh/α   predicted    -0.3134447E-05 ( -58.32%)
   displ. norm   :     0.1179106 α      lambda       -0.5480512E-05
   maximum displ.:     0.0951138 α      in ANC's #2, #8, #11, ...

........................................................................
.............................. CYCLE   36 ..............................
........................................................................

 iter      E             dE          RMSdq      gap      omega  full diag
   1    -45.0000147 -0.450000E+02  0.472E-02    3.14       0.0  T
   2    -45.0000149 -0.243414E-06  0.276E-02    3.14       1.0  T
   3    -45.0000150 -0.424792E-07  0.214E-03    3.14       8.8  T
   4    -45.0000150 -0.571441E-07  0.119E-03    3.14      15.8  T
   5    -45.0000150 -0.113840E-07  0.684E-04    3.14      27.6  T
   6    -45.0000151 -0.309323E-08  0.151E-04    3.14     125.4  T
     SCC iter.                  ...        0 min,  0.008 sec
     gradient                   ...        0 min,  0.002 sec
 * total energy  :   -44.4819270 Eh     change       -0.6991564E-05 Eh
   gradient norm :     0.0008407 Eh/α   predicted    -0.2761083E-05 ( -60.51%)
   displ. norm   :     0.1126592 α      lambda       -0.5578836E-05
   maximum displ.:     0.0926941 α      in ANC's #2, #8, #11, ...

........................................................................
.............................. CYCLE   37 ..............................
........................................................................

 iter      E             dE          RMSdq      gap      omega  full diag
   1    -45.0001246 -0.450001E+02  0.411E-02    3.14       0.0  T
   2    -45.0001248 -0.228497E-06  0.240E-02    3.14       1.0  T
   3    -45.0001249 -0.473445E-07  0.183E-03    3.14      10.3  T
   4    -45.0001249 -0.458714E-07  0.903E-04    3.14      20.9  T
   5    -45.0001249  0.819576E-09  0.548E-04    3.14      34.5  T
     SCC iter.                  ...        0 min,  0.006 sec
     gradient                   ...        0 min,  0.002 sec
 * total energy  :   -44.4819340 Eh     change       -0.6964620E-05 Eh
   gradient norm :     0.0005599 Eh/α   predicted    -0.2806706E-05 ( -59.70%)
   displ. norm   :     0.1404649 α      lambda       -0.5785911E-05
   maximum displ.:     0.1159179 α      in ANC's #2, #11, #8, ...

........................................................................
.............................. CYCLE   38 ..............................
........................................................................

 iter      E             dE          RMSdq      gap      omega  full diag
   1    -44.9996125 -0.449996E+02  0.527E-02    3.14       0.0  T
   2    -44.9996129 -0.376521E-06  0.309E-02    3.14       1.0  T
   3    -44.9996128  0.369361E-07  0.329E-03    3.14       5.8  T
   4    -44.9996130 -0.184201E-06  0.160E-03    3.14      11.8  T
   5    -44.9996131 -0.258706E-07  0.844E-04    3.14      22.4  T
   6    -44.9996131 -0.291055E-08  0.192E-04    3.14      98.5  T
     SCC iter.                  ...        0 min,  0.008 sec
     gradient                   ...        0 min,  0.003 sec
 * total energy  :   -44.4819408 Eh     change       -0.6806556E-05 Eh
   gradient norm :     0.0012674 Eh/α   predicted    -0.2922177E-05 ( -57.07%)
   displ. norm   :     0.1903295 α      lambda       -0.8573831E-05
   maximum displ.:     0.1596778 α      in ANC's #2, #1, #11, ...

........................................................................
.............................. CYCLE   39 ..............................
........................................................................

 iter      E             dE          RMSdq      gap      omega  full diag
   1    -44.9994987 -0.449995E+02  0.648E-02    3.14       0.0  T
   2    -44.9994993 -0.535576E-06  0.378E-02    3.14       1.0  T
   3    -44.9994994 -0.155328E-06  0.267E-03    3.14       7.1  T
   4    -44.9994995 -0.820127E-07  0.141E-03    3.14      13.4  T
   5    -44.9994995  0.875161E-09  0.681E-04    3.14      27.8  T
   6    -44.9994995 -0.505766E-08  0.302E-04    3.14      62.5  T
     SCC iter.                  ...        0 min,  0.008 sec
     gradient                   ...        0 min,  0.002 sec
 * total energy  :   -44.4819509 Eh     change       -0.1004986E-04 Eh
   gradient norm :     0.0010751 Eh/α   predicted    -0.4357176E-05 ( -56.64%)
   displ. norm   :     0.2576028 α      lambda       -0.1073870E-04
   maximum displ.:     0.2163683 α      in ANC's #2, #1, #11, ...

........................................................................
.............................. CYCLE   40 ..............................
........................................................................

 iter      E             dE          RMSdq      gap      omega  full diag
   1    -44.9989135 -0.449989E+02  0.858E-02    3.14       0.0  T
   2    -44.9989144 -0.913873E-06  0.501E-02    3.14       1.0  T
   3    -44.9989147 -0.265474E-06  0.363E-03    3.14       5.2  T
   4    -44.9989148 -0.116903E-06  0.220E-03    3.14       8.6  T
   5    -44.9989148 -0.275055E-07  0.129E-03    3.14      14.6  T
   6    -44.9989149 -0.154907E-07  0.278E-04    3.14      68.0  T
   7    -44.9989149 -0.487596E-09  0.125E-04    3.14     151.7  T
     SCC iter.                  ...        0 min,  0.009 sec
     gradient                   ...        0 min,  0.003 sec
 * total energy  :   -44.4819641 Eh     change       -0.1324521E-04 Eh
   gradient norm :     0.0018762 Eh/α   predicted    -0.5531516E-05 ( -58.24%)
   displ. norm   :     0.4403280 α      lambda       -0.2505274E-04
   maximum displ.:     0.3687835 α      in ANC's #2, #1, #6, ...

........................................................................
.............................. CYCLE   41 ..............................
........................................................................

 iter      E             dE          RMSdq      gap      omega  full diag
   1    -44.9979968 -0.449980E+02  0.139E-01    3.14       0.0  T
   2    -44.9979990 -0.226645E-05  0.809E-02    3.14       1.0  T
   3    -44.9979997 -0.676186E-06  0.565E-03    3.14       3.3  T
   4    -44.9980000 -0.292178E-06  0.331E-03    3.14       5.7  T
   5    -44.9980000 -0.405222E-07  0.199E-03    3.14       9.5  T
   6    -44.9980001 -0.442389E-07  0.447E-04    3.14      42.3  T
   7    -44.9980001 -0.133870E-08  0.209E-04    3.14      90.5  T
     SCC iter.                  ...        0 min,  0.009 sec
     gradient                   ...        0 min,  0.002 sec
 * total energy  :   -44.4819931 Eh     change       -0.2895993E-04 Eh
   gradient norm :     0.0028588 Eh/α   predicted    -0.1360778E-04 ( -53.01%)
   displ. norm   :     0.3425731 α      lambda       -0.4820934E-04
   maximum displ.:     0.2765423 α      in ANC's #2, #1, #6, ...

........................................................................
.............................. CYCLE   42 ..............................
........................................................................

 iter      E             dE          RMSdq      gap      omega  full diag
   1    -44.9985612 -0.449986E+02  0.979E-02    3.15       0.0  T
   2    -44.9985627 -0.143564E-05  0.570E-02    3.14       1.0  T
   3    -44.9985627 -0.162347E-07  0.535E-03    3.15       3.5  T
   4    -44.9985632 -0.510643E-06  0.235E-03    3.14       8.0  T
   5    -44.9985632 -0.144652E-07  0.154E-03    3.14      12.3  T
   6    -44.9985633 -0.267371E-07  0.380E-04    3.14      49.8  T
   7    -44.9985633 -0.857710E-09  0.156E-04    3.14     121.1  T
     SCC iter.                  ...        0 min,  0.009 sec
     gradient                   ...        0 min,  0.003 sec
 * total energy  :   -44.4820300 Eh     change       -0.3698240E-04 Eh
   gradient norm :     0.0032524 Eh/α   predicted    -0.2693699E-04 ( -27.16%)
   displ. norm   :     0.5808537 α      lambda       -0.7378436E-04
   maximum displ.:     0.4702949 α      in ANC's #2, #1, #6, ...
 * RMSD in coord.:     0.5630881 α      energy gain  -0.2592039E-03 Eh

generating ANC from exact Hessian ...
Using Lindh-Hessian (1995)
 Shifting diagonal of input Hessian by   9.342287579375231E-003
 Lowest  eigenvalues of input Hessian
    0.000000    0.000000    0.000000    0.000000    0.000000    0.000000
    0.010000    0.010230    0.010274    0.012392    0.013273    0.015457
    0.018537    0.019206    0.020368    0.022097    0.028083    0.029913
 Highest eigenvalues
    1.678171    1.820045    1.917950    2.048818    2.368197    2.531932
 

........................................................................
.............................. CYCLE   43 ..............................
........................................................................

 iter      E             dE          RMSdq      gap      omega  full diag
   1    -44.9953898 -0.449954E+02  0.175E-01    3.12       0.0  T
   2    -44.9953944 -0.460773E-05  0.102E-01    3.12       1.0  T
   3    -44.9953927  0.175594E-05  0.130E-02    3.12       1.5  T
   4    -44.9953961 -0.340234E-05  0.518E-03    3.12       3.6  T
   5    -44.9953963 -0.277647E-06  0.272E-03    3.12       6.9  T
   6    -44.9953964 -0.339527E-07  0.722E-04    3.12      26.2  T
   7    -44.9953964 -0.267639E-08  0.298E-04    3.12      63.4  T
     SCC iter.                  ...        0 min,  0.009 sec
     gradient                   ...        0 min,  0.003 sec
 * total energy  :   -44.4820659 Eh     change       -0.3589388E-04 Eh
   gradient norm :     0.0069167 Eh/α   predicted     0.0000000E+00 (-100.00%)
   displ. norm   :     0.0356920 α      lambda       -0.1019196E-03
   maximum displ.:     0.0257119 α      in ANC's #6, #2, #49, ...

........................................................................
.............................. CYCLE   44 ..............................
........................................................................

 iter      E             dE          RMSdq      gap      omega  full diag
   1    -44.9991355 -0.449991E+02  0.204E-02    3.13       0.0  T
   2    -44.9991364 -0.927109E-06  0.123E-02    3.13       1.5  T
   3    -44.9991360  0.377136E-06  0.679E-03    3.13       2.8  T
   4    -44.9991366 -0.579839E-06  0.236E-03    3.13       8.0  T
   5    -44.9991367 -0.113781E-06  0.442E-04    3.13      42.7  T
   6    -44.9991367 -0.342141E-09  0.241E-04    3.13      78.5  T
     SCC iter.                  ...        0 min,  0.008 sec
     gradient                   ...        0 min,  0.003 sec
 * total energy  :   -44.4821334 Eh     change       -0.6748918E-04 Eh
   gradient norm :     0.0023280 Eh/α   predicted    -0.5146776E-04 ( -23.74%)
   displ. norm   :     0.0430020 α      lambda       -0.3011632E-04
   maximum displ.:     0.0363465 α      in ANC's #6, #2, #3, ...

........................................................................
.............................. CYCLE   45 ..............................
........................................................................

 iter      E             dE          RMSdq      gap      omega  full diag
   1    -45.0007111 -0.450007E+02  0.177E-02    3.13       0.0  T
   2    -45.0007114 -0.366229E-06  0.106E-02    3.13       1.8  T
   3    -45.0007112  0.227795E-06  0.415E-03    3.13       4.6  T
   4    -45.0007115 -0.254433E-06  0.151E-03    3.13      12.5  T
   5    -45.0007115 -0.508601E-07  0.266E-04    3.13      71.0  T
   6    -45.0007115 -0.466038E-09  0.139E-04    3.13     136.3  T
     SCC iter.                  ...        0 min,  0.008 sec
     gradient                   ...        0 min,  0.002 sec
 * total energy  :   -44.4821537 Eh     change       -0.2029379E-04 Eh
   gradient norm :     0.0011335 Eh/α   predicted    -0.1510504E-04 ( -25.57%)
   displ. norm   :     0.0798073 α      lambda       -0.1797507E-04
   maximum displ.:     0.0673243 α      in ANC's #6, #2, #3, ...

........................................................................
.............................. CYCLE   46 ..............................
........................................................................

 iter      E             dE          RMSdq      gap      omega  full diag
   1    -45.0013248 -0.450013E+02  0.286E-02    3.13       0.0  T
   2    -45.0013253 -0.449282E-06  0.169E-02    3.13       1.1  T
   3    -45.0013252  0.118435E-06  0.315E-03    3.13       6.0  T
   4    -45.0013253 -0.142448E-06  0.116E-03    3.13      16.3  T
   5    -45.0013253 -0.280922E-07  0.383E-04    3.13      49.3  T
   6    -45.0013253 -0.119788E-08  0.168E-04    3.13     112.5  T
     SCC iter.                  ...        0 min,  0.008 sec
     gradient                   ...        0 min,  0.002 sec
 * total energy  :   -44.4821705 Eh     change       -0.1677835E-04 Eh
   gradient norm :     0.0019605 Eh/α   predicted    -0.9013386E-05 ( -46.28%)
   displ. norm   :     0.0656350 α      lambda       -0.1375721E-04
   maximum displ.:     0.0468589 α      in ANC's #6, #2, #5, ...

........................................................................
.............................. CYCLE   47 ..............................
........................................................................

 iter      E             dE          RMSdq      gap      omega  full diag
   1    -45.0006234 -0.450006E+02  0.223E-02    3.13       0.0  T
   2    -45.0006235 -0.121873E-06  0.132E-02    3.13       1.4  T
   3    -45.0006235 -0.350607E-08  0.111E-03    3.13      17.0  T
   4    -45.0006235 -0.138180E-07  0.517E-04    3.13      36.6  T
   5    -45.0006235 -0.177739E-08  0.311E-04    3.13      60.9  T
     SCC iter.                  ...        0 min,  0.006 sec
     gradient                   ...        0 min,  0.003 sec
 * total energy  :   -44.4821859 Eh     change       -0.1537075E-04 Eh
   gradient norm :     0.0016741 Eh/α   predicted    -0.6902579E-05 ( -55.09%)
   displ. norm   :     0.1385397 α      lambda       -0.2467166E-04
   maximum displ.:     0.0912744 α      in ANC's #6, #2, #5, ...

........................................................................
.............................. CYCLE   48 ..............................
........................................................................

 iter      E             dE          RMSdq      gap      omega  full diag
   1    -44.9991326 -0.449991E+02  0.405E-02    3.13       0.0  T
   2    -44.9991332 -0.627731E-06  0.239E-02    3.13       1.0  T
   3    -44.9991332  0.244078E-07  0.290E-03    3.13       6.5  T
   4    -44.9991333 -0.122527E-06  0.101E-03    3.13      18.8  T
   5    -44.9991333 -0.470204E-08  0.638E-04    3.13      29.6  T
   6    -44.9991333 -0.301426E-08  0.332E-04    3.13      57.0  T
     SCC iter.                  ...        0 min,  0.008 sec
     gradient                   ...        0 min,  0.003 sec
 * total energy  :   -44.4822092 Eh     change       -0.2328106E-04 Eh
   gradient norm :     0.0020098 Eh/α   predicted    -0.1244226E-04 ( -46.56%)
   displ. norm   :     0.1034063 α      lambda       -0.2132497E-04
   maximum displ.:     0.0639291 α      in ANC's #6, #2, #5, ...

........................................................................
.............................. CYCLE   49 ..............................
........................................................................

 iter      E             dE          RMSdq      gap      omega  full diag
   1    -44.9989937 -0.449990E+02  0.296E-02    3.12       0.0  T
   2    -44.9989939 -0.210563E-06  0.174E-02    3.12       1.1  T
   3    -44.9989939  0.662274E-07  0.248E-03    3.12       7.6  T
   4    -44.9989940 -0.100011E-06  0.116E-03    3.12      16.3  T
   5    -44.9989940 -0.222967E-07  0.470E-04    3.12      40.2  T
   6    -44.9989940 -0.507079E-09  0.145E-04    3.12     130.4  T
     SCC iter.                  ...        0 min,  0.008 sec
     gradient                   ...        0 min,  0.003 sec
 * total energy  :   -44.4822278 Eh     change       -0.1869141E-04 Eh
   gradient norm :     0.0021621 Eh/α   predicted    -0.1077765E-04 ( -42.34%)
   displ. norm   :     0.2411533 α      lambda       -0.5418628E-04
   maximum displ.:     0.1428645 α      in ANC's #6, #2, #5, ...

........................................................................
.............................. CYCLE   50 ..............................
........................................................................

 iter      E             dE          RMSdq      gap      omega  full diag
   1    -44.9987708 -0.449988E+02  0.674E-02    3.12       0.0  T
   2    -44.9987717 -0.972741E-06  0.397E-02    3.12       1.0  T
   3    -44.9987714  0.323616E-06  0.571E-03    3.12       3.3  T
   4    -44.9987720 -0.554565E-06  0.253E-03    3.12       7.5  T
   5    -44.9987721 -0.915130E-07  0.113E-03    3.12      16.7  T
   6    -44.9987721 -0.317851E-08  0.358E-04    3.12      52.7  T
   7    -44.9987721 -0.108354E-08  0.119E-04    3.12     158.9  T
     SCC iter.                  ...        0 min,  0.009 sec
     gradient                   ...        0 min,  0.003 sec
 * total energy  :   -44.4822704 Eh     change       -0.4258470E-04 Eh
   gradient norm :     0.0033132 Eh/α   predicted    -0.2867061E-04 ( -32.67%)
   displ. norm   :     0.2691596 α      lambda       -0.6178767E-04
   maximum displ.:     0.1598767 α      in ANC's #2, #6, #5, ...

........................................................................
.............................. CYCLE   51 ..............................
........................................................................

 iter      E             dE          RMSdq      gap      omega  full diag
   1    -44.9984993 -0.449985E+02  0.747E-02    3.11       0.0  T
   2    -44.9985003 -0.938717E-06  0.440E-02    3.11       1.0  T
   3    -44.9985002  0.277661E-07  0.498E-03    3.11       3.8  T
   4    -44.9985006 -0.362445E-06  0.248E-03    3.11       7.6  T
   5    -44.9985007 -0.611210E-07  0.128E-03    3.11      14.7  T
   6    -44.9985007 -0.695664E-08  0.365E-04    3.11      51.8  T
   7    -44.9985007 -0.127850E-08  0.125E-04    3.11     151.7  T
     SCC iter.                  ...        0 min,  0.009 sec
     gradient                   ...        0 min,  0.002 sec
 * total energy  :   -44.4823167 Eh     change       -0.4624269E-04 Eh
   gradient norm :     0.0050357 Eh/α   predicted    -0.3313279E-04 ( -28.35%)
   displ. norm   :     0.2441519 α      lambda       -0.8273152E-04
   maximum displ.:     0.1521058 α      in ANC's #2, #6, #1, ...

........................................................................
.............................. CYCLE   52 ..............................
........................................................................

 iter      E             dE          RMSdq      gap      omega  full diag
   1    -44.9994020 -0.449994E+02  0.663E-02    3.11       0.0  T
   2    -44.9994026 -0.616066E-06  0.390E-02    3.11       1.0  T
   3    -44.9994024  0.209484E-06  0.516E-03    3.11       3.7  T
   4    -44.9994029 -0.532275E-06  0.214E-03    3.11       8.8  T
   5    -44.9994029 -0.312072E-07  0.103E-03    3.11      18.4  T
   6    -44.9994029 -0.303012E-08  0.226E-04    3.11      83.5  T
   7    -44.9994029 -0.362697E-09  0.994E-05    3.11     190.0  T
     SCC iter.                  ...        0 min,  0.009 sec
     gradient                   ...        0 min,  0.003 sec
 * total energy  :   -44.4823814 Eh     change       -0.6475453E-04 Eh
   gradient norm :     0.0050044 Eh/α   predicted    -0.4383250E-04 ( -32.31%)
   displ. norm   :     0.3354898 α      lambda       -0.1082050E-03
   maximum displ.:     0.2155907 α      in ANC's #2, #6, #1, ...

........................................................................
.............................. CYCLE   53 ..............................
........................................................................

 iter      E             dE          RMSdq      gap      omega  full diag
   1    -44.9996896 -0.449997E+02  0.899E-02    3.11       0.0  T
   2    -44.9996910 -0.138562E-05  0.530E-02    3.11       1.0  T
   3    -44.9996911 -0.132935E-06  0.521E-03    3.11       3.6  T
   4    -44.9996915 -0.383021E-06  0.291E-03    3.11       6.5  T
   5    -44.9996916 -0.783690E-07  0.160E-03    3.11      11.8  T
   6    -44.9996916 -0.149542E-07  0.422E-04    3.11      44.8  T
   7    -44.9996916 -0.140701E-08  0.143E-04    3.11     131.7  T
     SCC iter.                  ...        0 min,  0.009 sec
     gradient                   ...        0 min,  0.002 sec
 * total energy  :   -44.4824693 Eh     change       -0.8790778E-04 Eh
   gradient norm :     0.0045570 Eh/α   predicted    -0.6019621E-04 ( -31.52%)
   displ. norm   :     0.3793386 α      lambda       -0.1610757E-03
   maximum displ.:     0.2575791 α      in ANC's #2, #6, #1, ...

........................................................................
.............................. CYCLE   54 ..............................
........................................................................

 iter      E             dE          RMSdq      gap      omega  full diag
   1    -45.0016098 -0.450016E+02  0.998E-02    3.13       0.0  T
   2    -45.0016139 -0.413324E-05  0.587E-02    3.13       1.0  T
   3    -45.0016127  0.128040E-05  0.110E-02    3.14       1.7  T
   4    -45.0016148 -0.210645E-05  0.435E-03    3.13       4.3  T
   5    -45.0016150 -0.275640E-06  0.205E-03    3.13       9.2  T
   6    -45.0016151 -0.221764E-07  0.867E-04    3.13      21.8  T
   7    -45.0016151 -0.291289E-08  0.189E-04    3.13     100.1  T
     SCC iter.                  ...        0 min,  0.009 sec
     gradient                   ...        0 min,  0.002 sec
 * total energy  :   -44.4825845 Eh     change       -0.1151707E-03 Eh
   gradient norm :     0.0026272 Eh/α   predicted    -0.9212998E-04 ( -20.01%)
   displ. norm   :     0.8244704 α      lambda       -0.2446974E-03
   maximum displ.:     0.5514634 α      in ANC's #2, #6, #1, ...

........................................................................
.............................. CYCLE   55 ..............................
........................................................................

 iter      E             dE          RMSdq      gap      omega  full diag
   1    -44.9915218 -0.449915E+02  0.227E-01    3.08       0.0  T
   2    -44.9915421 -0.203332E-04  0.134E-01    3.10       1.0  T
   3    -44.9915315  0.106477E-04  0.271E-02    3.09       1.0  T
   4    -44.9915470 -0.155355E-04  0.945E-03    3.10       2.0  T
   5    -44.9915482 -0.112768E-05  0.491E-03    3.10       3.9  T
   6    -44.9915483 -0.140090E-06  0.188E-03    3.10      10.1  T
   7    -44.9915483 -0.109163E-07  0.521E-04    3.10      36.3  T
   8    -44.9915483 -0.894531E-09  0.173E-04    3.10     109.4  T
     SCC iter.                  ...        0 min,  0.011 sec
     gradient                   ...        0 min,  0.002 sec
 * total energy  :   -44.4824482 Eh     change        0.1362664E-03 Eh
   gradient norm :     0.0193590 Eh/α   predicted    -0.2055239E-03 (-250.83%)
   displ. norm   :     0.2841616 α      lambda       -0.7128464E-03
   maximum displ.:     0.1609573 α      in ANC's #2, #6, #5, ...

........................................................................
.............................. CYCLE   56 ..............................
........................................................................

 iter      E             dE          RMSdq      gap      omega  full diag
   1    -45.0005237 -0.450005E+02  0.939E-02    3.16       0.0  T
   2    -45.0005381 -0.144047E-04  0.566E-02    3.15       1.0  T
   3    -45.0005312  0.691812E-05  0.257E-02    3.16       1.0  T
   4    -45.0005407 -0.954572E-05  0.874E-03    3.15       2.2  T
   5    -45.0005422 -0.147888E-05  0.231E-03    3.15       8.2  T
   6    -45.0005422 -0.121886E-07  0.115E-03    3.15      16.4  T
   7    -45.0005422 -0.214857E-08  0.274E-04    3.15      69.1  T
   8    -45.0005422 -0.238423E-09  0.110E-04    3.15     172.0  T
     SCC iter.                  ...        0 min,  0.011 sec
     gradient                   ...        0 min,  0.002 sec
 * total energy  :   -44.4827646 Eh     change       -0.3164050E-03 Eh
   gradient norm :     0.0034555 Eh/α   predicted    -0.3852024E-03 (  21.74%)
   displ. norm   :     0.2086835 α      lambda       -0.9089389E-04
   maximum displ.:     0.1562030 α      in ANC's #2, #6, #1, ...

........................................................................
.............................. CYCLE   57 ..............................
........................................................................

 iter      E             dE          RMSdq      gap      omega  full diag
   1    -45.0006068 -0.450006E+02  0.627E-02    3.15       0.0  T
   2    -45.0006084 -0.160206E-05  0.368E-02    3.16       1.0  T
   3    -45.0006085 -0.116965E-06  0.396E-03    3.16       4.8  T
   4    -45.0006086 -0.135252E-06  0.203E-03    3.16       9.3  T
   5    -45.0006087 -0.455663E-07  0.121E-03    3.16      15.6  T
   6    -45.0006087 -0.108868E-07  0.444E-04    3.16      42.6  T
   7    -45.0006087 -0.134419E-08  0.116E-04    3.16     162.7  T
     SCC iter.                  ...        0 min,  0.009 sec
     gradient                   ...        0 min,  0.002 sec
 * total energy  :   -44.4828434 Eh     change       -0.7878822E-04 Eh
   gradient norm :     0.0042267 Eh/α   predicted    -0.4743515E-04 ( -39.79%)
   displ. norm   :     0.7363064 α      lambda       -0.2712437E-03
   maximum displ.:     0.5482761 α      in ANC's #2, #6, #1, ...

........................................................................
.............................. CYCLE   58 ..............................
........................................................................

 iter      E             dE          RMSdq      gap      omega  full diag
   1    -44.9952719 -0.449953E+02  0.216E-01    3.15       0.0  T
   2    -44.9952825 -0.106309E-04  0.127E-01    3.16       1.0  T
   3    -44.9952802  0.235756E-05  0.172E-02    3.16       1.1  T
   4    -44.9952858 -0.565499E-05  0.681E-03    3.16       2.8  T
   5    -44.9952862 -0.397903E-06  0.417E-03    3.16       4.5  T
   6    -44.9952863 -0.123380E-06  0.116E-03    3.16      16.3  T
   7    -44.9952864 -0.703196E-08  0.422E-04    3.16      44.8  T
   8    -44.9952864 -0.430376E-09  0.136E-04    3.16     138.9  T
     SCC iter.                  ...        0 min,  0.011 sec
     gradient                   ...        0 min,  0.003 sec
 * total energy  :   -44.4829874 Eh     change       -0.1440111E-03 Eh
[...]
C7-H20=1.0960        C7-H21=1.0910        C8-C7=1.5386         C8-N9=1.4354         C8-H22=1.0931        C8-H23=1.0927        
N9-C8=1.4354         N9-C10=1.4472        N9-C13=1.3727        C10-N9=1.4472        C10-C11=1.5365       C10-H24=1.0971       
C10-H25=1.0930       C11-C10=1.5365       C11-N12=1.4451       C11-H26=1.0927       C11-H27=1.0981       N12-C11=1.4451       
N12-C13=1.3715       N12-H28=1.0055       C13-N9=1.3727        C13-N12=1.3715       C13-O14=1.2081       O14-C13=1.2081       
H15-C1=1.0888        H16-C1=1.0878        H17-C1=1.0858        H18-C3=1.0773        H19-C3=1.0755        H20-C7=1.0960        
H21-C7=1.0910        H22-C8=1.0931        H23-C8=1.0927        H24-C10=1.0971       H25-C10=1.0930       H26-C11=1.0927       
H27-C11=1.0981       H28-N12=1.0055       
 C  H  Rav=1.0899 sigma=0.0067  Rmin=1.0755  Rmax=1.0981    13
 C  C  Rav=1.4773 sigma=0.0773  Rmin=1.3285  Rmax=1.5386     5
 N  H  Rav=1.0055 sigma=0.0000  Rmin=1.0055  Rmax=1.0055     1
 N  C  Rav=1.4144 sigma=0.0347  Rmin=1.3715  Rmax=1.4472     5
 O  C  Rav=1.2945 sigma=0.0904  Rmin=1.2081  Rmax=1.4196     4
 
 selected bond angles (degree)
 --------------------
H15-C1-C2=109.78               H16-C1-C2=109.85               H16-C1-H15=107.19              H17-C1-C2=110.99               
H17-C1-H15=109.20              H17-C1-H16=109.74              C3-C2-C1=124.17                C4-C2-C1=114.48                
C4-C2-C3=121.35                H18-C3-C2=121.31               H19-C3-C2=121.57               H19-C3-H18=117.12              
O5-C4-C2=123.98                O6-C4-C2=112.83                O6-C4-O5=123.19                C7-O6-C4=116.47                
C8-C7-O6=111.51                H20-C7-O6=109.08               H20-C7-C8=109.69               H21-C7-O6=106.22               
H21-C7-C8=110.00               H21-C7-H20=110.28              N9-C8-C7=112.10                H22-C8-C7=108.99               
H22-C8-N9=108.09               H23-C8-C7=109.49               H23-C8-N9=108.60               H23-C8-H22=109.55              
C10-N9-C8=121.98               C13-N9-C8=121.83               C13-N9-C10=111.63              C11-C10-N9=102.55              
H24-C10-N9=111.38              H24-C10-C11=111.42             H25-C10-N9=110.43              H25-C10-C11=112.57             
H25-C10-H24=108.44             
 
 selected dihedral angles (degree)
 ---------------------------------
C3-C2-C1-H15=114.57           C3-C2-C1-H16=232.19           C3-C2-C1-H17=353.74           C4-C2-C1-H15=293.91           
C4-C2-C1-H16= 51.54           C4-C2-C1-H17=173.09           H18-C3-C2-C1=359.82           H18-C3-C2-C4=180.51           
H19-C3-C2-C1=179.82           H19-C3-C2-C4=  0.51           O5-C4-C2-C1=352.11            O5-C4-C2-C3=171.48            
O6-C4-C2-C1=171.57            O6-C4-C2-C3=350.94            C7-O6-C4-C2=180.11            C7-O6-C4-O5=359.57            
C8-C7-O6-C4=279.05            H20-C7-O6-C4= 40.35           H21-C7-O6-C4=159.21           N9-C8-C7-O6=173.90            
N9-C8-C7-H20= 52.94           N9-C8-C7-H21=291.47           H22-C8-C7-O6=293.50           H22-C8-C7-H20=172.55          
H22-C8-C7-H21= 51.08          H23-C8-C7-O6= 53.31           H23-C8-C7-H20=292.36          H23-C8-C7-H21=170.89          
C10-N9-C8-C7=277.85           C10-N9-C8-H22=157.72          C10-N9-C8-H23= 38.95          C13-N9-C8-C7= 71.89           
C13-N9-C8-H22=311.76          C13-N9-C8-H23=192.99          C11-C10-N9-C8=173.57          C11-C10-N9-C13= 17.15         
H24-C10-N9-C8= 54.30          H24-C10-N9-C13=257.88         H25-C10-N9-C8=293.75          H25-C10-N9-C13=137.33         
           -------------------------------------------------
          |                Final Singlepoint                |
           -------------------------------------------------

          ...................................................
          :                      SETUP                      :
          :.................................................:
          :  # basis functions                  70          :
          :  # atomic orbitals                  70          :
          :  # shells                           42          :
          :  # electrons                        78          :
          :  max. iterations                   250          :
          :  Hamiltonian                  GFN2-xTB          :
          :  restarted?                      false          :
          :  GBSA solvation                  false          :
          :  PC potential                    false          :
          :  electronic temp.          300.0000000     K    :
          :  accuracy                    1.0000000          :
          :  -> integral cutoff          0.2500000E+02      :
          :  -> integral neglect         0.1000000E-07      :
          :  -> SCF convergence          0.1000000E-05 Eh   :
          :  -> wf. convergence          0.1000000E-03 e    :
          :  Broyden damping             0.4000000          :
          :  net charge                          0          :
          :  unpaired electrons                  0          :
          ...................................................

 iter      E             dE          RMSdq      gap      omega  full diag
   1    -45.0023474 -0.450023E+02  0.796E-05    2.99       0.0  T
   2    -45.0023474 -0.377725E-10  0.476E-05    2.99     397.2  T
   3    -45.0023474 -0.927969E-11  0.321E-05    2.99     589.1  T

   *** convergence criteria satisfied after 3 iterations ***

         #    Occupation            Energy/Eh            Energy/eV
      -------------------------------------------------------------
         1        2.0000           -0.7435994             -20.2344
       ...           ...                  ...                  ...
        33        2.0000           -0.4539820             -12.3535
        34        2.0000           -0.4530076             -12.3270
        35        2.0000           -0.4196067             -11.4181
        36        2.0000           -0.4142751             -11.2730
        37        2.0000           -0.4077406             -11.0952
        38        2.0000           -0.3963080             -10.7841
        39        2.0000           -0.3815444             -10.3824 (HOMO)
        40                         -0.2717107              -7.3936 (LUMO)
        41                         -0.1808637              -4.9216
        42                         -0.1647969              -4.4844
        43                         -0.0341914              -0.9304
        44                          0.0102711               0.2795
       ...                                ...                  ...
        70                          0.6966313              18.9563
      -------------------------------------------------------------
                  HL-Gap            0.1098337 Eh            2.9887 eV
             Fermi-level           -0.3266275 Eh           -8.8880 eV

 SCC (total)                   0 d,  0 h,  0 min,  0.008 sec
 SCC setup                      ...        0 min,  0.000 sec (  3.261%)
 Dispersion                     ...        0 min,  0.000 sec (  1.811%)
 classical contributions        ...        0 min,  0.000 sec (  0.481%)
 integral evaluation            ...        0 min,  0.001 sec (  7.567%)
 iterations                     ...        0 min,  0.004 sec ( 46.459%)
 molecular gradient             ...        0 min,  0.003 sec ( 35.635%)
 printout                       ...        0 min,  0.000 sec (  4.479%)

         :::::::::::::::::::::::::::::::::::::::::::::::::::::
         ::                     SUMMARY                     ::
         :::::::::::::::::::::::::::::::::::::::::::::::::::::
         :: total energy             -44.484133250339 Eh    ::
         :: gradient norm              0.000839742980 Eh/a0 ::
         :: HOMO-LUMO gap              2.988728031548 eV    ::
         ::.................................................::
         :: SCC energy               -45.002412114274 Eh    ::
         :: -> isotropic ES            0.092386243010 Eh    ::
         :: -> anisotropic ES          0.003542768782 Eh    ::
         :: -> anisotropic XC          0.013277628849 Eh    ::
         :: -> dispersion             -0.022345763096 Eh    ::
         :: repulsion energy           0.518278863936 Eh    ::
         :: add. restraining           0.000000000000 Eh    ::
         :: total charge               0.000000000000 e     ::
         :::::::::::::::::::::::::::::::::::::::::::::::::::::

           -------------------------------------------------
          |                Property Printout                |
           -------------------------------------------------

    * Orbital Energies and Occupations

         #    Occupation            Energy/Eh            Energy/eV
      -------------------------------------------------------------
         1        2.0000           -0.7435994             -20.2344
       ...           ...                  ...                  ...
        27        2.0000           -0.4944684             -13.4552
        28        2.0000           -0.4896412             -13.3238
        29        2.0000           -0.4880119             -13.2795
        30        2.0000           -0.4862474             -13.2315
        31        2.0000           -0.4698233             -12.7845
        32        2.0000           -0.4591195             -12.4933
        33        2.0000           -0.4539820             -12.3535
        34        2.0000           -0.4530076             -12.3270
        35        2.0000           -0.4196067             -11.4181
        36        2.0000           -0.4142751             -11.2730
        37        2.0000           -0.4077406             -11.0952
        38        2.0000           -0.3963080             -10.7841
        39        2.0000           -0.3815444             -10.3824 (HOMO)
        40                         -0.2717107              -7.3936 (LUMO)
        41                         -0.1808637              -4.9216
        42                         -0.1647969              -4.4844
        43                         -0.0341914              -0.9304
        44                          0.0102711               0.2795
        45                          0.0398948               1.0856
        46                          0.0507986               1.3823
        47                          0.0817078               2.2234
        48                          0.0889683               2.4210
        49                          0.0994120               2.7051
        50                          0.1125413               3.0624
       ...                                ...                  ...
        70                          0.6966313              18.9563
      -------------------------------------------------------------
                  HL-Gap            0.1098337 Eh            2.9887 eV
             Fermi-level           -0.3266275 Eh           -8.8880 eV

     #   Z          covCN         q      C6AA      α(0)
     1   6 C        3.759    -0.111    22.670     6.788
     2   6 C        2.937    -0.008    28.216     8.712
     3   6 C        2.844    -0.081    30.029     8.981
     4   6 C        2.730     0.350    21.059     7.513
     5   8 O        0.856    -0.420    22.076     6.299
     6   8 O        1.705    -0.263    18.366     5.786
     7   6 C        3.705     0.072    19.511     6.315
     8   6 C        3.741     0.001    20.639     6.482
     9   7 N        2.783    -0.138    23.977     7.273
    10   6 C        3.789     0.000    20.586     6.462
    11   6 C        3.784     0.007    20.484     6.447
    12   7 N        2.735    -0.216    25.705     7.530
    13   6 C        2.758     0.325    21.482     7.590
    14   8 O        0.857    -0.466    23.036     6.435
    15   1 H        0.925     0.063     2.168     2.303
    16   1 H        0.925     0.068     2.109     2.271
    17   1 H        0.925     0.052     2.299     2.371
    18   1 H        0.926     0.058     2.224     2.332
    19   1 H        0.926     0.066     2.134     2.284
    20   1 H        0.924     0.055     2.259     2.351
    21   1 H        0.924     0.072     2.063     2.246
    22   1 H        0.924     0.075     2.032     2.229
    23   1 H        0.924     0.062     2.177     2.308
    24   1 H        0.924     0.049     2.339     2.392
    25   1 H        0.924     0.055     2.254     2.348
    26   1 H        0.924     0.054     2.265     2.354
    27   1 H        0.923     0.043     2.414     2.430
    28   1 H        0.860     0.177     1.232     1.739

 Mol. C6AA /au·bohr⁶  :       7527.946748
 Mol. C8AA /au·bohr⁸  :     167263.061495
 Mol. α(0) /au        :        130.567855


Wiberg/Mayer (AO) data.
largest (>0.10) Wiberg bond orders for each atom

 ---------------------------------------------------------------------------
     #   Z sym  total        # sym  WBO       # sym  WBO       # sym  WBO
 ---------------------------------------------------------------------------
     1   6 C    3.994 --     2 C    1.029    17 H    0.984    16 H    0.968
                            15 H    0.965
     2   6 C    3.986 --     3 C    1.876     1 C    1.029     4 C    0.996
     3   6 C    3.987 --     2 C    1.876    18 H    0.974    19 H    0.972
     4   6 C    3.915 --     5 O    1.721     6 O    1.119     2 C    0.996
     5   8 O    2.026 --     4 C    1.721     6 O    0.168
     6   8 O    2.308 --     4 C    1.119     7 C    0.952     5 O    0.168
     7   6 C    3.928 --     8 C    0.977    21 H    0.970    20 H    0.966
                             6 O    0.952
     8   6 C    3.973 --     9 N    1.002     7 C    0.977    23 H    0.970
                            22 H    0.967
     9   7 N    3.394 --    13 C    1.134     8 C    1.002    10 C    0.993
                            14 O    0.147
    10   6 C    3.978 --    11 C    0.998     9 N    0.993    25 H    0.972
                            24 H    0.968
    11   6 C    3.978 --    12 N    1.005    10 C    0.998    26 H    0.973
                            27 H    0.970
    12   7 N    3.329 --    13 C    1.143    11 C    1.005    28 H    0.941
                            14 O    0.148
    13   6 C    3.961 --    14 O    1.628    12 N    1.143     9 N    1.134
    14   8 O    1.973 --    13 C    1.628    12 N    0.148     9 N    0.147
    15   1 H    0.996 --     1 C    0.965
    16   1 H    0.995 --     1 C    0.968
    17   1 H    0.997 --     1 C    0.984
    18   1 H    0.997 --     3 C    0.974
    19   1 H    0.996 --     3 C    0.972
    20   1 H    0.997 --     7 C    0.966
    21   1 H    0.994 --     7 C    0.970
    22   1 H    0.994 --     8 C    0.967
    23   1 H    0.996 --     8 C    0.970
    24   1 H    0.998 --    10 C    0.968
    25   1 H    0.997 --    10 C    0.972
    26   1 H    0.997 --    11 C    0.973
    27   1 H    0.998 --    11 C    0.970
    28   1 H    0.969 --    12 N    0.941
 ---------------------------------------------------------------------------

Topologies differ in total number of bonds
Writing topology from bond orders to xtbtopo.mol

molecular dipole:
                 x           y           z       tot (Debye)
 q only:        0.070      -0.988      -0.171
   full:       -0.064      -1.092      -0.153       2.809
molecular quadrupole (traceless):
                xx          xy          yy          xz          yz          zz
 q only:       16.932      15.403     -14.080      -1.651      -0.511      -2.852
  q+dip:       19.025      16.553     -17.052      -0.849      -1.164      -1.973
   full:       19.204      16.469     -18.104      -0.509      -1.118      -1.101

           -------------------------------------------------
          |                Geometry Summary                 |
           -------------------------------------------------

      molecular mass/u    :      198.2194148
   center of mass at/Å    :       -0.1901401       0.2134764       0.0752550
  moments of inertia/u·Å² :        0.2668325E+03   0.1754570E+04   0.1956646E+04
rotational constants/cm⁻¹ :        0.6317683E-01   0.9607845E-02   0.8615577E-02

 * 26 selected distances

     #   Z          #   Z                                           value/Å
     2   6 C        3   6 C                                       1.3284800
     4   6 C        5   8 O                                       1.2085564
     4   6 C        6   8 O                                       1.3415223
     6   8 O        7   6 C                                       1.4196163
     7   6 C        8   6 C                                       1.5386049 (max)
     8   6 C        9   7 N                                       1.4353690
     9   7 N       10   6 C                                       1.4471774
    10   6 C       11   6 C                                       1.5364502
    11   6 C       12   7 N                                       1.4451267
     9   7 N       13   6 C                                       1.3727001
    12   7 N       13   6 C                                       1.3715106
    13   6 C       14   8 O                                       1.2081337
     1   6 C       15   1 H                                       1.0888215
     1   6 C       16   1 H                                       1.0877814
     1   6 C       17   1 H                                       1.0857543
     3   6 C       18   1 H                                       1.0773029
     3   6 C       19   1 H                                       1.0755368
     7   6 C       20   1 H                                       1.0959993
     7   6 C       21   1 H                                       1.0909614
     8   6 C       22   1 H                                       1.0930552
     8   6 C       23   1 H                                       1.0927436
    10   6 C       24   1 H                                       1.0971487
    10   6 C       25   1 H                                       1.0930410
    11   6 C       26   1 H                                       1.0927422
    11   6 C       27   1 H                                       1.0980675
    12   7 N       28   1 H                                       1.0054999 (min)

 * 5 distinct bonds (by element types)

   Z      Z             #   av. dist./Å        max./Å        min./Å
   1 H    6 C          13     1.0899197     1.0980675     1.0755368
   6 C    6 C           3     1.4678450     1.5386049     1.3284800
   1 H    7 N           1     1.0054999     1.0054999     1.0054999
   6 C    7 N           5     1.4143768     1.4471774     1.3715106
   6 C    8 O           4     1.2944572     1.4196163     1.2081337


optimized geometry written to: xtbopt.xyz


           -------------------------------------------------
          | TOTAL ENERGY              -44.484133250339 Eh   |
          | GRADIENT NORM               0.000839742980 Eh/α |
          | HOMO-LUMO GAP               2.988728031548 eV   |
           -------------------------------------------------
########################################################################
[WARNING] Runtime exception occurred
-2- restart_readRestart: Dimension missmatch in restart file.
-1- restart_readRestart: Number of electron missmatch in restart file.
########################################################################

------------------------------------------------------------------------
 * finished run on 2025/12/01 at 14:18:38.225     
------------------------------------------------------------------------
 total:
 * wall-time:     0 d,  0 h,  0 min,  1.296 sec
 *  cpu-time:     0 d,  0 h,  0 min, 29.034 sec
 * ratio c/w:    22.396 speedup
 SCF:
 * wall-time:     0 d,  0 h,  0 min,  0.030 sec
 *  cpu-time:     0 d,  0 h,  0 min,  0.666 sec
 * ratio c/w:    22.528 speedup
 ANC optimizer:
 * wall-time:     0 d,  0 h,  0 min,  1.229 sec
 *  cpu-time:     0 d,  0 h,  0 min, 28.007 sec
 * ratio c/w:    22.784 speedup

normal termination of xtb
