      -----------------------------------------------------------      
     |                   =====================                   |     
     |                           x T B                           |     
     |                   =====================                   |     
     |                         S. Grimme                         |     
     |          Mulliken Center for Theoretical Chemistry        |     
     |                    University of Bonn                     |     
      -----------------------------------------------------------      

   * xtb version 6.7.1 (edcfbbe) compiled by 'albert@albert-system' on 2024-07-22

   xtb is free software: you can redistribute it and/or modify it under
   the terms of the GNU Lesser General Public License as published by
   the Free Software Foundation, either version 3 of the License, or
   (at your option) any later version.
   
   xtb is distributed in the hope that it will be useful,
   but WITHOUT ANY WARRANTY; without even the implied warranty of
   MERCHANTABILITY or FITNESS FOR A PARTICULAR PURPOSE.  See the
   GNU Lesser General Public License for more details.
   
   Cite this work as:
   * C. Bannwarth, E. Caldeweyher, S. Ehlert, A. Hansen, P. Pracht,
     J. Seibert, S. Spicher, S. Grimme, WIREs Comput. Mol. Sci., 2020, 11,
     e01493. DOI: 10.1002/wcms.1493
   
   for GFN2-xTB:
   * C. Bannwarth, S. Ehlert and S. Grimme., J. Chem. Theory Comput., 2019,
     15, 1652-1671. DOI: 10.1021/acs.jctc.8b01176
   for GFN1-xTB:
   * S. Grimme, C. Bannwarth, P. Shushkov, J. Chem. Theory Comput., 2017,
     13, 1989-2009. DOI: 10.1021/acs.jctc.7b00118
   for GFN0-xTB:
   * P. Pracht, E. Caldeweyher, S. Ehlert, S. Grimme, ChemRxiv, 2019, preprint.
     DOI: 10.26434/chemrxiv.8326202.v1
   for GFN-FF:
   * S. Spicher and S. Grimme, Angew. Chem. Int. Ed., 2020, 59, 15665-15673.
     DOI: 10.1002/anie.202004239
   
   for ALPB and GBSA implicit solvation:
   * S. Ehlert, M. Stahn, S. Spicher, S. Grimme, J. Chem. Theory Comput.,
     2021, 17, 4250-4261. DOI: 10.1021/acs.jctc.1c00471
   
   for ddCOSMO and CPCM-X implicit solvation:
   * M. Stahn, S. Ehlert, S. Grimme, J. Phys. Chem. A,
     2023, XX, XXXX-XXXX. DOI: 10.1021/acs.jpca.3c04382
   
   for DFT-D4:
   * E. Caldeweyher, C. Bannwarth and S. Grimme, J. Chem. Phys., 2017,
     147, 034112. DOI: 10.1063/1.4993215
   * E. Caldeweyher, S. Ehlert, A. Hansen, H. Neugebauer, S. Spicher,
     C. Bannwarth and S. Grimme, J. Chem. Phys., 2019, 150, 154122.
     DOI: 10.1063/1.5090222
   * E. Caldeweyher, J.-M. Mewes, S. Ehlert and S. Grimme, Phys. Chem. Chem. Phys.
     2020, 22, 8499-8512. DOI: 10.1039/D0CP00502A
   
   for sTDA-xTB:
   * S. Grimme and C. Bannwarth, J. Chem. Phys., 2016, 145, 054103.
     DOI: 10.1063/1.4959605
   
   in the mass-spec context:
   * V. Asgeirsson, C. Bauer and S. Grimme, Chem. Sci., 2017, 8, 4879.
     DOI: 10.1039/c7sc00601b
   * J. Koopman and S. Grimme, ACS Omega 2019, 4, 12, 15120-15133.
     DOI: 10.1021/acsomega.9b02011
   
   for metadynamics refer to:
   * S. Grimme, J. Chem. Theory Comput., 2019, 155, 2847-2862
     DOI: 10.1021/acs.jctc.9b00143
   
   for SPH calculations refer to:
   * S. Spicher and S. Grimme, J. Chem. Theory Comput., 2021, 17, 1701-1714
     DOI: 10.1021/acs.jctc.0c01306
   
   for ONIOM refer to:
   * C. Plett, A. Katbashev, S. Ehlert, S. Grimme, M. Bursch,
     Phys. Chem. Chem. Phys., 2023, 25, 17860-17868. DOI: 10.1039/D3CP02178E
   
   for DIPRO refer to:
   * J. Kohn, N. Gildemeister, S. Grimme, D. Fazzi, A. Hansen,
     J. Chem. Phys., 2023, just accepted.
   
   for PTB refer to:
   * S. Grimme, M. Mueller, A. Hansen, J. Chem. Phys., 2023, 158, 124111.
     DOI: 10.1063/5.0137838
   
   with help from (in alphabetical order)
   P. Atkinson, C. Bannwarth, F. Bohle, G. Brandenburg, E. Caldeweyher
   M. Checinski, S. Dohm, S. Ehlert, S. Ehrlich, I. Gerasimov, C. Hölzer
   A. Katbashev, J. Kohn, J. Koopman, C. Lavigne, S. Lehtola, F. März, M. Müller,
   F. Musil, H. Neugebauer, J. Pisarek, C. Plett, P. Pracht, F. Pultar,
   J. Seibert, P. Shushkov, S. Spicher, M. Stahn, M. Steiner, T. Strunk,
   J. Stückrath, T. Rose, and J. Unsleber
   
 * started run on 2025/12/01 at 14:18:40.738     
   ID    Z sym.   atoms
    1    6 C      1-4, 7, 8, 10, 11, 13
    2    8 O      5, 6, 14
    3    7 N      9, 12
    4    1 H      15-28

           -------------------------------------------------
          |                Calculation Setup                |
           -------------------------------------------------

          program call               : xtb pipeline_data/3_conformer_xyz/acrylates/rdkit/PFPUZMSQZJFLBK-UHFFFAOYSA-N_conf199.xyz --opt --gfn 2-xTB --iterations 250
          coordinate file            : pipeline_data/3_conformer_xyz/acrylates/rdkit/PFPUZMSQZJFLBK-UHFFFAOYSA-N_conf199.xyz
          omp threads                :                    24

########################################################################
[WARNING] Please study the warnings concerning your input carefully
-1- readin_getIntValue: could not parse '2-xTB'
########################################################################

           -------------------------------------------------
          |                 G F N 2 - x T B                 |
           -------------------------------------------------

        Reference                      10.1021/acs.jctc.8b01176
      * Hamiltonian:
        H0-scaling (s, p, d)           1.850000    2.230000    2.230000
        zeta-weighting                 0.500000
      * Dispersion:
        s8                             2.700000
        a1                             0.520000
        a2                             5.000000
        s9                             5.000000
      * Repulsion:
        kExp                           1.500000    1.000000
        rExp                           1.000000
      * Coulomb:
        alpha                          2.000000
        third order                    shell-resolved
        anisotropic                    true
        a3                             3.000000
        a5                             4.000000
        cn-shift                       1.200000
        cn-exp                         4.000000
        max-rad                        5.000000

q/qsh data taken from xtbrestart
CAMM data taken from xtbrestart

          ...................................................
          :                      SETUP                      :
          :.................................................:
          :  # basis functions                  70          :
          :  # atomic orbitals                  70          :
          :  # shells                           42          :
          :  # electrons                        78          :
          :  max. iterations                   250          :
          :  Hamiltonian                  GFN2-xTB          :
          :  restarted?                       true          :
          :  GBSA solvation                  false          :
          :  PC potential                    false          :
          :  electronic temp.          300.0000000     K    :
          :  accuracy                    1.0000000          :
          :  -> integral cutoff          0.2500000E+02      :
          :  -> integral neglect         0.1000000E-07      :
          :  -> SCF convergence          0.1000000E-05 Eh   :
          :  -> wf. convergence          0.1000000E-03 e    :
          :  Broyden damping             0.4000000          :
          :  net charge                          0          :
          :  unpaired electrons                  0          :
          ...................................................

 iter      E             dE          RMSdq      gap      omega  full diag
   1    -44.8967775 -0.448968E+02  0.417E+00    2.93       0.0  T
   2    -44.9019128 -0.513529E-02  0.244E+00    2.67       1.0  T
   3    -44.9011784  0.734386E-03  0.332E-01    2.60       1.0  T
   4    -44.9025973 -0.141895E-02  0.174E-01    2.54       1.0  T
   5    -44.9031094 -0.512082E-03  0.754E-02    2.55       1.0  T
   6    -44.9031244 -0.149705E-04  0.187E-02    2.55       1.0  T
   7    -44.9031277 -0.325706E-05  0.718E-03    2.55       2.6  T
   8    -44.9031279 -0.236163E-06  0.319E-03    2.55       5.9  T
   9    -44.9031279 -0.485901E-07  0.987E-04    2.55      19.2  T
  10    -44.9031279 -0.298672E-08  0.377E-04    2.55      50.1  T

   *** convergence criteria satisfied after 10 iterations ***

         #    Occupation            Energy/Eh            Energy/eV
      -------------------------------------------------------------
         1        2.0000           -0.7336367             -19.9633
       ...           ...                  ...                  ...
        33        2.0000           -0.4573845             -12.4461
        34        2.0000           -0.4347911             -11.8313
        35        2.0000           -0.4235149             -11.5244
        36        2.0000           -0.4156539             -11.3105
        37        2.0000           -0.3990138             -10.8577
        38        2.0000           -0.3945232             -10.7355
        39        2.0000           -0.3796064             -10.3296 (HOMO)
        40                         -0.2859965              -7.7824 (LUMO)
        41                         -0.2042676              -5.5584
        42                         -0.1726930              -4.6992
        43                         -0.0798767              -2.1736
        44                         -0.0228592              -0.6220
       ...                                ...                  ...
        70                          0.6252763              17.0146
      -------------------------------------------------------------
                  HL-Gap            0.0936099 Eh            2.5473 eV
             Fermi-level           -0.3328015 Eh           -9.0560 eV

 SCC (total)                   0 d,  0 h,  0 min,  0.027 sec
 SCC setup                      ...        0 min,  0.000 sec (  0.943%)
 Dispersion                     ...        0 min,  0.000 sec (  1.038%)
 classical contributions        ...        0 min,  0.000 sec (  1.057%)
 integral evaluation            ...        0 min,  0.001 sec (  3.952%)
 iterations                     ...        0 min,  0.023 sec ( 83.050%)
 molecular gradient             ...        0 min,  0.003 sec (  9.200%)
 printout                       ...        0 min,  0.000 sec (  0.635%)

         :::::::::::::::::::::::::::::::::::::::::::::::::::::
         ::                     SUMMARY                     ::
         :::::::::::::::::::::::::::::::::::::::::::::::::::::
         :: total energy             -44.445730375348 Eh    ::
         :: gradient norm              0.171927973303 Eh/a0 ::
         :: HOMO-LUMO gap              2.547255666654 eV    ::
         ::.................................................::
         :: SCC energy               -44.903179210537 Eh    ::
         :: -> isotropic ES            0.096353556767 Eh    ::
         :: -> anisotropic ES          0.003594575236 Eh    ::
         :: -> anisotropic XC          0.014593206687 Eh    ::
         :: -> dispersion             -0.021345684822 Eh    ::
         :: repulsion energy           0.457448835189 Eh    ::
         :: add. restraining           0.000000000000 Eh    ::
         :: total charge               0.000000000000 e     ::
         :::::::::::::::::::::::::::::::::::::::::::::::::::::

      ----------------------------------------------------------- 
     |                   =====================                   |
     |                        A N C O P T                        |
     |                   =====================                   |
     |               Approximate Normal Coordinate               |
     |                Rational Function Optimizer                |
      ----------------------------------------------------------- 
      ----------------------------------------------------------- 
     |                   =====================                   |
     |                        A N C O P T                        |
     |                   =====================                   |
     |               Approximate Normal Coordinate               |
     |                Rational Function Optimizer                |
      ----------------------------------------------------------- 

          ...................................................
          :                      SETUP                      :
          :.................................................:
          :   optimization level            normal          :
          :   max. optcycles                   200          :
          :   ANC micro-cycles                  20          :
          :   degrees of freedom                78          :
          :.................................................:
          :   RF solver                   davidson          :
          :   write xtbopt.log                true          :
          :   linear?                        false          :
          :   energy convergence         0.5000000E-05 Eh   :
          :   grad. convergence          0.1000000E-02 Eh/α :
          :   maxmium RF displ.          1.0000000          :
          :   Hlow (freq-cutoff)         0.1000000E-01      :
          :   Hmax (freq-cutoff)         5.0000000          :
          :   S6 in model hess.         20.0000000          :
          ...................................................

generating ANC from exact Hessian ...
Using Lindh-Hessian (1995)
 Shifting diagonal of input Hessian by   9.364392008930342E-003
 Lowest  eigenvalues of input Hessian
    0.000000    0.000000    0.000000    0.000000    0.000000    0.000000
    0.010000    0.010172    0.010296    0.012320    0.013282    0.014922
    0.018497    0.018663    0.021149    0.022417    0.024044    0.026178
 Highest eigenvalues
    1.599043    1.796865    1.822257    1.858642    2.124240    2.170242
 

........................................................................
.............................. CYCLE    1 ..............................
........................................................................

 iter      E             dE          RMSdq      gap      omega  full diag
   1    -44.9031279 -0.449031E+02  0.128E-04    2.55       0.0  T
   2    -44.9031279 -0.955751E-10  0.763E-05    2.55     247.8  T
   3    -44.9031279 -0.290470E-10  0.477E-05    2.55     395.9  T
     SCC iter.                  ...        0 min,  0.004 sec
     gradient                   ...        0 min,  0.002 sec
 * total energy  :   -44.4457304 Eh     change       -0.6457839E-09 Eh
   gradient norm :     0.1719280 Eh/α   predicted     0.0000000E+00 (-100.00%)
   displ. norm   :     0.3332086 α      lambda       -0.3315096E-01
   maximum displ.:     0.1023341 α      in ANC's #10, #7, #37, ...

........................................................................
.............................. CYCLE    2 ..............................
........................................................................

 iter      E             dE          RMSdq      gap      omega  full diag
   1    -44.9640755 -0.449641E+02  0.289E-01    2.74       0.0  T
   2    -44.9646847 -0.609261E-03  0.183E-01    2.74       1.0  T
   3    -44.9647230 -0.382517E-04  0.952E-02    2.75       1.0  T
   4    -44.9647366 -0.135961E-04  0.403E-02    2.75       1.0  T
   5    -44.9647722 -0.356715E-04  0.115E-02    2.75       1.6  T
   6    -44.9647740 -0.174169E-05  0.483E-03    2.75       3.9  T
   7    -44.9647740 -0.565738E-07  0.158E-03    2.75      12.0  T
   8    -44.9647741 -0.801444E-08  0.722E-04    2.75      26.2  T
   9    -44.9647741 -0.245639E-08  0.252E-04    2.75      75.0  T
     SCC iter.                  ...        0 min,  0.011 sec
     gradient                   ...        0 min,  0.002 sec
 * total energy  :   -44.4685263 Eh     change       -0.2279591E-01 Eh
   gradient norm :     0.0593324 Eh/α   predicted    -0.1843038E-01 ( -19.15%)
   displ. norm   :     0.3752693 α      lambda       -0.9150390E-02
   maximum displ.:     0.2314999 α      in ANC's #7, #10, #11, ...

........................................................................
.............................. CYCLE    3 ..............................
........................................................................

 iter      E             dE          RMSdq      gap      omega  full diag
   1    -44.9928608 -0.449929E+02  0.195E-01    2.86       0.0  T
   2    -44.9930245 -0.163631E-03  0.119E-01    2.89       1.0  T
   3    -44.9930222  0.227862E-05  0.511E-02    2.89       1.0  T
   4    -44.9930357 -0.135152E-04  0.198E-02    2.89       1.0  T
   5    -44.9930436 -0.794000E-05  0.715E-03    2.89       2.6  T
   6    -44.9930443 -0.633459E-06  0.274E-03    2.89       6.9  T
   7    -44.9930443 -0.171168E-07  0.838E-04    2.89      22.6  T
   8    -44.9930443 -0.301232E-08  0.381E-04    2.89      49.6  T
     SCC iter.                  ...        0 min,  0.010 sec
     gradient                   ...        0 min,  0.002 sec
 * total energy  :   -44.4740291 Eh     change       -0.5502823E-02 Eh
   gradient norm :     0.0218724 Eh/α   predicted    -0.5222915E-02 (  -5.09%)
   displ. norm   :     0.3458601 α      lambda       -0.2537719E-02
   maximum displ.:     0.2643154 α      in ANC's #7, #10, #11, ...

........................................................................
.............................. CYCLE    4 ..............................
........................................................................

 iter      E             dE          RMSdq      gap      omega  full diag
   1    -44.9949273 -0.449949E+02  0.121E-01    2.91       0.0  T
   2    -44.9949675 -0.401766E-04  0.723E-02    2.94       1.0  T
   3    -44.9949680 -0.551274E-06  0.222E-02    2.94       1.0  T
   4    -44.9949697 -0.168899E-05  0.436E-03    2.94       4.3  T
   5    -44.9949699 -0.205579E-06  0.192E-03    2.94       9.8  T
   6    -44.9949699 -0.769207E-08  0.739E-04    2.94      25.6  T
   7    -44.9949699 -0.172243E-08  0.392E-04    2.94      48.2  T
     SCC iter.                  ...        0 min,  0.009 sec
     gradient                   ...        0 min,  0.002 sec
 * total energy  :   -44.4760063 Eh     change       -0.1977172E-02 Eh
   gradient norm :     0.0156697 Eh/α   predicted    -0.1420667E-02 ( -28.15%)
   displ. norm   :     0.4846613 α      lambda       -0.2444247E-02
   maximum displ.:     0.3763437 α      in ANC's #7, #11, #3, ...

........................................................................
.............................. CYCLE    5 ..............................
........................................................................

 iter      E             dE          RMSdq      gap      omega  full diag
   1    -44.9930338 -0.449930E+02  0.153E-01    2.96       0.0  T
   2    -44.9930891 -0.553313E-04  0.905E-02    2.99       1.0  T
   3    -44.9930895 -0.388838E-06  0.270E-02    2.99       1.0  T
   4    -44.9930929 -0.340513E-05  0.788E-03    2.99       2.4  T
   5    -44.9930938 -0.829263E-06  0.409E-03    2.99       4.6  T
   6    -44.9930940 -0.205414E-06  0.185E-03    2.99      10.2  T
   7    -44.9930940 -0.258094E-07  0.448E-04    2.99      42.2  T
   8    -44.9930940 -0.890779E-09  0.212E-04    2.99      89.1  T
     SCC iter.                  ...        0 min,  0.010 sec
     gradient                   ...        0 min,  0.002 sec
 * total energy  :   -44.4776825 Eh     change       -0.1676206E-02 Eh
   gradient norm :     0.0163532 Eh/α   predicted    -0.1509221E-02 (  -9.96%)
   displ. norm   :     0.3513941 α      lambda       -0.1205401E-02
   maximum displ.:     0.2538502 α      in ANC's #7, #11, #3, ...

........................................................................
.............................. CYCLE    6 ..............................
........................................................................

 iter      E             dE          RMSdq      gap      omega  full diag
   1    -44.9928845 -0.449929E+02  0.109E-01    3.00       0.0  T
   2    -44.9928970 -0.124708E-04  0.637E-02    3.01       1.0  T
   3    -44.9928945  0.254964E-05  0.168E-02    3.01       1.1  T
   4    -44.9928981 -0.361278E-05  0.832E-03    3.01       2.3  T
   5    -44.9928994 -0.129898E-05  0.278E-03    3.01       6.8  T
   6    -44.9928994 -0.389585E-07  0.102E-03    3.01      18.5  T
   7    -44.9928994 -0.588069E-08  0.282E-04    3.01      67.1  T
   8    -44.9928994 -0.188948E-09  0.124E-04    3.01     152.4  T
     SCC iter.                  ...        0 min,  0.010 sec
     gradient                   ...        0 min,  0.002 sec
 * total energy  :   -44.4785360 Eh     change       -0.8534648E-03 Eh
   gradient norm :     0.0174903 Eh/α   predicted    -0.6771361E-03 ( -20.66%)
   displ. norm   :     0.3279295 α      lambda       -0.1102352E-02
   maximum displ.:     0.2010922 α      in ANC's #7, #11, #3, ...

........................................................................
.............................. CYCLE    7 ..............................
........................................................................

 iter      E             dE          RMSdq      gap      omega  full diag
   1    -44.9947784 -0.449948E+02  0.104E-01    3.02       0.0  T
   2    -44.9947865 -0.812208E-05  0.607E-02    3.02       1.0  T
   3    -44.9947841  0.245826E-05  0.153E-02    3.02       1.2  T
   4    -44.9947878 -0.375124E-05  0.663E-03    3.02       2.8  T
   5    -44.9947885 -0.713795E-06  0.249E-03    3.02       7.6  T
   6    -44.9947885 -0.216392E-07  0.513E-04    3.02      36.8  T
   7    -44.9947885 -0.857455E-09  0.224E-04    3.02      84.2  T
     SCC iter.                  ...        0 min,  0.009 sec
     gradient                   ...        0 min,  0.002 sec
 * total energy  :   -44.4793176 Eh     change       -0.7816711E-03 Eh
   gradient norm :     0.0133560 Eh/α   predicted    -0.6104516E-03 ( -21.90%)
   displ. norm   :     0.2723893 α      lambda       -0.7960612E-03
   maximum displ.:     0.1292383 α      in ANC's #3, #7, #11, ...

........................................................................
.............................. CYCLE    8 ..............................
........................................................................

 iter      E             dE          RMSdq      gap      omega  full diag
   1    -44.9977213 -0.449977E+02  0.897E-02    3.02       0.0  T
   2    -44.9977354 -0.141063E-04  0.526E-02    3.01       1.0  T
   3    -44.9977351  0.318553E-06  0.140E-02    3.01       1.4  T
   4    -44.9977362 -0.117146E-05  0.599E-03    3.01       3.2  T
   5    -44.9977369 -0.640774E-06  0.242E-03    3.01       7.8  T
   6    -44.9977369 -0.497045E-07  0.856E-04    3.01      22.1  T
   7    -44.9977369 -0.634704E-08  0.260E-04    3.01      72.6  T
     SCC iter.                  ...        0 min,  0.009 sec
     gradient                   ...        0 min,  0.002 sec
 * total energy  :   -44.4798417 Eh     change       -0.5240722E-03 Eh
   gradient norm :     0.0074775 Eh/α   predicted    -0.4275678E-03 ( -18.41%)
   displ. norm   :     0.2306307 α      lambda       -0.3435698E-03
   maximum displ.:     0.1185796 α      in ANC's #3, #7, #10, ...

........................................................................
.............................. CYCLE    9 ..............................
........................................................................

 iter      E             dE          RMSdq      gap      omega  full diag
   1    -44.9969257 -0.449969E+02  0.679E-02    3.02       0.0  T
   2    -44.9969313 -0.563318E-05  0.398E-02    3.01       1.0  T
   3    -44.9969315 -0.103585E-06  0.824E-03    3.01       2.3  T
   4    -44.9969319 -0.428652E-06  0.274E-03    3.01       6.9  T
   5    -44.9969319 -0.654471E-07  0.150E-03    3.01      12.6  T
   6    -44.9969320 -0.262102E-07  0.707E-04    3.01      26.7  T
   7    -44.9969320 -0.536987E-08  0.181E-04    3.01     104.3  T
     SCC iter.                  ...        0 min,  0.009 sec
     gradient                   ...        0 min,  0.002 sec
 * total energy  :   -44.4800639 Eh     change       -0.2221647E-03 Eh
   gradient norm :     0.0060205 Eh/α   predicted    -0.1809232E-03 ( -18.56%)
   displ. norm   :     0.1470558 α      lambda       -0.2121515E-03
   maximum displ.:     0.0892319 α      in ANC's #3, #10, #13, ...

........................................................................
.............................. CYCLE   10 ..............................
........................................................................

 iter      E             dE          RMSdq      gap      omega  full diag
   1    -44.9994702 -0.449995E+02  0.399E-02    3.00       0.0  T
   2    -44.9994740 -0.380262E-05  0.232E-02    3.00       1.0  T
   3    -44.9994735  0.595289E-06  0.921E-03    3.00       2.1  T
   4    -44.9994739 -0.449946E-06  0.462E-03    3.00       4.1  T
   5    -44.9994744 -0.487749E-06  0.793E-04    3.00      23.8  T
   6    -44.9994744 -0.279562E-08  0.424E-04    3.00      44.6  T
     SCC iter.                  ...        0 min,  0.007 sec
     gradient                   ...        0 min,  0.002 sec
 * total energy  :   -44.4801534 Eh     change       -0.8950509E-04 Eh
   gradient norm :     0.0076407 Eh/α   predicted    -0.1083710E-03 (  21.08%)
   displ. norm   :     0.1402296 α      lambda       -0.1406128E-03
   maximum displ.:     0.0776486 α      in ANC's #3, #7, #11, ...

........................................................................
.............................. CYCLE   11 ..............................
........................................................................

 iter      E             dE          RMSdq      gap      omega  full diag
   1    -44.9972964 -0.449973E+02  0.419E-02    3.00       0.0  T
   2    -44.9972979 -0.152068E-05  0.246E-02    3.01       1.0  T
   3    -44.9972978  0.108163E-06  0.502E-03    3.00       3.8  T
   4    -44.9972980 -0.187883E-06  0.207E-03    3.01       9.1  T
   5    -44.9972981 -0.810584E-07  0.806E-04    3.01      23.4  T
   6    -44.9972981 -0.387706E-08  0.268E-04    3.01      70.4  T
     SCC iter.                  ...        0 min,  0.007 sec
     gradient                   ...        0 min,  0.002 sec
 * total energy  :   -44.4802274 Eh     change       -0.7404001E-04 Eh
   gradient norm :     0.0038505 Eh/α   predicted    -0.7169017E-04 (  -3.17%)
   displ. norm   :     0.0734833 α      lambda       -0.7523996E-04
   maximum displ.:     0.0464286 α      in ANC's #3, #5, #7, ...

........................................................................
.............................. CYCLE   12 ..............................
........................................................................

 iter      E             dE          RMSdq      gap      omega  full diag
   1    -44.9972634 -0.449973E+02  0.256E-02    3.01       0.0  T
   2    -44.9972643 -0.919179E-06  0.151E-02    3.01       1.3  T
   3    -44.9972643  0.800880E-07  0.388E-03    3.01       4.9  T
   4    -44.9972644 -0.124483E-06  0.144E-03    3.01      13.1  T
   5    -44.9972644 -0.392563E-07  0.536E-04    3.01      35.2  T
   6    -44.9972644 -0.305646E-08  0.243E-04    3.01      77.6  T
     SCC iter.                  ...        0 min,  0.007 sec
     gradient                   ...        0 min,  0.002 sec
 * total energy  :   -44.4802867 Eh     change       -0.5929340E-04 Eh
   gradient norm :     0.0037745 Eh/α   predicted    -0.3783213E-04 ( -36.20%)
   displ. norm   :     0.2219415 α      lambda       -0.1993475E-03
   maximum displ.:     0.1281913 α      in ANC's #5, #3, #6, ...

........................................................................
.............................. CYCLE   13 ..............................
........................................................................

 iter      E             dE          RMSdq      gap      omega  full diag
   1    -44.9981376 -0.449981E+02  0.770E-02    3.02       0.0  T
   2    -44.9981456 -0.796032E-05  0.450E-02    3.03       1.0  T
   3    -44.9981450  0.576512E-06  0.112E-02    3.03       1.7  T
   4    -44.9981460 -0.103152E-05  0.487E-03    3.03       3.9  T
   5    -44.9981465 -0.434470E-06  0.187E-03    3.03      10.1  T
   6    -44.9981465 -0.337667E-07  0.714E-04    3.03      26.5  T
   7    -44.9981465 -0.308431E-08  0.208E-04    3.03      90.9  T
     SCC iter.                  ...        0 min,  0.009 sec
     gradient                   ...        0 min,  0.002 sec
 * total energy  :   -44.4804015 Eh     change       -0.1147643E-03 Eh
   gradient norm :     0.0054280 Eh/α   predicted    -0.1045865E-03 (  -8.87%)
   displ. norm   :     0.2261472 α      lambda       -0.1094467E-03
   maximum displ.:     0.1535420 α      in ANC's #3, #5, #7, ...

........................................................................
.............................. CYCLE   14 ..............................
........................................................................

 iter      E             dE          RMSdq      gap      omega  full diag
   1    -44.9972767 -0.449973E+02  0.636E-02    3.03       0.0  T
   2    -44.9972778 -0.110292E-05  0.375E-02    3.03       1.0  T
   3    -44.9972777  0.220375E-07  0.380E-03    3.03       5.0  T
   4    -44.9972779 -0.125981E-06  0.224E-03    3.03       8.4  T
   5    -44.9972779 -0.857937E-07  0.977E-04    3.03      19.4  T
   6    -44.9972780 -0.493984E-08  0.246E-04    3.03      76.9  T
     SCC iter.                  ...        0 min,  0.007 sec
     gradient                   ...        0 min,  0.002 sec
 * total energy  :   -44.4804766 Eh     change       -0.7511439E-04 Eh
   gradient norm :     0.0070550 Eh/α   predicted    -0.5755388E-04 ( -23.38%)
   displ. norm   :     0.2585191 α      lambda       -0.1465346E-03
   maximum displ.:     0.1760807 α      in ANC's #3, #5, #6, ...

........................................................................
.............................. CYCLE   15 ..............................
........................................................................

 iter      E             dE          RMSdq      gap      omega  full diag
   1    -44.9978570 -0.449979E+02  0.701E-02    3.03       0.0  T
   2    -44.9978584 -0.140465E-05  0.411E-02    3.03       1.0  T
   3    -44.9978576  0.828884E-06  0.780E-03    3.03       2.4  T
   4    -44.9978587 -0.109184E-05  0.290E-03    3.03       6.5  T
   5    -44.9978588 -0.127093E-06  0.124E-03    3.03      15.2  T
   6    -44.9978588 -0.812881E-08  0.360E-04    3.03      52.5  T
   7    -44.9978588 -0.920600E-09  0.129E-04    3.03     146.3  T
     SCC iter.                  ...        0 min,  0.009 sec
     gradient                   ...        0 min,  0.002 sec
 * total energy  :   -44.4805836 Eh     change       -0.1069734E-03 Eh
   gradient norm :     0.0071170 Eh/α   predicted    -0.7816528E-04 ( -26.93%)
   displ. norm   :     0.2769776 α      lambda       -0.1506751E-03
   maximum displ.:     0.1998609 α      in ANC's #3, #5, #6, ...

........................................................................
.............................. CYCLE   16 ..............................
........................................................................

 iter      E             dE          RMSdq      gap      omega  full diag
   1    -44.9979875 -0.449980E+02  0.737E-02    3.03       0.0  T
   2    -44.9979886 -0.111735E-05  0.432E-02    3.03       1.0  T
   3    -44.9979876  0.979261E-06  0.799E-03    3.03       2.4  T
   4    -44.9979888 -0.125460E-05  0.260E-03    3.03       7.3  T
   5    -44.9979889 -0.942047E-07  0.120E-03    3.03      15.7  T
   6    -44.9979889 -0.718294E-08  0.336E-04    3.03      56.3  T
   7    -44.9979889 -0.821167E-09  0.121E-04    3.03     156.2  T
     SCC iter.                  ...        0 min,  0.009 sec
     gradient                   ...        0 min,  0.002 sec
 * total energy  :   -44.4806854 Eh     change       -0.1018696E-03 Eh
   gradient norm :     0.0048017 Eh/α   predicted    -0.8111741E-04 ( -20.37%)
   displ. norm   :     0.2044182 α      lambda       -0.1085745E-03
   maximum displ.:     0.1593540 α      in ANC's #3, #5, #6, ...

........................................................................
.............................. CYCLE   17 ..............................
........................................................................

 iter      E             dE          RMSdq      gap      omega  full diag
   1    -44.9990887 -0.449991E+02  0.549E-02    3.03       0.0  T
   2    -44.9990902 -0.159024E-05  0.319E-02    3.03       1.0  T
   3    -44.9990897  0.504577E-06  0.679E-03    3.02       2.8  T
   4    -44.9990904 -0.622708E-06  0.284E-03    3.03       6.7  T
   5    -44.9990905 -0.154925E-06  0.102E-03    3.03      18.4  T
   6    -44.9990905 -0.552436E-08  0.374E-04    3.03      50.6  T
   7    -44.9990905 -0.916494E-09  0.108E-04    3.03     174.3  T
     SCC iter.                  ...        0 min,  0.012 sec
     gradient                   ...        0 min,  0.002 sec
 * total energy  :   -44.4807524 Eh     change       -0.6701648E-04 Eh
   gradient norm :     0.0034314 Eh/α   predicted    -0.5656055E-04 ( -15.60%)
   displ. norm   :     0.3708917 α      lambda       -0.1082636E-03
   maximum displ.:     0.2966951 α      in ANC's #3, #5, #7, ...

........................................................................
.............................. CYCLE   18 ..............................
........................................................................

 iter      E             dE          RMSdq      gap      omega  full diag
   1    -44.9962030 -0.449962E+02  0.933E-02    3.03       0.0  T
   2    -44.9962052 -0.219801E-05  0.548E-02    3.04       1.0  T
   3    -44.9962043  0.842071E-06  0.810E-03    3.03       2.3  T
   4    -44.9962054 -0.111535E-05  0.355E-03    3.03       5.3  T
   5    -44.9962056 -0.220546E-06  0.141E-03    3.03      13.4  T
   6    -44.9962057 -0.592322E-08  0.290E-04    3.03      65.1  T
   7    -44.9962057 -0.678867E-09  0.135E-04    3.03     140.4  T
     SCC iter.                  ...        0 min,  0.008 sec
     gradient                   ...        0 min,  0.002 sec
 * total energy  :   -44.4807931 Eh     change       -0.4061777E-04 Eh
   gradient norm :     0.0052065 Eh/α   predicted    -0.6157947E-04 (  51.61%)
   displ. norm   :     0.0802254 α      lambda       -0.1128318E-03
   maximum displ.:     0.0488947 α      in ANC's #5, #3, #11, ...

........................................................................
.............................. CYCLE   19 ..............................
........................................................................

 iter      E             dE          RMSdq      gap      omega  full diag
   1    -44.9992482 -0.449992E+02  0.240E-02    3.03       0.0  T
   2    -44.9992493 -0.108790E-05  0.139E-02    3.03       1.4  T
   3    -44.9992492  0.456405E-07  0.459E-03    3.04       4.1  T
   4    -44.9992494 -0.170974E-06  0.115E-03    3.04      16.5  T
   5    -44.9992494 -0.111703E-07  0.677E-04    3.04      27.9  T
   6    -44.9992494 -0.506890E-08  0.304E-04    3.04      62.2  T
     SCC iter.                  ...        0 min,  0.006 sec
     gradient                   ...        0 min,  0.002 sec
 * total energy  :   -44.4808639 Eh     change       -0.7084013E-04 Eh
   gradient norm :     0.0035549 Eh/α   predicted    -0.5678434E-04 ( -19.84%)
   displ. norm   :     0.1976405 α      lambda       -0.8317550E-04
   maximum displ.:     0.1752385 α      in ANC's #3, #4, #7, ...

........................................................................
.............................. CYCLE   20 ..............................
........................................................................

 iter      E             dE          RMSdq      gap      omega  full diag
   1    -44.9997578 -0.449998E+02  0.450E-02    3.03       0.0  T
   2    -44.9997586 -0.822643E-06  0.265E-02    3.03       1.0  T
   3    -44.9997585  0.577951E-07  0.358E-03    3.04       5.3  T
   4    -44.9997587 -0.179116E-06  0.120E-03    3.04      15.7  T
   5    -44.9997587 -0.846005E-08  0.686E-04    3.04      27.5  T
   6    -44.9997587 -0.331584E-08  0.345E-04    3.04      54.7  T
     SCC iter.                  ...        0 min,  0.007 sec
     gradient                   ...        0 min,  0.002 sec
 * total energy  :   -44.4809219 Eh     change       -0.5802626E-04 Eh
   gradient norm :     0.0036917 Eh/α   predicted    -0.4322156E-04 ( -25.51%)
   displ. norm   :     0.3083865 α      lambda       -0.8873269E-04
   maximum displ.:     0.2814552 α      in ANC's #3, #7, #4, ...
 * RMSD in coord.:     0.7331462 α      energy gain  -0.3519155E-01 Eh

generating ANC from exact Hessian ...
Using Lindh-Hessian (1995)
 Shifting diagonal of input Hessian by   9.340956646664834E-003
 Lowest  eigenvalues of input Hessian
    0.000000    0.000000    0.000000    0.000000    0.000000    0.000000
    0.010000    0.010235    0.010375    0.012551    0.013459    0.015071
    0.019056    0.019305    0.021732    0.022174    0.027600    0.029649
 Highest eigenvalues
    1.704579    1.831273    1.922276    2.081733    2.380377    2.557791
 

........................................................................
.............................. CYCLE   21 ..............................
........................................................................

 iter      E             dE          RMSdq      gap      omega  full diag
   1    -44.9998525 -0.449999E+02  0.653E-02    3.04       0.0  T
   2    -44.9998540 -0.149460E-05  0.383E-02    3.04       1.0  T
   3    -44.9998532  0.834788E-06  0.724E-03    3.04       2.6  T
   4    -44.9998542 -0.100733E-05  0.286E-03    3.04       6.6  T
   5    -44.9998544 -0.151357E-06  0.105E-03    3.04      17.9  T
   6    -44.9998544 -0.502516E-08  0.369E-04    3.04      51.2  T
   7    -44.9998544 -0.788830E-09  0.117E-04    3.04     161.6  T
     SCC iter.                  ...        0 min,  0.008 sec
     gradient                   ...        0 min,  0.002 sec
 * total energy  :   -44.4809824 Eh     change       -0.6049422E-04 Eh
   gradient norm :     0.0033118 Eh/α   predicted     0.0000000E+00 (-100.00%)
   displ. norm   :     0.0326904 α      lambda       -0.3308065E-04
   maximum displ.:     0.0159238 α      in ANC's #6, #3, #2, ...

........................................................................
.............................. CYCLE   22 ..............................
........................................................................

 iter      E             dE          RMSdq      gap      omega  full diag
   1    -45.0001345 -0.450001E+02  0.143E-02    3.04       0.0  T
   2    -45.0001347 -0.142733E-06  0.845E-03    3.04       2.2  T
   3    -45.0001346  0.786563E-07  0.244E-03    3.04       7.7  T
   4    -45.0001347 -0.937454E-07  0.811E-04    3.04      23.3  T
   5    -45.0001347 -0.138473E-07  0.293E-04    3.04      64.6  T
     SCC iter.                  ...        0 min,  0.005 sec
     gradient                   ...        0 min,  0.002 sec
 * total energy  :   -44.4810077 Eh     change       -0.2526142E-04 Eh
   gradient norm :     0.0015809 Eh/α   predicted    -0.1667616E-04 ( -33.99%)
   displ. norm   :     0.1080100 α      lambda       -0.3676140E-04
   maximum displ.:     0.0563046 α      in ANC's #6, #3, #2, ...

........................................................................
.............................. CYCLE   23 ..............................
........................................................................

 iter      E             dE          RMSdq      gap      omega  full diag
   1    -45.0003067 -0.450003E+02  0.398E-02    3.04       0.0  T
   2    -45.0003073 -0.659987E-06  0.234E-02    3.04       1.0  T
   3    -45.0003069  0.398592E-06  0.532E-03    3.04       3.6  T
   4    -45.0003074 -0.496792E-06  0.165E-03    3.04      11.4  T
   5    -45.0003075 -0.534234E-07  0.680E-04    3.04      27.8  T
   6    -45.0003075 -0.325763E-08  0.275E-04    3.04      68.8  T
     SCC iter.                  ...        0 min,  0.006 sec
     gradient                   ...        0 min,  0.002 sec
 * total energy  :   -44.4810355 Eh     change       -0.2782763E-04 Eh
   gradient norm :     0.0027002 Eh/α   predicted    -0.1847689E-04 ( -33.60%)
   displ. norm   :     0.0434213 α      lambda       -0.1626794E-04
   maximum displ.:     0.0239306 α      in ANC's #6, #3, #2, ...

........................................................................
.............................. CYCLE   24 ..............................
........................................................................

 iter      E             dE          RMSdq      gap      omega  full diag
   1    -45.0002162 -0.450002E+02  0.135E-02    3.03       0.0  T
   2    -45.0002162 -0.462089E-07  0.790E-03    3.03       2.4  T
   3    -45.0002162  0.440356E-07  0.159E-03    3.03      11.9  T
   4    -45.0002162 -0.523389E-07  0.535E-04    3.03      35.3  T
   5    -45.0002162 -0.512816E-08  0.194E-04    3.03      97.3  T
     SCC iter.                  ...        0 min,  0.005 sec
     gradient                   ...        0 min,  0.002 sec
 * total energy  :   -44.4810499 Eh     change       -0.1443734E-04 Eh
   gradient norm :     0.0022258 Eh/α   predicted    -0.8151050E-05 ( -43.54%)
   displ. norm   :     0.1768540 α      lambda       -0.5835879E-04
   maximum displ.:     0.0984891 α      in ANC's #6, #3, #2, ...

........................................................................
.............................. CYCLE   25 ..............................
........................................................................

 iter      E             dE          RMSdq      gap      omega  full diag
   1    -44.9997609 -0.449998E+02  0.544E-02    3.03       0.0  T
   2    -44.9997615 -0.546893E-06  0.319E-02    3.03       1.0  T
   3    -44.9997606  0.922259E-06  0.699E-03    3.03       2.7  T
   4    -44.9997617 -0.109302E-05  0.174E-03    3.03      10.9  T
   5    -44.9997617 -0.442856E-07  0.718E-04    3.03      26.3  T
   6    -44.9997617 -0.104546E-08  0.215E-04    3.03      88.1  T
     SCC iter.                  ...        0 min,  0.006 sec
     gradient                   ...        0 min,  0.003 sec
 * total energy  :   -44.4810906 Eh     change       -0.4067523E-04 Eh
   gradient norm :     0.0018002 Eh/α   predicted    -0.3009236E-04 ( -26.02%)
   displ. norm   :     0.2421974 α      lambda       -0.3090066E-04
   maximum displ.:     0.1334683 α      in ANC's #6, #3, #2, ...

........................................................................
.............................. CYCLE   26 ..............................
........................................................................

 iter      E             dE          RMSdq      gap      omega  full diag
   1    -44.9992119 -0.449992E+02  0.733E-02    3.02       0.0  T
   2    -44.9992125 -0.654046E-06  0.431E-02    3.02       1.0  T
   3    -44.9992108  0.176129E-05  0.936E-03    3.02       2.0  T
   4    -44.9992128 -0.207788E-05  0.184E-03    3.02      10.3  T
   5    -44.9992129 -0.336478E-07  0.855E-04    3.02      22.1  T
   6    -44.9992129 -0.143148E-08  0.239E-04    3.02      79.1  T
     SCC iter.                  ...        0 min,  0.007 sec
     gradient                   ...        0 min,  0.003 sec
 * total energy  :   -44.4811197 Eh     change       -0.2907689E-04 Eh
   gradient norm :     0.0028134 Eh/α   predicted    -0.1585342E-04 ( -45.48%)
   displ. norm   :     0.1084601 α      lambda       -0.2828435E-04
   maximum displ.:     0.0557771 α      in ANC's #6, #3, #2, ...

........................................................................
.............................. CYCLE   27 ..............................
........................................................................

 iter      E             dE          RMSdq      gap      omega  full diag
   1    -44.9997328 -0.449997E+02  0.335E-02    3.02       0.0  T
   2    -44.9997329 -0.113779E-06  0.197E-02    3.02       1.0  T
   3    -44.9997328  0.110947E-06  0.263E-03    3.02       7.2  T
   4    -44.9997329 -0.147891E-06  0.824E-04    3.02      22.9  T
   5    -44.9997329 -0.843176E-08  0.381E-04    3.02      49.6  T
     SCC iter.                  ...        0 min,  0.013 sec
     gradient                   ...        0 min,  0.003 sec
 * total energy  :   -44.4811444 Eh     change       -0.2472994E-04 Eh
   gradient norm :     0.0024731 Eh/α   predicted    -0.1431058E-04 ( -42.13%)
   displ. norm   :     0.3155448 α      lambda       -0.8138319E-04
   maximum displ.:     0.1611143 α      in ANC's #3, #2, #6, ...

........................................................................
.............................. CYCLE   28 ..............................
........................................................................

 iter      E             dE          RMSdq      gap      omega  full diag
   1    -45.0003110 -0.450003E+02  0.991E-02    3.02       0.0  T
   2    -45.0003119 -0.851582E-06  0.582E-02    3.02       1.0  T
   3    -45.0003111  0.755205E-06  0.692E-03    3.02       2.7  T
   4    -45.0003122 -0.103195E-05  0.227E-03    3.02       8.3  T
   5    -45.0003122 -0.623702E-07  0.979E-04    3.02      19.3  T
   6    -45.0003122 -0.259653E-08  0.253E-04    3.02      74.8  T
     SCC iter.                  ...        0 min,  0.010 sec
     gradient                   ...        0 min,  0.003 sec
 * total energy  :   -44.4812000 Eh     change       -0.5560294E-04 Eh
   gradient norm :     0.0023064 Eh/α   predicted    -0.4474572E-04 ( -19.53%)
   displ. norm   :     0.2373437 α      lambda       -0.4045669E-04
   maximum displ.:     0.1246406 α      in ANC's #3, #2, #6, ...

........................................................................
.............................. CYCLE   29 ..............................
........................................................................

 iter      E             dE          RMSdq      gap      omega  full diag
   1    -44.9999412 -0.449999E+02  0.768E-02    3.02       0.0  T
   2    -44.9999417 -0.539919E-06  0.451E-02    3.02       1.0  T
   3    -44.9999417  0.390824E-07  0.334E-03    3.02       5.7  T
   4    -44.9999419 -0.160233E-06  0.179E-03    3.02      10.6  T
   5    -44.9999419 -0.454427E-07  0.765E-04    3.02      24.7  T
   6    -44.9999419 -0.238136E-08  0.160E-04    3.02     118.3  T
     SCC iter.                  ...        0 min,  0.008 sec
     gradient                   ...        0 min,  0.003 sec
 * total energy  :   -44.4812266 Eh     change       -0.2659195E-04 Eh
   gradient norm :     0.0027323 Eh/α   predicted    -0.2137069E-04 ( -19.63%)
   displ. norm   :     0.1493712 α      lambda       -0.3338869E-04
   maximum displ.:     0.0800140 α      in ANC's #3, #2, #4, ...

........................................................................
.............................. CYCLE   30 ..............................
........................................................................

 iter      E             dE          RMSdq      gap      omega  full diag
   1    -45.0009860 -0.450010E+02  0.512E-02    3.02       0.0  T
   2    -45.0009863 -0.238789E-06  0.301E-02    3.02       1.0  T
   3    -45.0009863 -0.238087E-07  0.187E-03    3.02      10.1  T
   4    -45.0009864 -0.474252E-07  0.911E-04    3.02      20.7  T
   5    -45.0009864  0.103147E-08  0.591E-04    3.02      32.0  T
     SCC iter.                  ...        0 min,  0.006 sec
     gradient                   ...        0 min,  0.002 sec
 * total energy  :   -44.4812491 Eh     change       -0.2247011E-04 Eh
   gradient norm :     0.0022174 Eh/α   predicted    -0.1707385E-04 ( -24.02%)
   displ. norm   :     0.2790809 α      lambda       -0.3524264E-04
   maximum displ.:     0.1556295 α      in ANC's #3, #2, #4, ...

........................................................................
.............................. CYCLE   31 ..............................
........................................................................

 iter      E             dE          RMSdq      gap      omega  full diag
   1    -44.9997183 -0.449997E+02  0.934E-02    3.02       0.0  T
   2    -44.9997194 -0.115191E-05  0.549E-02    3.02       1.0  T
   3    -44.9997190  0.376702E-06  0.564E-03    3.02       3.3  T
   4    -44.9997196 -0.563207E-06  0.267E-03    3.02       7.1  T
   5    -44.9997197 -0.116372E-06  0.106E-03    3.02      17.8  T
   6    -44.9997197 -0.310065E-08  0.267E-04    3.02      70.7  T
   7    -44.9997197 -0.517950E-09  0.106E-04    3.02     177.8  T
     SCC iter.                  ...        0 min,  0.008 sec
     gradient                   ...        0 min,  0.002 sec
 * total energy  :   -44.4812730 Eh     change       -0.2387404E-04 Eh
   gradient norm :     0.0032052 Eh/α   predicted    -0.1899538E-04 ( -20.44%)
   displ. norm   :     0.2175027 α      lambda       -0.5355856E-04
   maximum displ.:     0.1270953 α      in ANC's #3, #2, #4, ...

........................................................................
.............................. CYCLE   32 ..............................
........................................................................

 iter      E             dE          RMSdq      gap      omega  full diag
   1    -45.0000026 -0.450000E+02  0.788E-02    3.03       0.0  T
   2    -45.0000032 -0.662520E-06  0.463E-02    3.02       1.0  T
   3    -45.0000032  0.483682E-07  0.415E-03    3.02       4.6  T
   4    -45.0000034 -0.249032E-06  0.218E-03    3.02       8.7  T
   5    -45.0000035 -0.477628E-07  0.932E-04    3.02      20.3  T
   6    -45.0000035 -0.635615E-08  0.181E-04    3.02     104.4  T
     SCC iter.                  ...        0 min,  0.007 sec
     gradient                   ...        0 min,  0.002 sec
 * total energy  :   -44.4813125 Eh     change       -0.3950421E-04 Eh
   gradient norm :     0.0035990 Eh/α   predicted    -0.2804785E-04 ( -29.00%)
   displ. norm   :     0.2335949 α      lambda       -0.6131880E-04
   maximum displ.:     0.1434521 α      in ANC's #3, #2, #4, ...

........................................................................
.............................. CYCLE   33 ..............................
........................................................................

 iter      E             dE          RMSdq      gap      omega  full diag
   1    -45.0000117 -0.450000E+02  0.874E-02    3.03       0.0  T
   2    -45.0000129 -0.126669E-05  0.513E-02    3.03       1.0  T
   3    -45.0000125  0.430717E-06  0.663E-03    3.03       2.8  T
   4    -45.0000132 -0.738784E-06  0.304E-03    3.03       6.2  T
   5    -45.0000134 -0.115746E-06  0.121E-03    3.03      15.6  T
   6    -45.0000134 -0.533338E-08  0.193E-04    3.03      97.8  T
   7    -45.0000134 -0.128573E-09  0.964E-05    3.03     196.1  T
     SCC iter.                  ...        0 min,  0.008 sec
     gradient                   ...        0 min,  0.002 sec
 * total energy  :   -44.4813606 Eh     change       -0.4808543E-04 Eh
   gradient norm :     0.0036587 Eh/α   predicted    -0.3233598E-04 ( -32.75%)
   displ. norm   :     0.2608712 α      lambda       -0.8060535E-04
   maximum displ.:     0.1676534 α      in ANC's #3, #2, #4, ...

........................................................................
.............................. CYCLE   34 ..............................
........................................................................

 iter      E             dE          RMSdq      gap      omega  full diag
   1    -45.0000268 -0.450000E+02  0.103E-01    3.05       0.0  T
   2    -45.0000287 -0.193549E-05  0.604E-02    3.05       1.0  T
   3    -45.0000281  0.621837E-06  0.853E-03    3.05       2.2  T
   4    -45.0000293 -0.121758E-05  0.375E-03    3.05       5.0  T
   5    -45.0000294 -0.138711E-06  0.149E-03    3.05      12.7  T
   6    -45.0000294 -0.115868E-07  0.290E-04    3.05      65.1  T
   7    -45.0000294 -0.614840E-09  0.147E-04    3.05     128.8  T
     SCC iter.                  ...        0 min,  0.008 sec
     gradient                   ...        0 min,  0.003 sec
 * total energy  :   -44.4814174 Eh     change       -0.5680032E-04 Eh
   gradient norm :     0.0032531 Eh/α   predicted    -0.4305202E-04 ( -24.20%)
   displ. norm   :     0.2780104 α      lambda       -0.5673959E-04
   maximum displ.:     0.1868759 α      in ANC's #3, #2, #4, ...

........................................................................
.............................. CYCLE   35 ..............................
........................................................................

 iter      E             dE          RMSdq      gap      omega  full diag
   1    -44.9979909 -0.449980E+02  0.107E-01    3.08       0.0  T
   2    -44.9979950 -0.410784E-05  0.625E-02    3.07       1.0  T
   3    -44.9979943  0.678918E-06  0.932E-03    3.07       2.0  T
   4    -44.9979954 -0.110833E-05  0.467E-03    3.07       4.0  T
   5    -44.9979958 -0.362459E-06  0.189E-03    3.07      10.0  T
   6    -44.9979958 -0.149660E-07  0.451E-04    3.07      41.9  T
   7    -44.9979958 -0.213135E-08  0.168E-04    3.07     112.2  T
     SCC iter.                  ...        0 min,  0.008 sec
     gradient                   ...        0 min,  0.003 sec
 * total energy  :   -44.4814448 Eh     change       -0.2742446E-04 Eh
   gradient norm :     0.0042914 Eh/α   predicted    -0.3056432E-04 (  11.45%)
   displ. norm   :     0.2557883 α      lambda       -0.1765108E-03
   maximum displ.:     0.1085744 α      in ANC's #3, #1, #6, ...

........................................................................
.............................. CYCLE   36 ..............................
........................................................................

 iter      E             dE          RMSdq      gap      omega  full diag
   1    -45.0024562 -0.450025E+02  0.106E-01    3.12       0.0  T
   2    -45.0024663 -0.100641E-04  0.616E-02    3.13       1.0  T
   3    -45.0024665 -0.201838E-06  0.114E-02    3.13       1.7  T
   4    -45.0024679 -0.141586E-05  0.386E-03    3.13       4.9  T
   5    -45.0024680 -0.393347E-07  0.198E-03    3.13       9.6  T
   6    -45.0024680 -0.349426E-08  0.109E-03    3.13      17.3  T
   7    -45.0024680 -0.233964E-07  0.265E-04    3.13      71.2  T
   8    -45.0024680 -0.254310E-09  0.111E-04    3.13     170.4  T
     SCC iter.                  ...        0 min,  0.009 sec
     gradient                   ...        0 min,  0.002 sec
 * total energy  :   -44.4813462 Eh     change        0.9862513E-04 Eh
   gradient norm :     0.0098767 Eh/α   predicted    -0.9404016E-04 (-195.35%)
   displ. norm   :     0.1523262 α      lambda       -0.2812359E-03
   maximum displ.:     0.0695440 α      in ANC's #6, #1, #4, ...

........................................................................
.............................. CYCLE   37 ..............................
........................................................................

 iter      E             dE          RMSdq      gap      omega  full diag
   1    -44.9997823 -0.449998E+02  0.625E-02    3.10       0.0  T
   2    -44.9997864 -0.408903E-05  0.363E-02    3.10       1.0  T
   3    -44.9997864 -0.244267E-07  0.740E-03    3.10       2.6  T
   4    -44.9997869 -0.545706E-06  0.271E-03    3.10       7.0  T
   5    -44.9997870 -0.358547E-07  0.163E-03    3.10      11.6  T
   6    -44.9997870 -0.257710E-07  0.670E-04    3.10      28.2  T
   7    -44.9997870 -0.539112E-08  0.158E-04    3.10     119.7  T
     SCC iter.                  ...        0 min,  0.008 sec
     gradient                   ...        0 min,  0.002 sec
 * total energy  :   -44.4814996 Eh     change       -0.1534768E-03 Eh
   gradient norm :     0.0022515 Eh/α   predicted    -0.1438747E-03 (  -6.26%)
   displ. norm   :     0.0389492 α      lambda       -0.1984660E-04
   maximum displ.:     0.0221369 α      in ANC's #3, #5, #6, ...

........................................................................
.............................. CYCLE   38 ..............................
........................................................................

 iter      E             dE          RMSdq      gap      omega  full diag
   1    -44.9995267 -0.449995E+02  0.104E-02    3.10       0.0  T
   2    -44.9995268 -0.869082E-07  0.601E-03    3.10       3.1  T
   3    -44.9995268  0.653091E-07  0.210E-03    3.10       9.0  T
   4    -44.9995268 -0.720913E-07  0.704E-04    3.10      26.8  T
   5    -44.9995269 -0.105332E-07  0.194E-04    3.10      97.6  T
     SCC iter.                  ...        0 min,  0.006 sec
     gradient                   ...        0 min,  0.002 sec
 * total energy  :   -44.4815161 Eh     change       -0.1649671E-04 Eh
   gradient norm :     0.0016906 Eh/α   predicted    -0.9941177E-05 ( -39.74%)
   displ. norm   :     0.2530571 α      lambda       -0.4468424E-04
   maximum displ.:     0.1937854 α      in ANC's #3, #2, #5, ...

........................................................................
.............................. CYCLE   39 ..............................
........................................................................

 iter      E             dE          RMSdq      gap      omega  full diag
   1    -44.9983357 -0.449983E+02  0.735E-02    3.11       0.0  T
   2    -44.9983382 -0.242003E-05  0.430E-02    3.11       1.0  T
   3    -44.9983376  0.550238E-06  0.720E-03    3.11       2.6  T
   4    -44.9983383 -0.640658E-06  0.355E-03    3.11       5.3  T
   5    -44.9983385 -0.257759E-06  0.118E-03    3.11      16.0  T
   6    -44.9983385 -0.387427E-08  0.357E-04    3.11      52.9  T
   7    -44.9983385 -0.767791E-09  0.117E-04    3.11     161.9  T
     SCC iter.                  ...        0 min,  0.008 sec
     gradient                   ...        0 min,  0.002 sec
 * total energy  :   -44.4815473 Eh     change       -0.3117910E-04 Eh
   gradient norm :     0.0036520 Eh/α   predicted    -0.2298674E-04 ( -26.28%)
   displ. norm   :     0.0449305 α      lambda       -0.1844632E-04
   maximum displ.:     0.0252489 α      in ANC's #5, #2, #4, ...

........................................................................
.............................. CYCLE   40 ..............................
........................................................................

 iter      E             dE          RMSdq      gap      omega  full diag
   1    -44.9996647 -0.449997E+02  0.168E-02    3.11       0.0  T
   2    -44.9996651 -0.403931E-06  0.985E-03    3.11       1.9  T
   3    -44.9996649  0.144450E-06  0.370E-03    3.11       5.1  T
   4    -44.9996651 -0.161511E-06  0.145E-03    3.11      13.0  T
   5    -44.9996652 -0.469610E-07  0.337E-04    3.11      56.0  T
   6    -44.9996652 -0.396845E-09  0.151E-04    3.11     125.1  T
     SCC iter.                  ...        0 min,  0.007 sec
     gradient                   ...        0 min,  0.002 sec
 * total energy  :   -44.4815584 Eh     change       -0.1106691E-04 Eh
   gradient norm :     0.0020094 Eh/α   predicted    -0.9254540E-05 ( -16.38%)
   displ. norm   :     0.0961571 α      lambda       -0.1838842E-04
   maximum displ.:     0.0711762 α      in ANC's #3, #2, #1, ...

........................................................................
.............................. CYCLE   41 ..............................
........................................................................

 iter      E             dE          RMSdq      gap      omega  full diag
   1    -44.9999597 -0.450000E+02  0.320E-02    3.12       0.0  T
   2    -44.9999601 -0.390490E-06  0.187E-02    3.11       1.0  T
   3    -44.9999601 -0.396633E-08  0.229E-03    3.12       8.2  T
   4    -44.9999601 -0.455143E-07  0.123E-03    3.12      15.4  T
   5    -44.9999601 -0.200646E-07  0.584E-04    3.12      32.3  T
   6    -44.9999601 -0.231999E-08  0.152E-04    3.12     124.2  T
     SCC iter.                  ...        0 min,  0.009 sec
     gradient                   ...        0 min,  0.002 sec
 * total energy  :   -44.4815716 Eh     change       -0.1321564E-04 Eh
   gradient norm :     0.0011143 Eh/α   predicted    -0.9284734E-05 ( -29.74%)
   displ. norm   :     0.1827952 α      lambda       -0.1407334E-04
   maximum displ.:     0.1328608 α      in ANC's #3, #2, #4, ...

........................................................................
.............................. CYCLE   42 ..............................
........................................................................

 iter      E             dE          RMSdq      gap      omega  full diag
   1    -44.9996988 -0.449997E+02  0.582E-02    3.13       0.0  T
   2    -44.9996994 -0.592381E-06  0.340E-02    3.12       1.0  T
   3    -44.9996993  0.448901E-07  0.354E-03    3.13       5.3  T
   4    -44.9996995 -0.163210E-06  0.187E-03    3.12      10.1  T
   5    -44.9996995 -0.485319E-07  0.839E-04    3.12      22.5  T
   6    -44.9996995 -0.316178E-08  0.207E-04    3.12      91.4  T
     SCC iter.                  ...        0 min,  0.007 sec
     gradient                   ...        0 min,  0.002 sec
 * total energy  :   -44.4815809 Eh     change       -0.9301800E-05 Eh
   gradient norm :     0.0015667 Eh/α   predicted    -0.7147131E-05 ( -23.16%)
   displ. norm   :     0.0291329 α      lambda       -0.5190263E-05
   maximum displ.:     0.0155200 α      in ANC's #4, #2, #3, ...
 * RMSD in coord.:     0.5693488 α      energy gain  -0.6589680E-03 Eh

generating ANC from exact Hessian ...
Using Lindh-Hessian (1995)
 Shifting diagonal of input Hessian by   9.347555688974950E-003
 Lowest  eigenvalues of input Hessian
    0.000000    0.000000    0.000000    0.000000    0.000000    0.000000
    0.010000    0.010238    0.010406    0.012515    0.013845    0.014922
    0.019107    0.019325    0.021439    0.022088    0.027912    0.029623
 Highest eigenvalues
    1.693055    1.832805    1.920800    2.067839    2.377671    2.548044
 

........................................................................
.............................. CYCLE   43 ..............................
........................................................................

 iter      E             dE          RMSdq      gap      omega  full diag
   1    -44.9998684 -0.449999E+02  0.101E-02    3.12       0.0  T
   2    -44.9998685 -0.580852E-07  0.594E-03    3.12       3.2  T
   3    -44.9998685 -0.875978E-09  0.679E-04    3.12      27.8  T
   4    -44.9998685 -0.462694E-08  0.254E-04    3.12      74.4  T
     SCC iter.                  ...        0 min,  0.005 sec
     gradient                   ...        0 min,  0.002 sec
 * total energy  :   -44.4815857 Eh     change       -0.4857645E-05 Eh
   gradient norm :     0.0009329 Eh/α   predicted     0.0000000E+00 (-100.00%)
   displ. norm   :     0.0151166 α      lambda       -0.1767037E-05
   maximum displ.:     0.0101204 α      in ANC's #2, #4, #3, ...

   *** GEOMETRY OPTIMIZATION CONVERGED AFTER 43 ITERATIONS ***

------------------------------------------------------------------------
 total energy gain   :        -0.0358554 Eh      -22.4996 kcal/mol
 total RMSD          :         1.1050053 a0        0.5847 Å
 total power (kW/mol):        -2.1892619 (step) -168.3683 (real)
------------------------------------------------------------------------

 ANCopt (total)                0 d,  0 h,  0 min,  0.559 sec
 optimizer setup                ...        0 min,  0.000 sec (  0.024%)
 model hessian                  ...        0 min,  0.029 sec (  5.257%)
 ANC generation                 ...        0 min,  0.003 sec (  0.507%)
 coordinate transformation      ...        0 min,  0.000 sec (  0.076%)
 single point calculation       ...        0 min,  0.495 sec ( 88.519%)
 optimization log               ...        0 min,  0.008 sec (  1.435%)
 hessian update                 ...        0 min,  0.016 sec (  2.856%)
 rational function              ...        0 min,  0.004 sec (  0.798%)

================
 final structure:
================
28
 xtb: 6.7.1 (edcfbbe)
C            4.97262814125160        0.29735747834519        0.48249380183162
C            3.76260012854816       -0.14043652968451       -0.27922468905139
C            3.80531097887400       -0.81749026653567       -1.42193642138793
C            2.46951275522894        0.23707004547621        0.35135479180966
O            2.36997656651248        0.76786197067347        1.43106964420803
O            1.40610038212758       -0.08153937438528       -0.40344262076555
C            0.13524209441927        0.25291235212289        0.13945595753174
C           -0.93752306374156       -0.31946442470363       -0.78893519143378
N           -2.25830378204664        0.02131850161154       -0.34800102868068
C           -2.92958557710001       -0.68079940641502        0.72189945232951
C           -4.31668531212557       -0.01859858830782        0.74130436771261
N           -4.37965097078469        0.59529931870768       -0.56490921918992
C           -3.13898418624610        0.72005690129180       -1.13521017478444
O           -2.86810750421895        1.31479720059178       -2.14999181638370
H            4.89780403563844       -0.03405916244229        1.51635093051531
H            5.87877117522552       -0.09935894414981        0.03453904618220
H            5.02501409097692        1.38503541372408        0.49702281733535
H            2.90782521023005       -1.11036348019000       -1.93719789286117
H            4.74308734415829       -1.09504582850953       -1.87363257079713
H            0.04134224660137        1.34218323910350        0.20961539543250
H            0.05671347063927       -0.16365892038936        1.15052529105295
H           -0.81257607563917        0.11055332903586       -1.78640785174325
H           -0.81834609626100       -1.40860979421025       -0.85118431822396
H           -2.39932713456357       -0.55716696885835        1.66923772349924
H           -2.99913067716286       -1.75429111050658        0.49564980304273
H           -4.38735909533743        0.72762062864821        1.54376020303343
H           -5.12309528325735       -0.74509527756580        0.86838185803843
H           -5.10325686194485        1.25391269752237       -0.79542428825341
 
 Bond Distances (Angstroems)
 ---------------------------
C1-C2=1.4953         C1-H15=1.0883        C1-H16=1.0859        C1-H17=1.0890        C2-C1=1.4953         C2-C3=1.3289         
C2-C4=1.4874         C3-C2=1.3289         C3-H18=1.0755        C3-H19=1.0773        C4-C2=1.4874         C4-O5=1.2072         
C4-O6=1.3424         O5-C4=1.2072         O6-C4=1.3424         O6-C7=1.4219         C7-O6=1.4219         C7-C8=1.5298         
C7-H20=1.0956        C7-H21=1.0963        C8-C7=1.5298         C8-N9=1.4335         C8-H22=1.0934        C8-H23=1.0974        
N9-C8=1.4335         N9-C10=1.4451        N9-C13=1.3724        C10-N9=1.4451        C10-C11=1.5372       C10-H24=1.0927       
C10-H25=1.0993       C11-C10=1.5372       C11-N12=1.4447       C11-H26=1.0981       C11-H27=1.0928       N12-C11=1.4447       
N12-C13=1.3712       N12-H28=1.0052       C13-N9=1.3724        C13-N12=1.3712       C13-O14=1.2070       O14-C13=1.2070       
H15-C1=1.0883        H16-C1=1.0859        H17-C1=1.0890        H18-C3=1.0755        H19-C3=1.0773        H20-C7=1.0956        
H21-C7=1.0963        H22-C8=1.0934        H23-C8=1.0974        H24-C10=1.0927       H25-C10=1.0993       H26-C11=1.0981       
H27-C11=1.0928       H28-N12=1.0052       
 C  H  Rav=1.0909 sigma=0.0073  Rmin=1.0755  Rmax=1.0993    13
 C  C  Rav=1.4757 sigma=0.0759  Rmin=1.3289  Rmax=1.5372     5
 N  H  Rav=1.0052 sigma=0.0000  Rmin=1.0052  Rmax=1.0052     1
 N  C  Rav=1.4134 sigma=0.0342  Rmin=1.3712  Rmax=1.4451     5
 O  C  Rav=1.2946 sigma=0.0919  Rmin=1.2070  Rmax=1.4219     4
 
 selected bond angles (degree)
 --------------------
H15-C1-C2=109.82               H16-C1-C2=110.99               H16-C1-H15=109.76              H17-C1-C2=109.76               
H17-C1-H15=107.15              H17-C1-H16=109.28              C3-C2-C1=124.14                C4-C2-C1=114.41                
C4-C2-C3=121.45                H18-C3-C2=121.59               H19-C3-C2=121.32               H19-C3-H18=117.09              
O5-C4-C2=124.23                O6-C4-C2=112.96                O6-C4-O5=122.81                C7-O6-C4=115.95                
C8-C7-O6=107.88                H20-C7-O6=109.57               H20-C7-C8=110.53               H21-C7-O6=109.07               
H21-C7-C8=111.55               H21-C7-H20=108.22              N9-C8-C7=111.74                H22-C8-C7=109.05               
H22-C8-N9=107.00               H23-C8-C7=109.24               H23-C8-N9=110.70               H23-C8-H22=109.04              
C10-N9-C8=122.70               C13-N9-C8=122.40               C13-N9-C10=111.96              C11-C10-N9=102.66              
H24-C10-N9=111.19              H24-C10-C11=112.22             H25-C10-N9=110.58              H25-C10-C11=111.48             
H25-C10-H24=108.64             
 
 selected dihedral angles (degree)
 ---------------------------------
C3-C2-C1-H15=232.53           C3-C2-C1-H16=354.08           C3-C2-C1-H17=114.99           C4-C2-C1-H15= 52.17           
C4-C2-C1-H16=173.71           C4-C2-C1-H17=294.62           H18-C3-C2-C1=180.13           H18-C3-C2-C4=  0.52           
H19-C3-C2-C1=  0.00           H19-C3-C2-C4=180.38           O5-C4-C2-C1=354.96            O5-C4-C2-C3=174.60            
O6-C4-C2-C1=175.35            O6-C4-C2-C3=355.00            C7-O6-C4-C2=180.06            C7-O6-C4-O5=  0.44            
C8-C7-O6-C4=185.94            H20-C7-O6-C4= 65.55           H21-C7-O6-C4=307.27           N9-C8-C7-O6=182.54            
N9-C8-C7-H20=302.31           N9-C8-C7-H21= 62.76           H22-C8-C7-O6=300.62           H22-C8-C7-H20= 60.40          
H22-C8-C7-H21=180.85          H23-C8-C7-O6= 59.70           H23-C8-C7-H20=179.48          H23-C8-C7-H21=299.92          
C10-N9-C8-C7=280.46           C10-N9-C8-H22=161.16          C10-N9-C8-H23= 42.47          C13-N9-C8-C7=121.44           
C13-N9-C8-H22=  2.14          C13-N9-C8-H23=243.45          C11-C10-N9-C8=183.79          C11-C10-N9-C13=344.77         
H24-C10-N9-C8= 63.60          H24-C10-N9-C13=224.58         H25-C10-N9-C8=302.82          H25-C10-N9-C13=103.80         
           -------------------------------------------------
          |                Final Singlepoint                |
           -------------------------------------------------

          ...................................................
          :                      SETUP                      :
          :.................................................:
          :  # basis functions                  70          :
          :  # atomic orbitals                  70          :
          :  # shells                           42          :
          :  # electrons                        78          :
          :  max. iterations                   250          :
          :  Hamiltonian                  GFN2-xTB          :
          :  restarted?                      false          :
          :  GBSA solvation                  false          :
          :  PC potential                    false          :
          :  electronic temp.          300.0000000     K    :
          :  accuracy                    1.0000000          :
          :  -> integral cutoff          0.2500000E+02      :
          :  -> integral neglect         0.1000000E-07      :
          :  -> SCF convergence          0.1000000E-05 Eh   :
          :  -> wf. convergence          0.1000000E-03 e    :
          :  Broyden damping             0.4000000          :
          :  net charge                          0          :
          :  unpaired electrons                  0          :
          ...................................................

 iter      E             dE          RMSdq      gap      omega  full diag
   1    -44.9998685 -0.449999E+02  0.152E-04    3.12       0.0  T
   2    -44.9998685 -0.128750E-10  0.120E-04    3.12     158.0  T
   3    -44.9998685 -0.223295E-09  0.576E-05    3.12     327.9  T

   *** convergence criteria satisfied after 3 iterations ***

         #    Occupation            Energy/Eh            Energy/eV
      -------------------------------------------------------------
         1        2.0000           -0.7434318             -20.2298
       ...           ...                  ...                  ...
        33        2.0000           -0.4564891             -12.4217
        34        2.0000           -0.4425791             -12.0432
        35        2.0000           -0.4183766             -11.3846
        36        2.0000           -0.4135808             -11.2541
        37        2.0000           -0.4093249             -11.1383
        38        2.0000           -0.3999505             -10.8832
        39        2.0000           -0.3856318             -10.4936 (HOMO)
        40                         -0.2708919              -7.3713 (LUMO)
        41                         -0.1808336              -4.9207
        42                         -0.1632185              -4.4414
        43                         -0.0418833              -1.1397
        44                          0.0088014               0.2395
       ...                                ...                  ...
        70                          0.6980609              18.9952
      -------------------------------------------------------------
                  HL-Gap            0.1147399 Eh            3.1222 eV
             Fermi-level           -0.3282619 Eh           -8.9325 eV

 SCC (total)                   0 d,  0 h,  0 min,  0.007 sec
 SCC setup                      ...        0 min,  0.000 sec (  1.540%)
 Dispersion                     ...        0 min,  0.000 sec (  1.877%)
 classical contributions        ...        0 min,  0.000 sec (  0.568%)
 integral evaluation            ...        0 min,  0.001 sec (  7.949%)
 iterations                     ...        0 min,  0.003 sec ( 51.666%)
 molecular gradient             ...        0 min,  0.002 sec ( 33.925%)
 printout                       ...        0 min,  0.000 sec (  2.060%)

         :::::::::::::::::::::::::::::::::::::::::::::::::::::
         ::                     SUMMARY                     ::
         :::::::::::::::::::::::::::::::::::::::::::::::::::::
         :: total energy             -44.481585747025 Eh    ::
         :: gradient norm              0.000931229254 Eh/a0 ::
         :: HOMO-LUMO gap              3.122231920784 eV    ::
         ::.................................................::
         :: SCC energy               -44.999975611025 Eh    ::
         :: -> isotropic ES            0.092367204226 Eh    ::
         :: -> anisotropic ES          0.003670143186 Eh    ::
         :: -> anisotropic XC          0.013063096608 Eh    ::
         :: -> dispersion             -0.021440046091 Eh    ::
         :: repulsion energy           0.518389864000 Eh    ::
         :: add. restraining           0.000000000000 Eh    ::
         :: total charge              -0.000000000000 e     ::
         :::::::::::::::::::::::::::::::::::::::::::::::::::::

           -------------------------------------------------
          |                Property Printout                |
           -------------------------------------------------

    * Orbital Energies and Occupations

         #    Occupation            Energy/Eh            Energy/eV
      -------------------------------------------------------------
         1        2.0000           -0.7434318             -20.2298
       ...           ...                  ...                  ...
        27        2.0000           -0.4931164             -13.4184
        28        2.0000           -0.4916094             -13.3774
        29        2.0000           -0.4888463             -13.3022
        30        2.0000           -0.4801390             -13.0652
        31        2.0000           -0.4703929             -12.8000
        32        2.0000           -0.4685105             -12.7488
        33        2.0000           -0.4564891             -12.4217
        34        2.0000           -0.4425791             -12.0432
        35        2.0000           -0.4183766             -11.3846
        36        2.0000           -0.4135808             -11.2541
        37        2.0000           -0.4093249             -11.1383
        38        2.0000           -0.3999505             -10.8832
        39        2.0000           -0.3856318             -10.4936 (HOMO)
        40                         -0.2708919              -7.3713 (LUMO)
        41                         -0.1808336              -4.9207
        42                         -0.1632185              -4.4414
        43                         -0.0418833              -1.1397
        44                          0.0088014               0.2395
        45                          0.0363851               0.9901
        46                          0.0479753               1.3055
        47                          0.0730908               1.9889
        48                          0.0872395               2.3739
        49                          0.1037450               2.8230
        50                          0.1121161               3.0508
       ...                                ...                  ...
        70                          0.6980609              18.9952
      -------------------------------------------------------------
                  HL-Gap            0.1147399 Eh            3.1222 eV
             Fermi-level           -0.3282619 Eh           -8.9325 eV

     #   Z          covCN         q      C6AA      α(0)
     1   6 C        3.759    -0.111    22.678     6.789
     2   6 C        2.937    -0.007    28.191     8.708
     3   6 C        2.844    -0.082    30.034     8.981
     4   6 C        2.731     0.350    21.051     7.512
     5   8 O        0.856    -0.413    21.944     6.281
     6   8 O        1.705    -0.266    18.416     5.794
     7   6 C        3.707     0.077    19.428     6.300
     8   6 C        3.741    -0.002    20.696     6.491
     9   7 N        2.784    -0.136    23.943     7.267
    10   6 C        3.787     0.000    20.593     6.463
    11   6 C        3.783     0.007    20.484     6.447
    12   7 N        2.736    -0.215    25.685     7.527
    13   6 C        2.756     0.326    21.454     7.585
    14   8 O        0.858    -0.462    22.963     6.425
    15   1 H        0.925     0.068     2.110     2.272
    16   1 H        0.925     0.052     2.297     2.370
    17   1 H        0.925     0.065     2.146     2.291
    18   1 H        0.926     0.064     2.155     2.296
    19   1 H        0.926     0.058     2.225     2.332
    20   1 H        0.924     0.061     2.184     2.311
    21   1 H        0.924     0.053     2.279     2.361
    22   1 H        0.924     0.091     1.866     2.136
    23   1 H        0.924     0.050     2.325     2.385
    24   1 H        0.924     0.051     2.310     2.377
    25   1 H        0.923     0.045     2.382     2.414
    26   1 H        0.923     0.043     2.408     2.427
    27   1 H        0.924     0.056     2.252     2.347
    28   1 H        0.860     0.178     1.224     1.733

 Mol. C6AA /au·bohr⁶  :       7533.475710
 Mol. C8AA /au·bohr⁸  :     167323.617454
 Mol. α(0) /au        :        130.621150


Wiberg/Mayer (AO) data.
largest (>0.10) Wiberg bond orders for each atom

 ---------------------------------------------------------------------------
     #   Z sym  total        # sym  WBO       # sym  WBO       # sym  WBO
 ---------------------------------------------------------------------------
     1   6 C    3.993 --     2 C    1.029    16 H    0.984    15 H    0.968
                            17 H    0.965
     2   6 C    3.986 --     3 C    1.876     1 C    1.029     4 C    0.995
     3   6 C    3.988 --     2 C    1.876    19 H    0.974    18 H    0.972
     4   6 C    3.914 --     5 O    1.730     6 O    1.113     2 C    0.995
     5   8 O    2.032 --     4 C    1.730     6 O    0.169
     6   8 O    2.298 --     4 C    1.113     7 C    0.949     5 O    0.169
     7   6 C    3.931 --     8 C    0.991    21 H    0.967    20 H    0.967
                             6 O    0.949
     8   6 C    3.970 --     9 N    1.003     7 C    0.991    23 H    0.965
                            22 H    0.962
     9   7 N    3.400 --    13 C    1.135     8 C    1.003    10 C    0.996
                            14 O    0.150
    10   6 C    3.979 --    11 C    0.997     9 N    0.996    24 H    0.972
                            25 H    0.968
    11   6 C    3.978 --    12 N    1.006    10 C    0.997    27 H    0.973
                            26 H    0.970
    12   7 N    3.328 --    13 C    1.142    11 C    1.006    28 H    0.941
                            14 O    0.147
    13   6 C    3.960 --    14 O    1.629    12 N    1.142     9 N    1.135
    14   8 O    1.980 --    13 C    1.629     9 N    0.150    12 N    0.147
    15   1 H    0.995 --     1 C    0.968
    16   1 H    0.997 --     1 C    0.984
    17   1 H    0.996 --     1 C    0.965
    18   1 H    0.996 --     3 C    0.972
    19   1 H    0.997 --     3 C    0.974
    20   1 H    0.996 --     7 C    0.967
    21   1 H    0.997 --     7 C    0.967
    22   1 H    0.992 --     8 C    0.962
    23   1 H    0.998 --     8 C    0.965
    24   1 H    0.997 --    10 C    0.972
    25   1 H    0.998 --    10 C    0.968
    26   1 H    0.998 --    11 C    0.970
    27   1 H    0.997 --    11 C    0.973
    28   1 H    0.968 --    12 N    0.941
 ---------------------------------------------------------------------------

Topologies differ in total number of bonds
Writing topology from bond orders to xtbtopo.mol

molecular dipole:
                 x           y           z       tot (Debye)
 q only:       -0.327      -1.122       0.694
   full:       -0.473      -1.166       0.856       3.869
molecular quadrupole (traceless):
                xx          xy          yy          xz          yz          zz
 q only:       18.930       1.850      -5.740     -17.271       3.556     -13.190
  q+dip:       19.109       0.697      -3.604     -19.448       4.964     -15.505
   full:       19.368       0.706      -3.367     -19.592       3.966     -16.001

           -------------------------------------------------
          |                Geometry Summary                 |
           -------------------------------------------------

      molecular mass/u    :      198.2194148
   center of mass at/Å    :       -0.1544503       0.1657273      -0.2233649
  moments of inertia/u·Å² :        0.2566520E+03   0.2044287E+04   0.2160561E+04
rotational constants/cm⁻¹ :        0.6568285E-01   0.8246214E-02   0.7802434E-02

 * 26 selected distances

     #   Z          #   Z                                           value/Å
     2   6 C        3   6 C                                       1.3289155
     4   6 C        5   8 O                                       1.2072415
     4   6 C        6   8 O                                       1.3424147
     6   8 O        7   6 C                                       1.4218572
     7   6 C        8   6 C                                       1.5298205
     8   6 C        9   7 N                                       1.4335334
     9   7 N       10   6 C                                       1.4450869
    10   6 C       11   6 C                                       1.5371833 (max)
    11   6 C       12   7 N                                       1.4446555
     9   7 N       13   6 C                                       1.3724183
    12   7 N       13   6 C                                       1.3711535
    13   6 C       14   8 O                                       1.2070096
     1   6 C       15   1 H                                       1.0882538
     1   6 C       16   1 H                                       1.0858834
     1   6 C       17   1 H                                       1.0890358
     3   6 C       18   1 H                                       1.0755231
     3   6 C       19   1 H                                       1.0772610
     7   6 C       20   1 H                                       1.0955596
     7   6 C       21   1 H                                       1.0963393
     8   6 C       22   1 H                                       1.0933796
     8   6 C       23   1 H                                       1.0974133
    10   6 C       24   1 H                                       1.0926614
    10   6 C       25   1 H                                       1.0992771
    11   6 C       26   1 H                                       1.0980772
    11   6 C       27   1 H                                       1.0928144
    12   7 N       28   1 H                                       1.0052435 (min)

 * 5 distinct bonds (by element types)

   Z      Z             #   av. dist./Å        max./Å        min./Å
   1 H    6 C          13     1.0908830     1.0992771     1.0755231
   6 C    6 C           3     1.4653064     1.5371833     1.3289155
   1 H    7 N           1     1.0052435     1.0052435     1.0052435
   6 C    7 N           5     1.4133695     1.4450869     1.3711535
   6 C    8 O           4     1.2946308     1.4218572     1.2070096


optimized geometry written to: xtbopt.xyz


           -------------------------------------------------
          | TOTAL ENERGY              -44.481585747025 Eh   |
          | GRADIENT NORM               0.000931229254 Eh/α |
          | HOMO-LUMO GAP               3.122231920784 eV   |
           -------------------------------------------------

------------------------------------------------------------------------
 * finished run on 2025/12/01 at 14:18:41.342     
------------------------------------------------------------------------
 total:
 * wall-time:     0 d,  0 h,  0 min,  0.604 sec
 *  cpu-time:     0 d,  0 h,  0 min, 13.627 sec
 * ratio c/w:    22.562 speedup
 SCF:
 * wall-time:     0 d,  0 h,  0 min,  0.027 sec
 *  cpu-time:     0 d,  0 h,  0 min,  0.619 sec
 * ratio c/w:    22.615 speedup
 ANC optimizer:
 * wall-time:     0 d,  0 h,  0 min,  0.567 sec
 *  cpu-time:     0 d,  0 h,  0 min, 12.823 sec
 * ratio c/w:    22.628 speedup

normal termination of xtb
