      -----------------------------------------------------------      
     |                   =====================                   |     
     |                           x T B                           |     
     |                   =====================                   |     
     |                         S. Grimme                         |     
     |          Mulliken Center for Theoretical Chemistry        |     
     |                    University of Bonn                     |     
      -----------------------------------------------------------      

   * xtb version 6.7.1 (edcfbbe) compiled by 'albert@albert-system' on 2024-07-22

   xtb is free software: you can redistribute it and/or modify it under
   the terms of the GNU Lesser General Public License as published by
   the Free Software Foundation, either version 3 of the License, or
   (at your option) any later version.
   
   xtb is distributed in the hope that it will be useful,
   but WITHOUT ANY WARRANTY; without even the implied warranty of
   MERCHANTABILITY or FITNESS FOR A PARTICULAR PURPOSE.  See the
   GNU Lesser General Public License for more details.
   
   Cite this work as:
   * C. Bannwarth, E. Caldeweyher, S. Ehlert, A. Hansen, P. Pracht,
     J. Seibert, S. Spicher, S. Grimme, WIREs Comput. Mol. Sci., 2020, 11,
     e01493. DOI: 10.1002/wcms.1493
   
   for GFN2-xTB:
   * C. Bannwarth, S. Ehlert and S. Grimme., J. Chem. Theory Comput., 2019,
     15, 1652-1671. DOI: 10.1021/acs.jctc.8b01176
   for GFN1-xTB:
   * S. Grimme, C. Bannwarth, P. Shushkov, J. Chem. Theory Comput., 2017,
     13, 1989-2009. DOI: 10.1021/acs.jctc.7b00118
   for GFN0-xTB:
   * P. Pracht, E. Caldeweyher, S. Ehlert, S. Grimme, ChemRxiv, 2019, preprint.
     DOI: 10.26434/chemrxiv.8326202.v1
   for GFN-FF:
   * S. Spicher and S. Grimme, Angew. Chem. Int. Ed., 2020, 59, 15665-15673.
     DOI: 10.1002/anie.202004239
   
   for ALPB and GBSA implicit solvation:
   * S. Ehlert, M. Stahn, S. Spicher, S. Grimme, J. Chem. Theory Comput.,
     2021, 17, 4250-4261. DOI: 10.1021/acs.jctc.1c00471
   
   for ddCOSMO and CPCM-X implicit solvation:
   * M. Stahn, S. Ehlert, S. Grimme, J. Phys. Chem. A,
     2023, XX, XXXX-XXXX. DOI: 10.1021/acs.jpca.3c04382
   
   for DFT-D4:
   * E. Caldeweyher, C. Bannwarth and S. Grimme, J. Chem. Phys., 2017,
     147, 034112. DOI: 10.1063/1.4993215
   * E. Caldeweyher, S. Ehlert, A. Hansen, H. Neugebauer, S. Spicher,
     C. Bannwarth and S. Grimme, J. Chem. Phys., 2019, 150, 154122.
     DOI: 10.1063/1.5090222
   * E. Caldeweyher, J.-M. Mewes, S. Ehlert and S. Grimme, Phys. Chem. Chem. Phys.
     2020, 22, 8499-8512. DOI: 10.1039/D0CP00502A
   
   for sTDA-xTB:
   * S. Grimme and C. Bannwarth, J. Chem. Phys., 2016, 145, 054103.
     DOI: 10.1063/1.4959605
   
   in the mass-spec context:
   * V. Asgeirsson, C. Bauer and S. Grimme, Chem. Sci., 2017, 8, 4879.
     DOI: 10.1039/c7sc00601b
   * J. Koopman and S. Grimme, ACS Omega 2019, 4, 12, 15120-15133.
     DOI: 10.1021/acsomega.9b02011
   
   for metadynamics refer to:
   * S. Grimme, J. Chem. Theory Comput., 2019, 155, 2847-2862
     DOI: 10.1021/acs.jctc.9b00143
   
   for SPH calculations refer to:
   * S. Spicher and S. Grimme, J. Chem. Theory Comput., 2021, 17, 1701-1714
     DOI: 10.1021/acs.jctc.0c01306
   
   for ONIOM refer to:
   * C. Plett, A. Katbashev, S. Ehlert, S. Grimme, M. Bursch,
     Phys. Chem. Chem. Phys., 2023, 25, 17860-17868. DOI: 10.1039/D3CP02178E
   
   for DIPRO refer to:
   * J. Kohn, N. Gildemeister, S. Grimme, D. Fazzi, A. Hansen,
     J. Chem. Phys., 2023, just accepted.
   
   for PTB refer to:
   * S. Grimme, M. Mueller, A. Hansen, J. Chem. Phys., 2023, 158, 124111.
     DOI: 10.1063/5.0137838
   
   with help from (in alphabetical order)
   P. Atkinson, C. Bannwarth, F. Bohle, G. Brandenburg, E. Caldeweyher
   M. Checinski, S. Dohm, S. Ehlert, S. Ehrlich, I. Gerasimov, C. Hölzer
   A. Katbashev, J. Kohn, J. Koopman, C. Lavigne, S. Lehtola, F. März, M. Müller,
   F. Musil, H. Neugebauer, J. Pisarek, C. Plett, P. Pracht, F. Pultar,
   J. Seibert, P. Shushkov, S. Spicher, M. Stahn, M. Steiner, T. Strunk,
   J. Stückrath, T. Rose, and J. Unsleber
   
 * started run on 2025/12/01 at 14:18:38.233     
   ID    Z sym.   atoms
    1    6 C      1-4, 7, 8, 10, 11, 13
    2    8 O      5, 6, 14
    3    7 N      9, 12
    4    1 H      15-28

           -------------------------------------------------
          |                Calculation Setup                |
           -------------------------------------------------

          program call               : xtb pipeline_data/3_conformer_xyz/acrylates/rdkit/PFPUZMSQZJFLBK-UHFFFAOYSA-N_conf185.xyz --opt --gfn 2-xTB --iterations 250
          coordinate file            : pipeline_data/3_conformer_xyz/acrylates/rdkit/PFPUZMSQZJFLBK-UHFFFAOYSA-N_conf185.xyz
          omp threads                :                    24

########################################################################
[WARNING] Please study the warnings concerning your input carefully
-1- readin_getIntValue: could not parse '2-xTB'
########################################################################

           -------------------------------------------------
          |                 G F N 2 - x T B                 |
           -------------------------------------------------

        Reference                      10.1021/acs.jctc.8b01176
      * Hamiltonian:
        H0-scaling (s, p, d)           1.850000    2.230000    2.230000
        zeta-weighting                 0.500000
      * Dispersion:
        s8                             2.700000
        a1                             0.520000
        a2                             5.000000
        s9                             5.000000
      * Repulsion:
        kExp                           1.500000    1.000000
        rExp                           1.000000
      * Coulomb:
        alpha                          2.000000
        third order                    shell-resolved
        anisotropic                    true
        a3                             3.000000
        a5                             4.000000
        cn-shift                       1.200000
        cn-exp                         4.000000
        max-rad                        5.000000

q/qsh data taken from xtbrestart
CAMM data taken from xtbrestart

          ...................................................
          :                      SETUP                      :
          :.................................................:
          :  # basis functions                  70          :
          :  # atomic orbitals                  70          :
          :  # shells                           42          :
          :  # electrons                        78          :
          :  max. iterations                   250          :
          :  Hamiltonian                  GFN2-xTB          :
          :  restarted?                       true          :
          :  GBSA solvation                  false          :
          :  PC potential                    false          :
          :  electronic temp.          300.0000000     K    :
          :  accuracy                    1.0000000          :
          :  -> integral cutoff          0.2500000E+02      :
          :  -> integral neglect         0.1000000E-07      :
          :  -> SCF convergence          0.1000000E-05 Eh   :
          :  -> wf. convergence          0.1000000E-03 e    :
          :  Broyden damping             0.4000000          :
          :  net charge                          0          :
          :  unpaired electrons                  0          :
          ...................................................

 iter      E             dE          RMSdq      gap      omega  full diag
   1    -44.8967726 -0.448968E+02  0.325E+00    2.67       0.0  T
   2    -44.9007855 -0.401282E-02  0.190E+00    2.67       1.0  T
   3    -44.8964354  0.435005E-02  0.504E-01    2.78       1.0  T
   4    -44.9017431 -0.530765E-02  0.151E-01    2.77       1.0  T
   5    -44.9020913 -0.348220E-03  0.715E-02    2.78       1.0  T
   6    -44.9021104 -0.190669E-04  0.285E-02    2.77       1.0  T
   7    -44.9021155 -0.510578E-05  0.501E-03    2.77       3.8  T
   8    -44.9021155 -0.639502E-07  0.236E-03    2.77       8.0  T
   9    -44.9021155 -0.160978E-07  0.794E-04    2.77      23.8  T
  10    -44.9021155 -0.526021E-08  0.387E-04    2.77      48.8  T

   *** convergence criteria satisfied after 10 iterations ***

         #    Occupation            Energy/Eh            Energy/eV
      -------------------------------------------------------------
         1        2.0000           -0.7221458             -19.6506
       ...           ...                  ...                  ...
        33        2.0000           -0.4416881             -12.0189
        34        2.0000           -0.4333123             -11.7910
        35        2.0000           -0.4110846             -11.1862
        36        2.0000           -0.4065802             -11.0636
        37        2.0000           -0.3962119             -10.7815
        38        2.0000           -0.3930928             -10.6966
        39        2.0000           -0.3793531             -10.3227 (HOMO)
        40                         -0.2775094              -7.5514 (LUMO)
        41                         -0.1992514              -5.4219
        42                         -0.1639539              -4.4614
        43                         -0.0727342              -1.9792
        44                         -0.0318622              -0.8670
       ...                                ...                  ...
        70                          0.6364369              17.3183
      -------------------------------------------------------------
                  HL-Gap            0.1018437 Eh            2.7713 eV
             Fermi-level           -0.3284313 Eh           -8.9371 eV

 SCC (total)                   0 d,  0 h,  0 min,  0.029 sec
 SCC setup                      ...        0 min,  0.000 sec (  1.395%)
 Dispersion                     ...        0 min,  0.000 sec (  1.651%)
 classical contributions        ...        0 min,  0.000 sec (  1.434%)
 integral evaluation            ...        0 min,  0.002 sec (  7.174%)
 iterations                     ...        0 min,  0.022 sec ( 77.428%)
 molecular gradient             ...        0 min,  0.003 sec ( 10.126%)
 printout                       ...        0 min,  0.000 sec (  0.655%)

         :::::::::::::::::::::::::::::::::::::::::::::::::::::
         ::                     SUMMARY                     ::
         :::::::::::::::::::::::::::::::::::::::::::::::::::::
         :: total energy             -44.443617115370 Eh    ::
         :: gradient norm              0.184055612352 Eh/a0 ::
         :: HOMO-LUMO gap              2.771307532998 eV    ::
         ::.................................................::
         :: SCC energy               -44.901900625091 Eh    ::
         :: -> isotropic ES            0.098491224371 Eh    ::
         :: -> anisotropic ES          0.003545037894 Eh    ::
         :: -> anisotropic XC          0.014779916146 Eh    ::
         :: -> dispersion             -0.022161051716 Eh    ::
         :: repulsion energy           0.458283509721 Eh    ::
         :: add. restraining           0.000000000000 Eh    ::
         :: total charge              -0.000000000000 e     ::
         :::::::::::::::::::::::::::::::::::::::::::::::::::::

      ----------------------------------------------------------- 
     |                   =====================                   |
     |                        A N C O P T                        |
     |                   =====================                   |
     |               Approximate Normal Coordinate               |
     |                Rational Function Optimizer                |
      ----------------------------------------------------------- 
      ----------------------------------------------------------- 
     |                   =====================                   |
     |                        A N C O P T                        |
     |                   =====================                   |
     |               Approximate Normal Coordinate               |
     |                Rational Function Optimizer                |
      ----------------------------------------------------------- 

          ...................................................
          :                      SETUP                      :
          :.................................................:
          :   optimization level            normal          :
          :   max. optcycles                   200          :
          :   ANC micro-cycles                  20          :
          :   degrees of freedom                78          :
          :.................................................:
          :   RF solver                   davidson          :
          :   write xtbopt.log                true          :
          :   linear?                        false          :
          :   energy convergence         0.5000000E-05 Eh   :
          :   grad. convergence          0.1000000E-02 Eh/α :
          :   maxmium RF displ.          1.0000000          :
          :   Hlow (freq-cutoff)         0.1000000E-01      :
          :   Hmax (freq-cutoff)         5.0000000          :
          :   S6 in model hess.         20.0000000          :
          ...................................................

generating ANC from exact Hessian ...
Using Lindh-Hessian (1995)
 Shifting diagonal of input Hessian by   9.496469006908200E-003
 Lowest  eigenvalues of input Hessian
    0.000000    0.000000    0.000000    0.000000    0.000000    0.000000
    0.010000    0.010086    0.010840    0.012496    0.013585    0.015884
    0.018363    0.019108    0.022318    0.024109    0.025603    0.026285
 Highest eigenvalues
    1.626854    1.713272    1.864898    1.956551    2.088671    2.182455
 

........................................................................
.............................. CYCLE    1 ..............................
........................................................................

 iter      E             dE          RMSdq      gap      omega  full diag
   1    -44.9021155 -0.449021E+02  0.104E-04    2.77       0.0  T
   2    -44.9021155 -0.489422E-10  0.662E-05    2.77     285.3  T
   3    -44.9021155 -0.526512E-11  0.401E-05    2.77     471.8  T
     SCC iter.                  ...        0 min,  0.004 sec
     gradient                   ...        0 min,  0.003 sec
 * total energy  :   -44.4436171 Eh     change       -0.5068230E-09 Eh
   gradient norm :     0.1840580 Eh/α   predicted     0.0000000E+00 (-100.00%)
   displ. norm   :     0.3684541 α      lambda       -0.4091255E-01
   maximum displ.:     0.1139653 α      in ANC's #27, #16, #22, ...

........................................................................
.............................. CYCLE    2 ..............................
........................................................................

 iter      E             dE          RMSdq      gap      omega  full diag
   1    -44.9657895 -0.449658E+02  0.324E-01    3.00       0.0  T
   2    -44.9664573 -0.667863E-03  0.209E-01    2.98       1.0  T
   3    -44.9664934 -0.360466E-04  0.122E-01    2.99       1.0  T
   4    -44.9665414 -0.479984E-04  0.558E-02    3.00       1.0  T
   5    -44.9666095 -0.681484E-04  0.100E-02    2.99       1.9  T
   6    -44.9666103 -0.745251E-06  0.532E-03    2.99       3.6  T
   7    -44.9666104 -0.689517E-07  0.189E-03    2.99      10.0  T
   8    -44.9666104 -0.976650E-08  0.780E-04    2.99      24.2  T
   9    -44.9666104 -0.312961E-08  0.268E-04    2.99      70.4  T
     SCC iter.                  ...        0 min,  0.011 sec
     gradient                   ...        0 min,  0.003 sec
 * total energy  :   -44.4718073 Eh     change       -0.2819021E-01 Eh
   gradient norm :     0.0638604 Eh/α   predicted    -0.2324553E-01 ( -17.54%)
   displ. norm   :     0.3443490 α      lambda       -0.1069587E-01
   maximum displ.:     0.1204382 α      in ANC's #12, #16, #22, ...

........................................................................
.............................. CYCLE    3 ..............................
........................................................................

 iter      E             dE          RMSdq      gap      omega  full diag
   1    -44.9967097 -0.449967E+02  0.210E-01    3.12       0.0  T
   2    -44.9968890 -0.179324E-03  0.132E-01    3.14       1.0  T
   3    -44.9968647  0.243663E-04  0.805E-02    3.14       1.0  T
   4    -44.9969244 -0.597165E-04  0.306E-02    3.15       1.0  T
   5    -44.9969434 -0.189770E-04  0.556E-03    3.14       3.4  T
   6    -44.9969436 -0.203284E-06  0.272E-03    3.14       7.0  T
   7    -44.9969436 -0.126727E-07  0.839E-04    3.14      22.5  T
   8    -44.9969436 -0.293826E-08  0.389E-04    3.14      48.5  T
     SCC iter.                  ...        0 min,  0.010 sec
     gradient                   ...        0 min,  0.003 sec
 * total energy  :   -44.4780245 Eh     change       -0.6217153E-02 Eh
   gradient norm :     0.0211859 Eh/α   predicted    -0.5984007E-02 (  -3.75%)
   displ. norm   :     0.2611048 α      lambda       -0.1968638E-02
   maximum displ.:     0.0927496 α      in ANC's #12, #14, #16, ...

........................................................................
.............................. CYCLE    4 ..............................
........................................................................

 iter      E             dE          RMSdq      gap      omega  full diag
   1    -44.9978944 -0.449979E+02  0.900E-02    3.15       0.0  T
   2    -44.9979305 -0.360855E-04  0.536E-02    3.18       1.0  T
   3    -44.9979276  0.288507E-05  0.269E-02    3.17       1.0  T
   4    -44.9979287 -0.105545E-05  0.146E-02    3.17       1.3  T
   5    -44.9979335 -0.481987E-05  0.184E-03    3.17      10.3  T
   6    -44.9979335 -0.220632E-07  0.873E-04    3.17      21.6  T
   7    -44.9979335 -0.260297E-08  0.284E-04    3.17      66.6  T
     SCC iter.                  ...        0 min,  0.009 sec
     gradient                   ...        0 min,  0.003 sec
 * total energy  :   -44.4794079 Eh     change       -0.1383451E-02 Eh
   gradient norm :     0.0101385 Eh/α   predicted    -0.1051451E-02 ( -24.00%)
   displ. norm   :     0.3138348 α      lambda       -0.1203263E-02
   maximum displ.:     0.1233346 α      in ANC's #6, #4, #5, ...

........................................................................
.............................. CYCLE    5 ..............................
........................................................................

 iter      E             dE          RMSdq      gap      omega  full diag
   1    -44.9979967 -0.449980E+02  0.795E-02    3.19       0.0  T
   2    -44.9980104 -0.137127E-04  0.476E-02    3.20       1.0  T
   3    -44.9980074  0.305451E-05  0.184E-02    3.20       1.0  T
   4    -44.9980103 -0.296735E-05  0.915E-03    3.20       2.1  T
   5    -44.9980121 -0.174005E-05  0.184E-03    3.20      10.3  T
   6    -44.9980121 -0.187196E-07  0.831E-04    3.20      22.7  T
   7    -44.9980121 -0.249252E-08  0.204E-04    3.20      92.7  T
     SCC iter.                  ...        0 min,  0.009 sec
     gradient                   ...        0 min,  0.002 sec
 * total energy  :   -44.4801911 Eh     change       -0.7832027E-03 Eh
   gradient norm :     0.0089306 Eh/α   predicted    -0.6609009E-03 ( -15.62%)
   displ. norm   :     0.2979461 α      lambda       -0.7128842E-03
   maximum displ.:     0.1239904 α      in ANC's #6, #4, #5, ...

........................................................................
.............................. CYCLE    6 ..............................
........................................................................

 iter      E             dE          RMSdq      gap      omega  full diag
   1    -44.9978782 -0.449979E+02  0.765E-02    3.21       0.0  T
   2    -44.9978807 -0.241971E-05  0.453E-02    3.22       1.0  T
   3    -44.9978808 -0.156703E-06  0.575E-03    3.22       3.3  T
   4    -44.9978812 -0.422470E-06  0.231E-03    3.22       8.2  T
   5    -44.9978812 -0.740790E-08  0.840E-04    3.22      22.5  T
   6    -44.9978812 -0.255624E-08  0.432E-04    3.22      43.8  T
     SCC iter.                  ...        0 min,  0.008 sec
     gradient                   ...        0 min,  0.002 sec
 * total energy  :   -44.4806559 Eh     change       -0.4647629E-03 Eh
   gradient norm :     0.0098891 Eh/α   predicted    -0.3880862E-03 ( -16.50%)
   displ. norm   :     0.2920830 α      lambda       -0.5846972E-03
   maximum displ.:     0.1297494 α      in ANC's #6, #4, #2, ...

........................................................................
.............................. CYCLE    7 ..............................
........................................................................

 iter      E             dE          RMSdq      gap      omega  full diag
   1    -44.9979943 -0.449980E+02  0.786E-02    3.23       0.0  T
   2    -44.9979976 -0.325112E-05  0.464E-02    3.23       1.0  T
   3    -44.9979958  0.173611E-05  0.114E-02    3.23       1.7  T
   4    -44.9979980 -0.220139E-05  0.478E-03    3.23       4.0  T
   5    -44.9979984 -0.368591E-06  0.173E-03    3.23      10.9  T
   6    -44.9979984 -0.112891E-07  0.498E-04    3.23      38.0  T
   7    -44.9979984 -0.169935E-08  0.150E-04    3.23     126.0  T
     SCC iter.                  ...        0 min,  0.009 sec
     gradient                   ...        0 min,  0.002 sec
 * total energy  :   -44.4810793 Eh     change       -0.4233657E-03 Eh
   gradient norm :     0.0088054 Eh/α   predicted    -0.3172916E-03 ( -25.05%)
   displ. norm   :     0.2802150 α      lambda       -0.5103506E-03
   maximum displ.:     0.1274103 α      in ANC's #4, #6, #2, ...

........................................................................
.............................. CYCLE    8 ..............................
........................................................................

 iter      E             dE          RMSdq      gap      omega  full diag
   1    -44.9991345 -0.449991E+02  0.889E-02    3.24       0.0  T
   2    -44.9991429 -0.846392E-05  0.524E-02    3.24       1.0  T
   3    -44.9991412  0.172374E-05  0.136E-02    3.24       1.4  T
   4    -44.9991432 -0.196855E-05  0.716E-03    3.24       2.6  T
   5    -44.9991442 -0.995400E-06  0.224E-03    3.24       8.4  T
   6    -44.9991442 -0.222473E-07  0.792E-04    3.24      23.9  T
   7    -44.9991442 -0.354019E-08  0.188E-04    3.24     100.5  T
     SCC iter.                  ...        0 min,  0.009 sec
     gradient                   ...        0 min,  0.002 sec
 * total energy  :   -44.4814376 Eh     change       -0.3582840E-03 Eh
   gradient norm :     0.0066513 Eh/α   predicted    -0.2752146E-03 ( -23.19%)
   displ. norm   :     0.2330617 α      lambda       -0.3078856E-03
   maximum displ.:     0.1170158 α      in ANC's #4, #2, #6, ...

........................................................................
.............................. CYCLE    9 ..............................
........................................................................

 iter      E             dE          RMSdq      gap      omega  full diag
   1    -44.9993304 -0.449993E+02  0.860E-02    3.26       0.0  T
   2    -44.9993360 -0.556876E-05  0.502E-02    3.25       1.0  T
   3    -44.9993360 -0.425665E-08  0.881E-03    3.25       2.1  T
   4    -44.9993364 -0.465394E-06  0.513E-03    3.25       3.7  T
   5    -44.9993369 -0.430029E-06  0.214E-03    3.25       8.8  T
   6    -44.9993369 -0.273936E-07  0.580E-04    3.25      32.6  T
   7    -44.9993369 -0.282532E-08  0.139E-04    3.25     135.8  T
     SCC iter.                  ...        0 min,  0.010 sec
     gradient                   ...        0 min,  0.002 sec
 * total energy  :   -44.4816562 Eh     change       -0.2186226E-03 Eh
   gradient norm :     0.0047721 Eh/α   predicted    -0.1623090E-03 ( -25.76%)
   displ. norm   :     0.1806322 α      lambda       -0.2198561E-03
   maximum displ.:     0.0949927 α      in ANC's #4, #2, #6, ...

........................................................................
.............................. CYCLE   10 ..............................
........................................................................

 iter      E             dE          RMSdq      gap      omega  full diag
   1    -45.0003552 -0.450004E+02  0.751E-02    3.28       0.0  T
   2    -45.0003595 -0.428375E-05  0.437E-02    3.27       1.0  T
   3    -45.0003600 -0.550897E-06  0.588E-03    3.27       3.2  T
   4    -45.0003601 -0.110027E-06  0.246E-03    3.27       7.7  T
   5    -45.0003601  0.369759E-08  0.926E-04    3.27      20.4  T
   6    -45.0003601 -0.826485E-08  0.419E-04    3.27      45.1  T
     SCC iter.                  ...        0 min,  0.008 sec
     gradient                   ...        0 min,  0.002 sec
 * total energy  :   -44.4818060 Eh     change       -0.1498596E-03 Eh
   gradient norm :     0.0050663 Eh/α   predicted    -0.1135153E-03 ( -24.25%)
   displ. norm   :     0.1485491 α      lambda       -0.1552852E-03
   maximum displ.:     0.0760085 α      in ANC's #4, #2, #8, ...

........................................................................
.............................. CYCLE   11 ..............................
........................................................................

 iter      E             dE          RMSdq      gap      omega  full diag
   1    -45.0000244 -0.450000E+02  0.622E-02    3.29       0.0  T
   2    -45.0000260 -0.167863E-05  0.361E-02    3.29       1.0  T
   3    -45.0000262 -0.203400E-06  0.491E-03    3.29       3.9  T
   4    -45.0000264 -0.164949E-06  0.287E-03    3.29       6.6  T
   5    -45.0000265 -0.674967E-07  0.154E-03    3.29      12.3  T
   6    -45.0000265 -0.268010E-07  0.248E-04    3.29      76.4  T
   7    -45.0000265 -0.619522E-09  0.841E-05    3.29     224.8  T
     SCC iter.                  ...        0 min,  0.010 sec
     gradient                   ...        0 min,  0.003 sec
 * total energy  :   -44.4819182 Eh     change       -0.1121630E-03 Eh
   gradient norm :     0.0044275 Eh/α   predicted    -0.7937213E-04 ( -29.23%)
   displ. norm   :     0.1725343 α      lambda       -0.1839019E-03
   maximum displ.:     0.0712353 α      in ANC's #5, #2, #13, ...

........................................................................
.............................. CYCLE   12 ..............................
........................................................................

 iter      E             dE          RMSdq      gap      omega  full diag
   1    -45.0011418 -0.450011E+02  0.641E-02    3.31       0.0  T
   2    -45.0011445 -0.272448E-05  0.368E-02    3.30       1.0  T
   3    -45.0011441  0.401121E-06  0.747E-03    3.30       2.5  T
   4    -45.0011448 -0.658448E-06  0.386E-03    3.30       4.9  T
   5    -45.0011451 -0.250581E-06  0.150E-03    3.30      12.6  T
   6    -45.0011451 -0.872434E-08  0.396E-04    3.30      47.7  T
   7    -45.0011451 -0.119522E-08  0.109E-04    3.30     173.9  T
     SCC iter.                  ...        0 min,  0.010 sec
     gradient                   ...        0 min,  0.003 sec
 * total energy  :   -44.4820381 Eh     change       -0.1199118E-03 Eh
   gradient norm :     0.0058472 Eh/α   predicted    -0.9469380E-04 ( -21.03%)
   displ. norm   :     0.1533265 α      lambda       -0.1351876E-03
   maximum displ.:     0.0752380 α      in ANC's #2, #5, #14, ...

........................................................................
.............................. CYCLE   13 ..............................
........................................................................

 iter      E             dE          RMSdq      gap      omega  full diag
   1    -44.9994047 -0.449994E+02  0.573E-02    3.32       0.0  T
   2    -44.9994069 -0.223916E-05  0.327E-02    3.32       1.0  T
   3    -44.9994068  0.150313E-06  0.631E-03    3.32       3.0  T
   4    -44.9994071 -0.337855E-06  0.309E-03    3.31       6.1  T
   5    -44.9994072 -0.156332E-06  0.131E-03    3.31      14.4  T
   6    -44.9994073 -0.108875E-07  0.382E-04    3.31      49.5  T
   7    -44.9994073 -0.105545E-08  0.916E-05    3.31     206.3  T
     SCC iter.                  ...        0 min,  0.010 sec
     gradient                   ...        0 min,  0.003 sec
 * total energy  :   -44.4821289 Eh     change       -0.9074522E-04 Eh
   gradient norm :     0.0040110 Eh/α   predicted    -0.6919823E-04 ( -23.74%)
   displ. norm   :     0.1503224 α      lambda       -0.1127596E-03
   maximum displ.:     0.0841058 α      in ANC's #6, #5, #2, ...

........................................................................
.............................. CYCLE   14 ..............................
........................................................................

 iter      E             dE          RMSdq      gap      omega  full diag
   1    -44.9995741 -0.449996E+02  0.449E-02    3.31       0.0  T
   2    -44.9995755 -0.139196E-05  0.257E-02    3.31       1.0  T
   3    -44.9995751  0.323888E-06  0.568E-03    3.31       3.3  T
   4    -44.9995755 -0.347692E-06  0.295E-03    3.31       6.4  T
   5    -44.9995757 -0.177911E-06  0.777E-04    3.31      24.3  T
   6    -44.9995757 -0.129909E-08  0.255E-04    3.31      74.2  T
     SCC iter.                  ...        0 min,  0.007 sec
     gradient                   ...        0 min,  0.002 sec
 * total energy  :   -44.4822058 Eh     change       -0.7695241E-04 Eh
   gradient norm :     0.0034893 Eh/α   predicted    -0.5766061E-04 ( -25.07%)
   displ. norm   :     0.1585461 α      lambda       -0.9518707E-04
   maximum displ.:     0.0941635 α      in ANC's #2, #5, #6, ...

........................................................................
.............................. CYCLE   15 ..............................
........................................................................

 iter      E             dE          RMSdq      gap      omega  full diag
   1    -44.9984754 -0.449985E+02  0.500E-02    3.32       0.0  T
   2    -44.9984778 -0.241745E-05  0.288E-02    3.32       1.0  T
   3    -44.9984775  0.314847E-06  0.676E-03    3.32       2.8  T
   4    -44.9984778 -0.291500E-06  0.329E-03    3.32       5.7  T
   5    -44.9984781 -0.236820E-06  0.812E-04    3.32      23.3  T
   6    -44.9984781 -0.216264E-08  0.248E-04    3.32      76.2  T
     SCC iter.                  ...        0 min,  0.009 sec
     gradient                   ...        0 min,  0.002 sec
 * total energy  :   -44.4822730 Eh     change       -0.6720463E-04 Eh
   gradient norm :     0.0040247 Eh/α   predicted    -0.4879033E-04 ( -27.40%)
   displ. norm   :     0.1520178 α      lambda       -0.9180929E-04
   maximum displ.:     0.0905994 α      in ANC's #2, #6, #7, ...

........................................................................
.............................. CYCLE   16 ..............................
........................................................................

 iter      E             dE          RMSdq      gap      omega  full diag
   1    -44.9989669 -0.449990E+02  0.482E-02    3.32       0.0  T
   2    -44.9989681 -0.116037E-05  0.281E-02    3.32       1.0  T
   3    -44.9989670  0.105199E-05  0.783E-03    3.32       2.4  T
   4    -44.9989682 -0.110965E-05  0.264E-03    3.32       7.2  T
   5    -44.9989683 -0.152127E-06  0.587E-04    3.32      32.2  T
   6    -44.9989683 -0.996273E-09  0.261E-04    3.32      72.4  T
     SCC iter.                  ...        0 min,  0.010 sec
     gradient                   ...        0 min,  0.005 sec
 * total energy  :   -44.4823376 Eh     change       -0.6457314E-04 Eh
   gradient norm :     0.0035506 Eh/α   predicted    -0.4696678E-04 ( -27.27%)
   displ. norm   :     0.1885609 α      lambda       -0.8470610E-04
   maximum displ.:     0.1253420 α      in ANC's #2, #7, #8, ...

........................................................................
.............................. CYCLE   17 ..............................
........................................................................

 iter      E             dE          RMSdq      gap      omega  full diag
   1    -44.9988852 -0.449989E+02  0.587E-02    3.33       0.0  T
   2    -44.9988864 -0.121803E-05  0.343E-02    3.33       1.0  T
   3    -44.9988844  0.201370E-05  0.102E-02    3.33       1.8  T
   4    -44.9988866 -0.216574E-05  0.255E-03    3.33       7.4  T
   5    -44.9988867 -0.141436E-06  0.620E-04    3.33      30.5  T
   6    -44.9988867 -0.483283E-09  0.162E-04    3.33     116.6  T
     SCC iter.                  ...        0 min,  0.014 sec
     gradient                   ...        0 min,  0.005 sec
 * total energy  :   -44.4824016 Eh     change       -0.6402340E-04 Eh
   gradient norm :     0.0038811 Eh/α   predicted    -0.4385967E-04 ( -31.49%)
   displ. norm   :     0.2004262 α      lambda       -0.9512925E-04
   maximum displ.:     0.1395527 α      in ANC's #2, #7, #8, ...

........................................................................
.............................. CYCLE   18 ..............................
........................................................................

 iter      E             dE          RMSdq      gap      omega  full diag
   1    -44.9997741 -0.449998E+02  0.660E-02    3.34       0.0  T
   2    -44.9997748 -0.708027E-06  0.386E-02    3.34       1.0  T
   3    -44.9997715  0.328075E-05  0.124E-02    3.34       1.5  T
   4    -44.9997751 -0.360794E-05  0.171E-03    3.34      11.0  T
   5    -44.9997752 -0.547541E-07  0.552E-04    3.34      34.2  T
   6    -44.9997752 -0.603862E-09  0.239E-04    3.34      79.0  T
     SCC iter.                  ...        0 min,  0.014 sec
     gradient                   ...        0 min,  0.005 sec
 * total energy  :   -44.4824746 Eh     change       -0.7300604E-04 Eh
   gradient norm :     0.0034213 Eh/α   predicted    -0.4948057E-04 ( -32.22%)
   displ. norm   :     0.2681114 α      lambda       -0.1074292E-03
   maximum displ.:     0.1884152 α      in ANC's #2, #7, #3, ...

........................................................................
.............................. CYCLE   19 ..............................
........................................................................

 iter      E             dE          RMSdq      gap      omega  full diag
   1    -44.9994644 -0.449995E+02  0.831E-02    3.35       0.0  T
   2    -44.9994653 -0.929043E-06  0.486E-02    3.35       1.0  T
   3    -44.9994612  0.416461E-05  0.138E-02    3.35       1.4  T
   4    -44.9994658 -0.461200E-05  0.192E-03    3.35       9.8  T
   5    -44.9994658 -0.515662E-07  0.765E-04    3.35      24.7  T
   6    -44.9994658 -0.610882E-09  0.244E-04    3.35      77.3  T
     SCC iter.                  ...        0 min,  0.015 sec
     gradient                   ...        0 min,  0.004 sec
 * total energy  :   -44.4825557 Eh     change       -0.8109228E-04 Eh
   gradient norm :     0.0049980 Eh/α   predicted    -0.5757802E-04 ( -29.00%)
   displ. norm   :     0.2781999 α      lambda       -0.1420712E-03
   maximum displ.:     0.2091291 α      in ANC's #2, #7, #3, ...

........................................................................
.............................. CYCLE   20 ..............................
........................................................................

 iter      E             dE          RMSdq      gap      omega  full diag
   1    -45.0006570 -0.450007E+02  0.929E-02    3.35       0.0  T
   2    -45.0006583 -0.128687E-05  0.544E-02    3.36       1.0  T
   3    -45.0006556  0.275504E-05  0.113E-02    3.36       1.7  T
   4    -45.0006586 -0.299208E-05  0.286E-03    3.36       6.6  T
   5    -45.0006587 -0.161903E-06  0.755E-04    3.36      25.0  T
   6    -45.0006587 -0.672152E-09  0.251E-04    3.36      75.2  T
     SCC iter.                  ...        0 min,  0.025 sec
     gradient                   ...        0 min,  0.002 sec
 * total energy  :   -44.4826536 Eh     change       -0.9791615E-04 Eh
   gradient norm :     0.0051374 Eh/α   predicted    -0.7653470E-04 ( -21.84%)
   displ. norm   :     0.3098225 α      lambda       -0.1328907E-03
   maximum displ.:     0.2275840 α      in ANC's #2, #7, #6, ...
 * RMSD in coord.:     0.6022688 α      energy gain  -0.3903650E-01 Eh

generating ANC from exact Hessian ...
Using Lindh-Hessian (1995)
 Shifting diagonal of input Hessian by   9.452630201185901E-003
 Lowest  eigenvalues of input Hessian
    0.000000    0.000000    0.000000    0.000000    0.000000    0.000000
    0.010000    0.010148    0.011068    0.012506    0.013479    0.016674
    0.019169    0.019428    0.021736    0.025183    0.027387    0.029233
 Highest eigenvalues
    1.678448    1.781750    1.978390    2.056998    2.375115    2.540097
 

........................................................................
.............................. CYCLE   21 ..............................
........................................................................

 iter      E             dE          RMSdq      gap      omega  full diag
   1    -44.9993117 -0.449993E+02  0.985E-02    3.37       0.0  T
   2    -44.9993125 -0.865759E-06  0.578E-02    3.37       1.0  T
   3    -44.9993091  0.339376E-05  0.124E-02    3.36       1.5  T
   4    -44.9993129 -0.380624E-05  0.191E-03    3.36       9.9  T
   5    -44.9993130 -0.397298E-07  0.804E-04    3.37      23.5  T
   6    -44.9993130 -0.645272E-09  0.195E-04    3.37      96.8  T
     SCC iter.                  ...        0 min,  0.008 sec
     gradient                   ...        0 min,  0.003 sec
 * total energy  :   -44.4827509 Eh     change       -0.9723327E-04 Eh
   gradient norm :     0.0065200 Eh/α   predicted     0.0000000E+00 (-100.00%)
   displ. norm   :     0.0547667 α      lambda       -0.9709760E-04
   maximum displ.:     0.0255629 α      in ANC's #2, #6, #4, ...

........................................................................
.............................. CYCLE   22 ..............................
........................................................................

 iter      E             dE          RMSdq      gap      omega  full diag
   1    -45.0006488 -0.450006E+02  0.221E-02    3.37       0.0  T
   2    -45.0006496 -0.779262E-06  0.127E-02    3.37       1.5  T
   3    -45.0006494  0.236452E-06  0.495E-03    3.37       3.8  T
   4    -45.0006496 -0.215286E-06  0.221E-03    3.37       8.6  T
   5    -45.0006497 -0.107904E-06  0.395E-04    3.37      47.9  T
   6    -45.0006497 -0.298506E-09  0.181E-04    3.37     104.4  T
     SCC iter.                  ...        0 min,  0.008 sec
     gradient                   ...        0 min,  0.002 sec
 * total energy  :   -44.4828324 Eh     change       -0.8154608E-04 Eh
   gradient norm :     0.0025318 Eh/α   predicted    -0.5285786E-04 ( -35.18%)
   displ. norm   :     0.1305517 α      lambda       -0.1234343E-03
   maximum displ.:     0.0653811 α      in ANC's #2, #6, #4, ...

........................................................................
.............................. CYCLE   23 ..............................
........................................................................

 iter      E             dE          RMSdq      gap      omega  full diag
   1    -45.0015020 -0.450015E+02  0.413E-02    3.37       0.0  T
   2    -45.0015030 -0.100159E-05  0.242E-02    3.37       1.0  T
   3    -45.0015025  0.525270E-06  0.595E-03    3.37       3.2  T
   4    -45.0015030 -0.520255E-06  0.250E-03    3.37       7.6  T
   5    -45.0015031 -0.139751E-06  0.547E-04    3.37      34.6  T
   6    -45.0015031 -0.961748E-09  0.260E-04    3.37      72.6  T
     SCC iter.                  ...        0 min,  0.008 sec
     gradient                   ...        0 min,  0.002 sec
 * total energy  :   -44.4829201 Eh     change       -0.8773243E-04 Eh
   gradient norm :     0.0029595 Eh/α   predicted    -0.6277011E-04 ( -28.45%)
   displ. norm   :     0.1731883 α      lambda       -0.9910918E-04
   maximum displ.:     0.0902407 α      in ANC's #2, #4, #7, ...

........................................................................
.............................. CYCLE   24 ..............................
........................................................................

 iter      E             dE          RMSdq      gap      omega  full diag
   1    -45.0012375 -0.450012E+02  0.497E-02    3.36       0.0  T
   2    -45.0012380 -0.542688E-06  0.293E-02    3.37       1.0  T
   3    -45.0012379  0.129583E-06  0.339E-03    3.37       5.6  T
   4    -45.0012381 -0.177413E-06  0.165E-03    3.37      11.5  T
   5    -45.0012381 -0.509263E-07  0.597E-04    3.37      31.7  T
   6    -45.0012381 -0.130555E-08  0.245E-04    3.37      77.0  T
     SCC iter.                  ...        0 min,  0.008 sec
     gradient                   ...        0 min,  0.002 sec
 * total energy  :   -44.4830002 Eh     change       -0.8004074E-04 Eh
   gradient norm :     0.0047346 Eh/α   predicted    -0.5105415E-04 ( -36.21%)
   displ. norm   :     0.3105554 α      lambda       -0.1534011E-03
   maximum displ.:     0.1639042 α      in ANC's #2, #7, #4, ...

........................................................................
.............................. CYCLE   25 ..............................
........................................................................

 iter      E             dE          RMSdq      gap      omega  full diag
   1    -44.9995025 -0.449995E+02  0.880E-02    3.35       0.0  T
   2    -44.9995047 -0.224677E-05  0.516E-02    3.36       1.0  T
   3    -44.9995049 -0.169638E-06  0.404E-03    3.36       4.7  T
   4    -44.9995050 -0.140577E-06  0.153E-03    3.36      12.4  T
   5    -44.9995050 -0.384978E-08  0.808E-04    3.36      23.4  T
   6    -44.9995050 -0.138344E-08  0.352E-04    3.36      53.7  T
     SCC iter.                  ...        0 min,  0.008 sec
     gradient                   ...        0 min,  0.002 sec
 * total energy  :   -44.4831062 Eh     change       -0.1060463E-03 Eh
   gradient norm :     0.0054877 Eh/α   predicted    -0.8410032E-04 ( -20.69%)
   displ. norm   :     0.2007144 α      lambda       -0.9731906E-04
   maximum displ.:     0.1190378 α      in ANC's #2, #7, #4, ...

........................................................................
.............................. CYCLE   26 ..............................
........................................................................

 iter      E             dE          RMSdq      gap      omega  full diag
   1    -44.9988671 -0.449989E+02  0.632E-02    3.35       0.0  T
   2    -44.9988684 -0.132778E-05  0.370E-02    3.35       1.0  T
   3    -44.9988684  0.473246E-07  0.412E-03    3.35       4.6  T
   4    -44.9988685 -0.144608E-06  0.232E-03    3.35       8.1  T
   5    -44.9988686 -0.100582E-06  0.920E-04    3.35      20.5  T
   6    -44.9988686 -0.308374E-08  0.239E-04    3.35      79.1  T
     SCC iter.                  ...        0 min,  0.008 sec
     gradient                   ...        0 min,  0.002 sec
 * total energy  :   -44.4831801 Eh     change       -0.7383177E-04 Eh
   gradient norm :     0.0051991 Eh/α   predicted    -0.5062730E-04 ( -31.43%)
   displ. norm   :     0.2093301 α      lambda       -0.1628637E-03
   maximum displ.:     0.1406205 α      in ANC's #2, #7, #4, ...

........................................................................
.............................. CYCLE   27 ..............................
........................................................................

 iter      E             dE          RMSdq      gap      omega  full diag
   1    -44.9999848 -0.450000E+02  0.839E-02    3.34       0.0  T
   2    -44.9999875 -0.267054E-05  0.490E-02    3.34       1.0  T
   3    -44.9999874  0.101971E-06  0.594E-03    3.34       3.2  T
   4    -44.9999877 -0.296809E-06  0.321E-03    3.34       5.9  T
   5    -44.9999879 -0.191304E-06  0.132E-03    3.34      14.3  T
   6    -44.9999879 -0.847154E-08  0.415E-04    3.34      45.6  T
   7    -44.9999879 -0.858890E-09  0.162E-04    3.34     116.7  T
     SCC iter.                  ...        0 min,  0.009 sec
     gradient                   ...        0 min,  0.003 sec
 * total energy  :   -44.4832972 Eh     change       -0.1171926E-03 Eh
   gradient norm :     0.0047226 Eh/α   predicted    -0.8500238E-04 ( -27.47%)
   displ. norm   :     0.2314178 α      lambda       -0.1254713E-03
   maximum displ.:     0.1622114 α      in ANC's #2, #7, #4, ...

........................................................................
.............................. CYCLE   28 ..............................
........................................................................

 iter      E             dE          RMSdq      gap      omega  full diag
   1    -45.0004752 -0.450005E+02  0.906E-02    3.32       0.0  T
   2    -45.0004768 -0.162712E-05  0.531E-02    3.32       1.0  T
   3    -45.0004761  0.694985E-06  0.736E-03    3.32       2.6  T
   4    -45.0004771 -0.100556E-05  0.342E-03    3.32       5.5  T
   5    -45.0004773 -0.195362E-06  0.142E-03    3.32      13.3  T
   6    -45.0004773 -0.501232E-08  0.427E-04    3.32      44.2  T
   7    -45.0004773 -0.103539E-08  0.160E-04    3.32     118.3  T
     SCC iter.                  ...        0 min,  0.009 sec
     gradient                   ...        0 min,  0.003 sec
 * total energy  :   -44.4833959 Eh     change       -0.9870579E-04 Eh
   gradient norm :     0.0062829 Eh/α   predicted    -0.6611620E-04 ( -33.02%)
   displ. norm   :     0.2643638 α      lambda       -0.1528681E-03
   maximum displ.:     0.1966047 α      in ANC's #2, #7, #4, ...

........................................................................
.............................. CYCLE   29 ..............................
........................................................................

 iter      E             dE          RMSdq      gap      omega  full diag
   1    -45.0011717 -0.450012E+02  0.110E-01    3.31       0.0  T
   2    -45.0011737 -0.199232E-05  0.649E-02    3.31       1.0  T
   3    -45.0011724  0.136697E-05  0.953E-03    3.31       2.0  T
   4    -45.0011743 -0.195194E-05  0.374E-03    3.31       5.1  T
   5    -45.0011745 -0.190137E-06  0.173E-03    3.31      10.9  T
   6    -45.0011745 -0.754884E-08  0.526E-04    3.31      35.9  T
   7    -45.0011745 -0.151547E-08  0.175E-04    3.31     108.1  T
     SCC iter.                  ...        0 min,  0.010 sec
     gradient                   ...        0 min,  0.002 sec
 * total energy  :   -44.4835130 Eh     change       -0.1170942E-03 Eh
   gradient norm :     0.0063570 Eh/α   predicted    -0.8177616E-04 ( -30.16%)
   displ. norm   :     0.3171641 α      lambda       -0.1474976E-03
   maximum displ.:     0.2374557 α      in ANC's #2, #7, #4, ...

........................................................................
.............................. CYCLE   30 ..............................
........................................................................

 iter      E             dE          RMSdq      gap      omega  full diag
   1    -45.0001894 -0.450002E+02  0.122E-01    3.29       0.0  T
   2    -45.0001924 -0.294201E-05  0.716E-02    3.29       1.0  T
   3    -45.0001897  0.265930E-05  0.121E-02    3.29       1.6  T
   4    -45.0001931 -0.341240E-05  0.458E-03    3.29       4.1  T
   5    -45.0001935 -0.310207E-06  0.199E-03    3.29       9.5  T
   6    -45.0001935 -0.104889E-07  0.791E-04    3.29      23.9  T
   7    -45.0001935 -0.252548E-08  0.185E-04    3.29     102.3  T
     SCC iter.                  ...        0 min,  0.010 sec
     gradient                   ...        0 min,  0.002 sec
 * total energy  :   -44.4836200 Eh     change       -0.1069650E-03 Eh
   gradient norm :     0.0069360 Eh/α   predicted    -0.8116788E-04 ( -24.12%)
   displ. norm   :     0.2854724 α      lambda       -0.2162066E-03
   maximum displ.:     0.2353640 α      in ANC's #2, #11, #15, ...

........................................................................
.............................. CYCLE   31 ..............................
........................................................................

 iter      E             dE          RMSdq      gap      omega  full diag
   1    -45.0038255 -0.450038E+02  0.122E-01    3.29       0.0  T
   2    -45.0038301 -0.465018E-05  0.716E-02    3.29       1.0  T
   3    -45.0038307 -0.519032E-06  0.625E-03    3.29       3.0  T
   4    -45.0038309 -0.249988E-06  0.330E-03    3.29       5.7  T
   5    -45.0038310 -0.578405E-07  0.213E-03    3.29       8.9  T
   6    -45.0038310 -0.443743E-07  0.677E-04    3.29      27.9  T
   7    -45.0038310 -0.423543E-08  0.209E-04    3.29      90.3  T
     SCC iter.                  ...        0 min,  0.009 sec
     gradient                   ...        0 min,  0.003 sec
 * total energy  :   -44.4836957 Eh     change       -0.7569462E-04 Eh
   gradient norm :     0.0070795 Eh/α   predicted    -0.1169155E-03 (  54.46%)
   displ. norm   :     0.3493036 α      lambda       -0.2166297E-03
   maximum displ.:     0.2618509 α      in ANC's #2, #4, #7, ...

........................................................................
.............................. CYCLE   32 ..............................
........................................................................

 iter      E             dE          RMSdq      gap      omega  full diag
   1    -44.9998849 -0.449999E+02  0.128E-01    3.27       0.0  T
   2    -44.9998898 -0.485579E-05  0.750E-02    3.27       1.0  T
   3    -44.9998874  0.234789E-05  0.122E-02    3.27       1.6  T
   4    -44.9998903 -0.287697E-05  0.558E-03    3.27       3.4  T
   5    -44.9998909 -0.592268E-06  0.208E-03    3.27       9.1  T
   6    -44.9998909 -0.790729E-08  0.881E-04    3.27      21.4  T
   7    -44.9998909 -0.417791E-08  0.218E-04    3.27      86.9  T
     SCC iter.                  ...        0 min,  0.009 sec
     gradient                   ...        0 min,  0.003 sec
 * total energy  :   -44.4838128 Eh     change       -0.1170559E-03 Eh
   gradient norm :     0.0082137 Eh/α   predicted    -0.1215316E-03 (   3.82%)
   displ. norm   :     0.0800522 α      lambda       -0.1407336E-03
   maximum displ.:     0.0494887 α      in ANC's #6, #2, #4, ...

........................................................................
.............................. CYCLE   33 ..............................
........................................................................

 iter      E             dE          RMSdq      gap      omega  full diag
   1    -45.0019057 -0.450019E+02  0.328E-02    3.30       0.0  T
   2    -45.0019086 -0.290346E-05  0.201E-02    3.30       1.0  T
   3    -45.0019076  0.103849E-05  0.128E-02    3.30       1.5  T
   4    -45.0019097 -0.213181E-05  0.384E-03    3.30       4.9  T
   5    -45.0019100 -0.295128E-06  0.653E-04    3.30      29.0  T
   6    -45.0019100 -0.227712E-08  0.345E-04    3.30      54.8  T
     SCC iter.                  ...        0 min,  0.008 sec
     gradient                   ...        0 min,  0.002 sec
 * total energy  :   -44.4839045 Eh     change       -0.9177274E-04 Eh
   gradient norm :     0.0056404 Eh/α   predicted    -0.7081820E-04 ( -22.83%)
   displ. norm   :     0.3726382 α      lambda       -0.2857464E-03
   maximum displ.:     0.2976778 α      in ANC's #2, #6, #4, ...

........................................................................
.............................. CYCLE   34 ..............................
........................................................................

 iter      E             dE          RMSdq      gap      omega  full diag
   1    -45.0011761 -0.450012E+02  0.134E-01    3.26       0.0  T
   2    -45.0011924 -0.163424E-04  0.778E-02    3.28       1.0  T
   3    -45.0011933 -0.838605E-06  0.113E-02    3.28       1.7  T
   4    -45.0011935 -0.238577E-06  0.288E-03    3.28       6.6  T
   5    -45.0011935  0.170542E-08  0.182E-03    3.28      10.4  T
   6    -45.0011935 -0.231213E-07  0.905E-04    3.28      20.9  T
   7    -45.0011935 -0.111264E-07  0.248E-04    3.28      76.2  T
     SCC iter.                  ...        0 min,  0.009 sec
     gradient                   ...        0 min,  0.003 sec
 * total energy  :   -44.4840596 Eh     change       -0.1551130E-03 Eh
   gradient norm :     0.0108798 Eh/α   predicted    -0.1627151E-03 (   4.90%)
   displ. norm   :     0.3246482 α      lambda       -0.2296281E-03
   maximum displ.:     0.2652303 α      in ANC's #2, #6, #4, ...

........................................................................
.............................. CYCLE   35 ..............................
........................................................................

 iter      E             dE          RMSdq      gap      omega  full diag
   1    -45.0018551 -0.450019E+02  0.107E-01    3.29       0.0  T
   2    -45.0018594 -0.431351E-05  0.630E-02    3.29       1.0  T
   3    -45.0018588  0.516340E-06  0.800E-03    3.28       2.4  T
   4    -45.0018596 -0.786523E-06  0.462E-03    3.28       4.1  T
   5    -45.0018601 -0.448038E-06  0.179E-03    3.28      10.6  T
   6    -45.0018601 -0.100806E-07  0.494E-04    3.28      38.3  T
   7    -45.0018601 -0.117667E-08  0.200E-04    3.28      94.5  T
     SCC iter.                  ...        0 min,  0.009 sec
     gradient                   ...        0 min,  0.002 sec
 * total energy  :   -44.4842311 Eh     change       -0.1714161E-03 Eh
   gradient norm :     0.0083525 Eh/α   predicted    -0.1269158E-03 ( -25.96%)
   displ. norm   :     0.4536140 α      lambda       -0.2939807E-03
   maximum displ.:     0.3671944 α      in ANC's #2, #6, #4, ...

........................................................................
.............................. CYCLE   36 ..............................
........................................................................

 iter      E             dE          RMSdq      gap      omega  full diag
   1    -45.0022164 -0.450022E+02  0.137E-01    3.29       0.0  T
   2    -45.0022247 -0.829779E-05  0.805E-02    3.28       1.0  T
   3    -45.0022248 -0.103720E-06  0.846E-03    3.28       2.2  T
   4    -45.0022253 -0.563943E-06  0.529E-03    3.28       3.6  T
   5    -45.0022258 -0.498336E-06  0.240E-03    3.28       7.9  T
   6    -45.0022258 -0.218358E-07  0.760E-04    3.28      24.9  T
   7    -45.0022258 -0.285042E-08  0.255E-04    3.28      74.0  T
     SCC iter.                  ...        0 min,  0.009 sec
     gradient                   ...        0 min,  0.003 sec
 * total energy  :   -44.4844505 Eh     change       -0.2193985E-03 Eh
   gradient norm :     0.0079084 Eh/α   predicted    -0.1772379E-03 ( -19.22%)
   displ. norm   :     0.4141441 α      lambda       -0.3684868E-03
   maximum displ.:     0.2886530 α      in ANC's #2, #6, #8, ...

........................................................................
.............................. CYCLE   37 ..............................
........................................................................

 iter      E             dE          RMSdq      gap      omega  full diag
   1    -45.0073876 -0.450074E+02  0.129E-01    3.33       0.0  T
   2    -45.0074018 -0.141613E-04  0.764E-02    3.33       1.0  T
   3    -45.0073702  0.315978E-04  0.415E-02    3.33       1.0  T
   4    -45.0074086 -0.384612E-04  0.926E-03    3.33       2.0  T
   5    -45.0074102 -0.158947E-05  0.246E-03    3.33       7.7  T
   6    -45.0074102 -0.141873E-07  0.123E-03    3.33      15.4  T
   7    -45.0074102 -0.266794E-08  0.269E-04    3.33      70.1  T
   8    -45.0074102 -0.159403E-09  0.118E-04    3.33     160.3  T
     SCC iter.                  ...        0 min,  0.011 sec
     gradient                   ...        0 min,  0.002 sec
 * total energy  :   -44.4845353 Eh     change       -0.8479997E-04 Eh
   gradient norm :     0.0123629 Eh/α   predicted    -0.2158466E-03 ( 154.54%)
   displ. norm   :     0.6052252 α      lambda       -0.5646345E-03
   maximum displ.:     0.5023169 α      in ANC's #2, #6, #4, ...

........................................................................
.............................. CYCLE   38 ..............................
........................................................................

 iter      E             dE          RMSdq      gap      omega  full diag
   1    -44.9975718 -0.449976E+02  0.212E-01    3.23       0.0  T
   2    -44.9975968 -0.250607E-04  0.126E-01    3.23       1.0  T
   3    -44.9975401  0.567199E-04  0.505E-02    3.24       1.0  T
   4    -44.9976048 -0.647018E-04  0.120E-02    3.24       1.6  T
   5    -44.9976075 -0.265222E-05  0.415E-03    3.24       4.5  T
   6    -44.9976075 -0.389335E-07  0.209E-03    3.24       9.0  T
   7    -44.9976075 -0.107851E-07  0.486E-04    3.24      38.9  T
   8    -44.9976075 -0.629896E-09  0.165E-04    3.24     114.8  T
     SCC iter.                  ...        0 min,  0.010 sec
     gradient                   ...        0 min,  0.003 sec
 * total energy  :   -44.4847261 Eh     change       -0.1908303E-03 Eh
   gradient norm :     0.0192659 Eh/α   predicted    -0.3857326E-03 ( 102.13%)
   displ. norm   :     0.1734031 α      lambda       -0.5109838E-03
   maximum displ.:     0.1128283 α      in ANC's #2, #6, #5, ...

........................................................................
.............................. CYCLE   39 ..............................
........................................................................

 iter      E             dE          RMSdq      gap      omega  full diag
   1    -45.0014273 -0.450014E+02  0.910E-02    3.29       0.0  T
   2    -45.0014457 -0.184771E-04  0.528E-02    3.28       1.0  T
   3    -45.0014428  0.291675E-05  0.197E-02    3.28       1.0  T
   4    -45.0014453 -0.251606E-05  0.867E-03    3.28       2.2  T
   5    -45.0014473 -0.200602E-05  0.214E-03    3.28       8.8  T
   6    -45.0014474 -0.431516E-07  0.107E-03    3.28      17.7  T
   7    -45.0014474 -0.409437E-08  0.275E-04    3.28      68.8  T
   8    -45.0014474 -0.178105E-09  0.106E-04    3.28     177.9  T
     SCC iter.                  ...        0 min,  0.010 sec
     gradient                   ...        0 min,  0.003 sec
 * total energy  :   -44.4848317 Eh     change       -0.1056170E-03 Eh
   gradient norm :     0.0110849 Eh/α   predicted    -0.2631753E-03 ( 149.18%)
   displ. norm   :     0.2608561 α      lambda       -0.3620468E-03
   maximum displ.:     0.1794499 α      in ANC's #2, #7, #6, ...

........................................................................
.............................. CYCLE   40 ..............................
........................................................................

 iter      E             dE          RMSdq      gap      omega  full diag
   1    -45.0043532 -0.450044E+02  0.863E-02    3.30       0.0  T
   2    -45.0043612 -0.807006E-05  0.495E-02    3.30       1.0  T
   3    -45.0043566  0.462510E-05  0.173E-02    3.30       1.1  T
   4    -45.0043613 -0.470474E-05  0.753E-03    3.30       2.5  T
   5    -45.0043626 -0.125869E-05  0.159E-03    3.30      11.9  T
   6    -45.0043626 -0.818082E-08  0.858E-04    3.30      22.0  T
   7    -45.0043626 -0.213042E-08  0.204E-04    3.30      92.6  T
     SCC iter.                  ...        0 min,  0.016 sec
     gradient                   ...        0 min,  0.005 sec
 * total energy  :   -44.4850555 Eh     change       -0.2237609E-03 Eh
   gradient norm :     0.0056247 Eh/α   predicted    -0.1933427E-03 ( -13.59%)
   displ. norm   :     0.4996402 α      lambda       -0.2806887E-03
   maximum displ.:     0.4122713 α      in ANC's #2, #6, #8, ...

........................................................................
.............................. CYCLE   41 ..............................
........................................................................

 iter      E             dE          RMSdq      gap      omega  full diag
   1    -45.0007430 -0.450007E+02  0.167E-01    3.28       0.0  T
   2    -45.0007501 -0.707426E-05  0.976E-02    3.28       1.0  T
   3    -45.0007505 -0.434987E-06  0.869E-03    3.28       2.2  T
   4    -45.0007511 -0.591465E-06  0.495E-03    3.28       3.8  T
   5    -45.0007515 -0.361783E-06  0.273E-03    3.28       6.9  T
   6    -45.0007516 -0.517756E-07  0.682E-04    3.28      27.7  T
   7    -45.0007516 -0.239093E-08  0.289E-04    3.28      65.4  T
     SCC iter.                  ...        0 min,  0.015 sec
     gradient                   ...        0 min,  0.003 sec
 * total energy  :   -44.4852544 Eh     change       -0.1989350E-03 Eh
   gradient norm :     0.0111452 Eh/α   predicted    -0.1753789E-03 ( -11.84%)
   displ. norm   :     0.3768016 α      lambda       -0.2768119E-03
   maximum displ.:     0.3046222 α      in ANC's #2, #6, #1, ...

........................................................................
.............................. CYCLE   42 ..............................
........................................................................

 iter      E             dE          RMSdq      gap      omega  full diag
   1    -45.0004377 -0.450004E+02  0.125E-01    3.27       0.0  T
   2    -45.0004444 -0.669444E-05  0.727E-02    3.28       1.0  T
   3    -45.0004366  0.780034E-05  0.197E-02    3.28       1.0  T
   4    -45.0004452 -0.857430E-05  0.651E-03    3.28       2.9  T
   5    -45.0004461 -0.906347E-06  0.204E-03    3.28       9.3  T
   6    -45.0004461 -0.537299E-08  0.615E-04    3.28      30.7  T
   7    -45.0004461 -0.171996E-08  0.245E-04    3.28      77.2  T
     SCC iter.                  ...        0 min,  0.009 sec
     gradient                   ...        0 min,  0.002 sec
 * total energy  :   -44.4854706 Eh     change       -0.2162118E-03 Eh
   gradient norm :     0.0155366 Eh/α   predicted    -0.1580572E-03 ( -26.90%)
   displ. norm   :     0.4043826 α      lambda       -0.5468183E-03
   maximum displ.:     0.3149435 α      in ANC's #2, #5, #1, ...
 * RMSD in coord.:     1.0088935 α      energy gain  -0.2816994E-02 Eh

generating ANC from exact Hessian ...
Using Lindh-Hessian (1995)
 Shifting diagonal of input Hessian by   9.441158979610032E-003
 Lowest  eigenvalues of input Hessian
    0.000000    0.000000    0.000000    0.000000    0.000000    0.000000
    0.010000    0.010142    0.011089    0.012658    0.013630    0.016687
    0.018842    0.019630    0.021931    0.026793    0.027346    0.030882
 Highest eigenvalues
    1.679691    1.793598    1.985479    2.046164    2.374596    2.535385
 

........................................................................
.............................. CYCLE   43 ..............................
........................................................................

 iter      E             dE          RMSdq      gap      omega  full diag
   1    -45.0028695 -0.450029E+02  0.143E-01    3.32       0.0  T
   2    -45.0028877 -0.181533E-04  0.853E-02    3.33       1.0  T
   3    -45.0028560  0.316760E-04  0.405E-02    3.33       1.0  T
   4    -45.0028926 -0.365816E-04  0.106E-02    3.33       1.8  T
   5    -45.0028949 -0.237477E-05  0.264E-03    3.33       7.2  T
   6    -45.0028950 -0.262061E-07  0.130E-03    3.33      14.5  T
   7    -45.0028950 -0.372140E-08  0.352E-04    3.33      53.7  T
   8    -45.0028950 -0.295806E-09  0.125E-04    3.33     150.6  T
     SCC iter.                  ...        0 min,  0.011 sec
     gradient                   ...        0 min,  0.003 sec
 * total energy  :   -44.4858005 Eh     change       -0.3298921E-03 Eh
   gradient norm :     0.0108492 Eh/α   predicted     0.0000000E+00 (-100.00%)
   displ. norm   :     0.1054811 α      lambda       -0.3580730E-03
   maximum displ.:     0.0595559 α      in ANC's #2, #10, #8, ...

........................................................................
.............................. CYCLE   44 ..............................
........................................................................

 iter      E             dE          RMSdq      gap      omega  full diag
   1    -45.0038544 -0.450039E+02  0.579E-02    3.33       0.0  T
   2    -45.0038588 -0.442117E-05  0.349E-02    3.33       1.0  T
   3    -45.0038574  0.134289E-05  0.960E-03    3.33       2.0  T
   4    -45.0038585 -0.110187E-05  0.540E-03    3.33       3.5  T
   5    -45.0038592 -0.699597E-06  0.110E-03    3.33      17.2  T
   6    -45.0038592 -0.120667E-08  0.440E-04    3.33      42.9  T
   7    -45.0038592 -0.720249E-09  0.132E-04    3.33     143.1  T
     SCC iter.                  ...        0 min,  0.009 sec
     gradient                   ...        0 min,  0.003 sec
 * total energy  :   -44.4860849 Eh     change       -0.2843933E-03 Eh
   gradient norm :     0.0052290 Eh/α   predicted    -0.1810297E-03 ( -36.35%)
   displ. norm   :     0.2783277 α      lambda       -0.5987604E-03
   maximum displ.:     0.1712943 α      in ANC's #2, #10, #8, ...

........................................................................
.............................. CYCLE   45 ..............................
........................................................................

 iter      E             dE          RMSdq      gap      omega  full diag
   1    -45.0035486 -0.450035E+02  0.144E-01    3.32       0.0  T
   2    -45.0035671 -0.184962E-04  0.856E-02    3.31       1.0  T
   3    -45.0035591  0.799558E-05  0.219E-02    3.31       1.0  T
   4    -45.0035672 -0.811626E-05  0.108E-02    3.31       1.7  T
   5    -45.0035699 -0.269961E-05  0.289E-03    3.31       6.5  T
   6    -45.0035699 -0.127404E-07  0.137E-03    3.31      13.8  T
   7    -45.0035699 -0.814338E-08  0.358E-04    3.31      52.8  T
   8    -45.0035699 -0.502190E-09  0.129E-04    3.31     146.6  T
     SCC iter.                  ...        0 min,  0.010 sec
     gradient                   ...        0 min,  0.003 sec
 * total energy  :   -44.4864712 Eh     change       -0.3863063E-03 Eh
   gradient norm :     0.0082316 Eh/α   predicted    -0.3225725E-03 ( -16.50%)
   displ. norm   :     0.2552378 α      lambda       -0.3534242E-03
   maximum displ.:     0.1717622 α      in ANC's #2, #10, #8, ...

........................................................................
.............................. CYCLE   46 ..............................
........................................................................

 iter      E             dE          RMSdq      gap      omega  full diag
   1    -45.0020999 -0.450021E+02  0.113E-01    3.28       0.0  T
   2    -45.0021068 -0.687864E-05  0.666E-02    3.28       1.0  T
   3    -45.0021050  0.180747E-05  0.121E-02    3.28       1.6  T
   4    -45.0021075 -0.249962E-05  0.596E-03    3.28       3.2  T
   5    -45.0021082 -0.687871E-06  0.249E-03    3.28       7.6  T
   6    -45.0021082 -0.209523E-07  0.103E-03    3.28      18.4  T
   7    -45.0021082 -0.487640E-08  0.259E-04    3.28      73.0  T
   8    -45.0021082 -0.295834E-09  0.900E-05    3.28     210.0  T
     SCC iter.                  ...        0 min,  0.014 sec
     gradient                   ...        0 min,  0.002 sec
 * total energy  :   -44.4867289 Eh     change       -0.2576830E-03 Eh
   gradient norm :     0.0122539 Eh/α   predicted    -0.1882249E-03 ( -26.95%)
   displ. norm   :     0.2943001 α      lambda       -0.4749286E-03
   maximum displ.:     0.2082812 α      in ANC's #2, #10, #8, ...

........................................................................
.............................. CYCLE   47 ..............................
........................................................................

 iter      E             dE          RMSdq      gap      omega  full diag
   1    -45.0020963 -0.450021E+02  0.111E-01    3.26       0.0  T
   2    -45.0021036 -0.729257E-05  0.651E-02    3.27       1.0  T
   3    -45.0021039 -0.310306E-06  0.872E-03    3.26       2.2  T
   4    -45.0021045 -0.623264E-06  0.442E-03    3.27       4.3  T
   5    -45.0021048 -0.244641E-06  0.245E-03    3.27       7.7  T
   6    -45.0021048 -0.353380E-07  0.688E-04    3.27      27.4  T
   7    -45.0021048 -0.302239E-08  0.205E-04    3.27      92.1  T
     SCC iter.                  ...        0 min,  0.009 sec
     gradient                   ...        0 min,  0.002 sec
 * total energy  :   -44.4871120 Eh     change       -0.3830707E-03 Eh
   gradient norm :     0.0120838 Eh/α   predicted    -0.2580336E-03 ( -32.64%)
   displ. norm   :     0.3741903 α      lambda       -0.6980606E-03
   maximum displ.:     0.2770008 α      in ANC's #2, #8, #10, ...

........................................................................
.............................. CYCLE   48 ..............................
........................................................................

 iter      E             dE          RMSdq      gap      omega  full diag
   1    -45.0036610 -0.450037E+02  0.129E-01    3.25       0.0  T
   2    -45.0036681 -0.716875E-05  0.758E-02    3.26       1.0  T
   3    -45.0036507  0.174281E-04  0.285E-02    3.25       1.0  T
   4    -45.0036710 -0.202798E-04  0.692E-03    3.26       2.7  T
   5    -45.0036718 -0.776302E-06  0.289E-03    3.26       6.5  T
   6    -45.0036718 -0.100859E-07  0.986E-04    3.26      19.2  T
   7    -45.0036718 -0.747707E-08  0.252E-04    3.26      74.9  T
     SCC iter.                  ...        0 min,  0.009 sec
     gradient                   ...        0 min,  0.002 sec
 * total energy  :   -44.4876343 Eh     change       -0.5223750E-03 Eh
   gradient norm :     0.0099361 Eh/α   predicted    -0.3979099E-03 ( -23.83%)
   displ. norm   :     0.4262744 α      lambda       -0.5651315E-03
   maximum displ.:     0.3154144 α      in ANC's #2, #10, #8, ...

........................................................................
.............................. CYCLE   49 ..............................
........................................................................

 iter      E             dE          RMSdq      gap      omega  full diag
   1    -45.0032384 -0.450032E+02  0.151E-01    3.21       0.0  T
   2    -45.0032471 -0.871168E-05  0.883E-02    3.22       1.0  T
   3    -45.0032312  0.159078E-04  0.284E-02    3.22       1.0  T
   4    -45.0032501 -0.189233E-04  0.711E-03    3.23       2.7  T
   5    -45.0032509 -0.760902E-06  0.314E-03    3.23       6.0  T
   6    -45.0032509 -0.145267E-07  0.882E-04    3.22      21.4  T
   7    -45.0032509 -0.517004E-08  0.319E-04    3.22      59.3  T
     SCC iter.                  ...        0 min,  0.009 sec
     gradient                   ...        0 min,  0.003 sec
 * total energy  :   -44.4880497 Eh     change       -0.4153681E-03 Eh
   gradient norm :     0.0153664 Eh/α   predicted    -0.3339157E-03 ( -19.61%)
   displ. norm   :     0.4337926 α      lambda       -0.9311499E-03
   maximum displ.:     0.3160240 α      in ANC's #2, #1, #4, ...

........................................................................
.............................. CYCLE   50 ..............................
........................................................................

 iter      E             dE          RMSdq      gap      omega  full diag
   1    -45.0111836 -0.450112E+02  0.133E-01    3.28       0.0  T
   2    -45.0112195 -0.358821E-04  0.813E-02    3.29       1.0  T
   3    -45.0111951  0.244765E-04  0.506E-02    3.29       1.0  T
   4    -45.0112352 -0.401498E-04  0.147E-02    3.29       1.3  T
   5    -45.0112397 -0.446606E-05  0.320E-03    3.29       5.9  T
   6    -45.0112397 -0.146557E-07  0.169E-03    3.29      11.2  T
   7    -45.0112397 -0.536100E-08  0.332E-04    3.29      56.9  T
   8    -45.0112397 -0.317741E-09  0.142E-04    3.29     132.7  T
     SCC iter.                  ...        0 min,  0.011 sec
     gradient                   ...        0 min,  0.003 sec
 * total energy  :   -44.4883311 Eh     change       -0.2814429E-03 Eh
   gradient norm :     0.0166038 Eh/α   predicted    -0.5531905E-03 (  96.56%)
   displ. norm   :     0.4880724 α      lambda       -0.9011892E-03
   maximum displ.:     0.3702140 α      in ANC's #2, #8, #1, ...

........................................................................
.............................. CYCLE   51 ..............................
........................................................................

 iter      E             dE          RMSdq      gap      omega  full diag
   1    -45.0037652 -0.450038E+02  0.192E-01    3.18       0.0  T
   2    -45.0037962 -0.309296E-04  0.113E-01    3.20       1.0  T
   3    -45.0037893  0.689597E-05  0.265E-02    3.20       1.0  T
   4    -45.0038016 -0.123217E-04  0.731E-03    3.21       2.6  T
   5    -45.0038019 -0.322647E-06  0.508E-03    3.20       3.7  T
   6    -45.0038022 -0.310923E-06  0.238E-03    3.20       7.9  T
   7    -45.0038023 -0.284035E-07  0.534E-04    3.20      35.4  T
   8    -45.0038023 -0.845745E-09  0.145E-04    3.20     130.4  T
     SCC iter.                  ...        0 min,  0.027 sec
     gradient                   ...        0 min,  0.004 sec
 * total energy  :   -44.4887869 Eh     change       -0.4557980E-03 Eh
   gradient norm :     0.0218821 Eh/α   predicted    -0.5579558E-03 (  22.41%)
   displ. norm   :     0.0761787 α      lambda       -0.3841397E-03
   maximum displ.:     0.0392355 α      in ANC's #1, #9, #5, ...

........................................................................
.............................. CYCLE   52 ..............................
........................................................................

 iter      E             dE          RMSdq      gap      omega  full diag
   1    -45.0063126 -0.450063E+02  0.456E-02    3.24       0.0  T
   2    -45.0063173 -0.468010E-05  0.274E-02    3.24       1.0  T
   3    -45.0063160  0.132719E-05  0.122E-02    3.24       1.5  T
   4    -45.0063178 -0.178820E-05  0.452E-03    3.24       4.2  T
   5    -45.0063183 -0.483195E-06  0.105E-03    3.24      18.0  T
   6    -45.0063183 -0.123328E-07  0.503E-04    3.24      37.6  T
   7    -45.0063183 -0.532843E-09  0.150E-04    3.24     125.7  T
     SCC iter.                  ...        0 min,  0.023 sec
     gradient                   ...        0 min,  0.007 sec
 * total energy  :   -44.4890823 Eh     change       -0.2953795E-03 Eh
   gradient norm :     0.0131558 Eh/α   predicted    -0.1931863E-03 ( -34.60%)
   displ. norm   :     0.4778899 α      lambda       -0.7583094E-03
   maximum displ.:     0.3700259 α      in ANC's #2, #1, #6, ...

........................................................................
.............................. CYCLE   53 ..............................
........................................................................

 iter      E             dE          RMSdq      gap      omega  full diag
   1    -45.0072174 -0.450072E+02  0.166E-01    3.26       0.0  T
   2    -45.0072357 -0.182902E-04  0.972E-02    3.26       1.0  T
   3    -45.0072350  0.737605E-06  0.138E-02    3.25       1.4  T
   4    -45.0072367 -0.174725E-05  0.605E-03    3.26       3.1  T
   5    -45.0072375 -0.766467E-06  0.273E-03    3.26       6.9  T
   6    -45.0072375 -0.492482E-07  0.121E-03    3.26      15.6  T
   7    -45.0072375 -0.807761E-08  0.339E-04    3.26      55.7  T
   8    -45.0072375 -0.380567E-09  0.108E-04    3.26     175.5  T
     SCC iter.                  ...        0 min,  0.018 sec
     gradient                   ...        0 min,  0.003 sec
 * total energy  :   -44.4896295 Eh     change       -0.5471460E-03 Eh
   gradient norm :     0.0072685 Eh/α   predicted    -0.4657452E-03 ( -14.88%)
   displ. norm   :     0.5698536 α      lambda       -0.6770578E-03
   maximum displ.:     0.4368390 α      in ANC's #2, #1, #6, ...

........................................................................
.............................. CYCLE   54 ..............................
........................................................................

 iter      E             dE          RMSdq      gap      omega  full diag
   1    -45.0068532 -0.450069E+02  0.207E-01    3.21       0.0  T
   2    -45.0068906 -0.374334E-04  0.121E-01    3.23       1.0  T
   3    -45.0068732  0.173915E-04  0.329E-02    3.24       1.0  T
   4    -45.0068887 -0.154059E-04  0.164E-02    3.24       1.2  T
   5    -45.0068954 -0.671441E-05  0.323E-03    3.23       5.8  T
   6    -45.0068954 -0.362296E-07  0.169E-03    3.23      11.2  T
   7    -45.0068954 -0.997278E-08  0.447E-04    3.23      42.3  T
   8    -45.0068954 -0.557385E-09  0.165E-04    3.23     114.4  T
     SCC iter.                  ...        0 min,  0.018 sec
     gradient                   ...        0 min,  0.003 sec
 * total energy  :   -44.4900335 Eh     change       -0.4040026E-03 Eh
   gradient norm :     0.0183190 Eh/α   predicted    -0.4484594E-03 (  11.00%)
   displ. norm   :     0.4108952 α      lambda       -0.6429422E-03
   maximum displ.:     0.3015776 α      in ANC's #2, #1, #6, ...

........................................................................
.............................. CYCLE   55 ..............................
........................................................................

 iter      E             dE          RMSdq      gap      omega  full diag
   1    -45.0089207 -0.450089E+02  0.117E-01    3.27       0.0  T
   2    -45.0089322 -0.115710E-04  0.689E-02    3.26       1.0  T
   3    -45.0089252  0.699690E-05  0.201E-02    3.26       1.0  T
   4    -45.0089331 -0.788393E-05  0.718E-03    3.26       2.6  T
   5    -45.0089343 -0.120421E-05  0.224E-03    3.26       8.4  T
   6    -45.0089344 -0.371403E-07  0.109E-03    3.26      17.4  T
   7    -45.0089344 -0.338336E-08  0.319E-04    3.26      59.2  T
   8    -45.0089344 -0.265963E-09  0.101E-04    3.26     187.1  T
     SCC iter.                  ...        0 min,  0.011 sec
     gradient                   ...        0 min,  0.003 sec
 * total energy  :   -44.4904454 Eh     change       -0.4119071E-03 Eh
   gradient norm :     0.0111927 Eh/α   predicted    -0.3757489E-03 (  -8.78%)
   displ. norm   :     0.4098757 α      lambda       -0.4173516E-03
   maximum displ.:     0.2925159 α      in ANC's #2, #1, #4, ...

........................................................................
.............................. CYCLE   56 ..............................
........................................................................

 iter      E             dE          RMSdq      gap      omega  full diag
   1    -45.0091669 -0.450092E+02  0.117E-01    3.22       0.0  T
   2    -45.0092088 -0.419282E-04  0.671E-02    3.22       1.0  T
   3    -45.0092092 -0.331585E-06  0.271E-02    3.21       1.0  T
   4    -45.0092122 -0.297571E-05  0.511E-03    3.21       3.7  T
   5    -45.0092125 -0.339472E-06  0.266E-03    3.21       7.1  T
   6    -45.0092126 -0.723937E-07  0.159E-03    3.21      11.9  T
   7    -45.0092126 -0.198044E-07  0.434E-04    3.21      43.6  T
   8    -45.0092126 -0.920394E-09  0.159E-04    3.21     118.8  T
     SCC iter.                  ...        0 min,  0.011 sec
     gradient                   ...        0 min,  0.002 sec
 * total energy  :   -44.4905839 Eh     change       -0.1385128E-03 Eh
   gradient norm :     0.0097110 Eh/α   predicted    -0.2437336E-03 (  75.96%)
   displ. norm   :     0.1635596 α      lambda       -0.4039899E-03
   maximum displ.:     0.0995736 α      in ANC's #8, #10, #5, ...

[...]
C2-C4=1.4844         C3-C2=1.3300         C3-H18=1.0769        C3-H19=1.0764        C4-C2=1.4844         C4-O5=1.2111         
C4-O6=1.3398         O5-C4=1.2111         O6-C4=1.3398         O6-C7=1.4161         C7-O6=1.4161         C7-C8=1.5410         
C7-H20=1.0916        C7-H21=1.0954        C8-C7=1.5410         C8-N9=1.4332         C8-H22=1.0937        C8-H23=1.0935        
N9-C8=1.4332         N9-C10=1.4481        N9-C13=1.3716        C10-N9=1.4481        C10-C11=1.5361       C10-H24=1.0966       
C10-H25=1.0933       C11-C10=1.5361       C11-N12=1.4438       C11-H26=1.0922       C11-H27=1.0989       N12-C11=1.4438       
N12-C13=1.3657       N12-H28=1.0047       C13-N9=1.3716        C13-N12=1.3657       C13-O14=1.2111       O14-C13=1.2111       
H15-C1=1.0902        H16-C1=1.0883        H17-C1=1.0865        H18-C3=1.0769        H19-C3=1.0764        H20-C7=1.0916        
H21-C7=1.0954        H22-C8=1.0937        H23-C8=1.0935        H24-C10=1.0966       H25-C10=1.0933       H26-C11=1.0922       
H27-C11=1.0989       H28-N12=1.0047       
 C  H  Rav=1.0903 sigma=0.0066  Rmin=1.0764  Rmax=1.0989    13
 C  C  Rav=1.4766 sigma=0.0768  Rmin=1.3300  Rmax=1.5410     5
 N  H  Rav=1.0047 sigma=0.0000  Rmin=1.0047  Rmax=1.0047     1
 N  C  Rav=1.4125 sigma=0.0362  Rmin=1.3657  Rmax=1.4481     5
 O  C  Rav=1.2945 sigma=0.0877  Rmin=1.2111  Rmax=1.4161     4
 
 selected bond angles (degree)
 --------------------
H15-C1-C2=109.19               H16-C1-C2=110.38               H16-C1-H15=107.57              H17-C1-C2=110.64               
H17-C1-H15=109.52              H17-C1-H16=109.48              C3-C2-C1=124.78                C4-C2-C1=116.99                
C4-C2-C3=118.19                H18-C3-C2=120.65               H19-C3-C2=121.95               H19-C3-H18=117.41              
O5-C4-C2=124.65                O6-C4-C2=111.98                O6-C4-O5=123.36                C7-O6-C4=117.47                
C8-C7-O6=109.53                H20-C7-O6=106.86               H20-C7-C8=109.80               H21-C7-O6=109.54               
H21-C7-C8=110.96               H21-C7-H20=110.05              N9-C8-C7=113.36                H22-C8-C7=109.15               
H22-C8-N9=109.55               H23-C8-C7=108.49               H23-C8-N9=106.27               H23-C8-H22=109.94              
C10-N9-C8=123.17               C13-N9-C8=121.70               C13-N9-C10=111.47              C11-C10-N9=102.63              
H24-C10-N9=110.94              H24-C10-C11=110.37             H25-C10-N9=110.50              H25-C10-C11=112.83             
H25-C10-H24=109.45             
 
 selected dihedral angles (degree)
 ---------------------------------
C3-C2-C1-H15=239.66           C3-C2-C1-H16=121.61           C3-C2-C1-H17=  0.28           C4-C2-C1-H15= 57.65           
C4-C2-C1-H16=299.60           C4-C2-C1-H17=178.27           H18-C3-C2-C1=179.05           H18-C3-C2-C4=  1.08           
H19-C3-C2-C1=358.86           H19-C3-C2-C4=180.90           O5-C4-C2-C1=191.88            O5-C4-C2-C3= 10.01            
O6-C4-C2-C1= 12.57            O6-C4-C2-C3=190.70            C7-O6-C4-C2=189.80            C7-O6-C4-O5= 10.48            
C8-C7-O6-C4= 94.33            H20-C7-O6-C4=213.22           H21-C7-O6-C4=332.42           N9-C8-C7-O6=300.55            
N9-C8-C7-H20=183.50           N9-C8-C7-H21= 61.61           H22-C8-C7-O6=178.14           H22-C8-C7-H20= 61.09          
H22-C8-C7-H21=299.20          H23-C8-C7-O6= 58.34           H23-C8-C7-H20=301.29          H23-C8-C7-H21=179.41          
C10-N9-C8-C7=290.85           C10-N9-C8-H22= 53.04          C10-N9-C8-H23=171.77          C13-N9-C8-C7= 87.41           
C13-N9-C8-H22=209.60          C13-N9-C8-H23=328.33          C11-C10-N9-C8=175.77          C11-C10-N9-C13= 17.09         
H24-C10-N9-C8= 57.88          H24-C10-N9-C13=259.20         H25-C10-N9-C8=296.31          H25-C10-N9-C13=137.63         
           -------------------------------------------------
          |                Final Singlepoint                |
           -------------------------------------------------

          ...................................................
          :                      SETUP                      :
          :.................................................:
          :  # basis functions                  70          :
          :  # atomic orbitals                  70          :
          :  # shells                           42          :
          :  # electrons                        78          :
          :  max. iterations                   250          :
          :  Hamiltonian                  GFN2-xTB          :
          :  restarted?                      false          :
          :  GBSA solvation                  false          :
          :  PC potential                    false          :
          :  electronic temp.          300.0000000     K    :
          :  accuracy                    1.0000000          :
          :  -> integral cutoff          0.2500000E+02      :
          :  -> integral neglect         0.1000000E-07      :
          :  -> SCF convergence          0.1000000E-05 Eh   :
          :  -> wf. convergence          0.1000000E-03 e    :
          :  Broyden damping             0.4000000          :
          :  net charge                          0          :
          :  unpaired electrons                  0          :
          ...................................................

 iter      E             dE          RMSdq      gap      omega  full diag
   1    -45.0098451 -0.450098E+02  0.423E-05    3.16       0.0  T
   2    -45.0098451 -0.490985E-11  0.265E-05    3.16     714.3  T
   3    -45.0098451 -0.568434E-12  0.109E-05    3.16    1736.8  T

   *** convergence criteria satisfied after 3 iterations ***

         #    Occupation            Energy/Eh            Energy/eV
      -------------------------------------------------------------
         1        2.0000           -0.7379357             -20.0803
       ...           ...                  ...                  ...
        33        2.0000           -0.4470864             -12.1658
        34        2.0000           -0.4417912             -12.0217
        35        2.0000           -0.4102272             -11.1628
        36        2.0000           -0.4075632             -11.0904
        37        2.0000           -0.4028882             -10.9631
        38        2.0000           -0.3942521             -10.7281
        39        2.0000           -0.3780990             -10.2886 (HOMO)
        40                         -0.2619290              -7.1275 (LUMO)
        41                         -0.1765810              -4.8050
        42                         -0.1561279              -4.2485
        43                         -0.0237813              -0.6471
        44                          0.0178457               0.4856
       ...                                ...                  ...
        70                          0.6979494              18.9922
      -------------------------------------------------------------
                  HL-Gap            0.1161700 Eh            3.1611 eV
             Fermi-level           -0.3200140 Eh           -8.7080 eV

 SCC (total)                   0 d,  0 h,  0 min,  0.009 sec
 SCC setup                      ...        0 min,  0.001 sec (  9.406%)
 Dispersion                     ...        0 min,  0.000 sec (  1.243%)
 classical contributions        ...        0 min,  0.000 sec (  1.726%)
 integral evaluation            ...        0 min,  0.001 sec (  6.668%)
 iterations                     ...        0 min,  0.005 sec ( 52.690%)
 molecular gradient             ...        0 min,  0.002 sec ( 24.744%)
 printout                       ...        0 min,  0.000 sec (  3.192%)

         :::::::::::::::::::::::::::::::::::::::::::::::::::::
         ::                     SUMMARY                     ::
         :::::::::::::::::::::::::::::::::::::::::::::::::::::
         :: total energy             -44.491375178748 Eh    ::
         :: gradient norm              0.000359285201 Eh/a0 ::
         :: HOMO-LUMO gap              3.161147539181 eV    ::
         ::.................................................::
         :: SCC energy               -45.009415161391 Eh    ::
         :: -> isotropic ES            0.095468714328 Eh    ::
         :: -> anisotropic ES          0.000035280044 Eh    ::
         :: -> anisotropic XC          0.012488617804 Eh    ::
         :: -> dispersion             -0.026430708830 Eh    ::
         :: repulsion energy           0.518039982643 Eh    ::
         :: add. restraining           0.000000000000 Eh    ::
         :: total charge              -0.000000000000 e     ::
         :::::::::::::::::::::::::::::::::::::::::::::::::::::

           -------------------------------------------------
          |                Property Printout                |
           -------------------------------------------------

    * Orbital Energies and Occupations

         #    Occupation            Energy/Eh            Energy/eV
      -------------------------------------------------------------
         1        2.0000           -0.7379357             -20.0803
       ...           ...                  ...                  ...
        27        2.0000           -0.4878848             -13.2760
        28        2.0000           -0.4834820             -13.1562
        29        2.0000           -0.4767344             -12.9726
        30        2.0000           -0.4746756             -12.9166
        31        2.0000           -0.4614743             -12.5574
        32        2.0000           -0.4587753             -12.4839
        33        2.0000           -0.4470864             -12.1658
        34        2.0000           -0.4417912             -12.0217
        35        2.0000           -0.4102272             -11.1628
        36        2.0000           -0.4075632             -11.0904
        37        2.0000           -0.4028882             -10.9631
        38        2.0000           -0.3942521             -10.7281
        39        2.0000           -0.3780990             -10.2886 (HOMO)
        40                         -0.2619290              -7.1275 (LUMO)
        41                         -0.1765810              -4.8050
        42                         -0.1561279              -4.2485
        43                         -0.0237813              -0.6471
        44                          0.0178457               0.4856
        45                          0.0418978               1.1401
        46                          0.0497962               1.3550
        47                          0.0769300               2.0934
        48                          0.0910479               2.4775
        49                          0.1087917               2.9604
        50                          0.1158033               3.1512
       ...                                ...                  ...
        70                          0.6979494              18.9922
      -------------------------------------------------------------
                  HL-Gap            0.1161700 Eh            3.1611 eV
             Fermi-level           -0.3200140 Eh           -8.7080 eV

     #   Z          covCN         q      C6AA      α(0)
     1   6 C        3.758    -0.118    22.819     6.811
     2   6 C        2.938    -0.005    28.148     8.701
     3   6 C        2.850    -0.080    30.004     8.977
     4   6 C        2.732     0.354    20.988     7.500
     5   8 O        0.856    -0.436    22.420     6.348
     6   8 O        1.706    -0.252    18.170     5.755
     7   6 C        3.702     0.069    19.571     6.326
     8   6 C        3.741    -0.001    20.671     6.487
     9   7 N        2.784    -0.132    23.854     7.254
    10   6 C        3.791    -0.003    20.640     6.470
    11   6 C        3.784     0.010    20.431     6.439
    12   7 N        2.738    -0.213    25.638     7.520
    13   6 C        2.760     0.329    21.405     7.576
    14   8 O        0.858    -0.480    23.355     6.479
    15   1 H        0.924     0.089     1.886     2.147
    16   1 H        0.925     0.060     2.202     2.320
    17   1 H        0.925     0.049     2.336     2.390
    18   1 H        0.926     0.064     2.155     2.296
    19   1 H        0.926     0.055     2.262     2.352
    20   1 H        0.924     0.059     2.215     2.327
    21   1 H        0.924     0.060     2.197     2.318
    22   1 H        0.924     0.049     2.337     2.391
    23   1 H        0.924     0.086     1.921     2.167
    24   1 H        0.924     0.072     2.067     2.248
    25   1 H        0.924     0.046     2.374     2.410
    26   1 H        0.924     0.057     2.230     2.335
    27   1 H        0.923     0.039     2.469     2.457
    28   1 H        0.860     0.175     1.240     1.744

 Mol. C6AA /au·bohr⁶  :       7527.025873
 Mol. C8AA /au·bohr⁸  :     167269.257899
 Mol. α(0) /au        :        130.547716


Wiberg/Mayer (AO) data.
largest (>0.10) Wiberg bond orders for each atom

 ---------------------------------------------------------------------------
     #   Z sym  total        # sym  WBO       # sym  WBO       # sym  WBO
 ---------------------------------------------------------------------------
     1   6 C    3.992 --     2 C    1.033    17 H    0.984    16 H    0.966
                            15 H    0.955
     2   6 C    3.985 --     3 C    1.867     1 C    1.033     4 C    0.998
     3   6 C    3.986 --     2 C    1.867    19 H    0.975    18 H    0.972
     4   6 C    3.913 --     5 O    1.699     6 O    1.123     2 C    0.998
     5   8 O    2.016 --     4 C    1.699     6 O    0.166
     6   8 O    2.319 --     4 C    1.123     7 C    0.958     5 O    0.166
     7   6 C    3.935 --     8 C    0.975    20 H    0.969    21 H    0.964
                             6 O    0.958
     8   6 C    3.974 --     9 N    1.009     7 C    0.975    22 H    0.968
                            23 H    0.964
     9   7 N    3.409 --    13 C    1.138     8 C    1.009    10 C    0.991
                            14 O    0.144
    10   6 C    3.974 --    11 C    0.998     9 N    0.991    25 H    0.973
                            24 H    0.958
    11   6 C    3.977 --    12 N    1.004    10 C    0.998    26 H    0.973
                            27 H    0.970
    12   7 N    3.344 --    13 C    1.156    11 C    1.004    28 H    0.942
                            14 O    0.147
    13   6 C    3.960 --    14 O    1.605    12 N    1.156     9 N    1.138
    14   8 O    1.957 --    13 C    1.605    12 N    0.147     9 N    0.144
    15   1 H    0.992 --     1 C    0.955
    16   1 H    0.996 --     1 C    0.966
    17   1 H    0.998 --     1 C    0.984
    18   1 H    0.996 --     3 C    0.972
    19   1 H    0.996 --     3 C    0.975
    20   1 H    0.995 --     7 C    0.969
    21   1 H    0.996 --     7 C    0.964
    22   1 H    0.997 --     8 C    0.968
    23   1 H    0.993 --     8 C    0.964
    24   1 H    0.995 --    10 C    0.958
    25   1 H    0.998 --    10 C    0.973
    26   1 H    0.997 --    11 C    0.973
    27   1 H    0.998 --    11 C    0.970
    28   1 H    0.969 --    12 N    0.942
 ---------------------------------------------------------------------------

Topologies differ in total number of bonds
Writing topology from bond orders to xtbtopo.mol

molecular dipole:
                 x           y           z       tot (Debye)
 q only:       -0.780      -0.372       0.156
   full:       -0.925      -0.393       0.242       2.627
molecular quadrupole (traceless):
                xx          xy          yy          xz          yz          zz
 q only:        7.949       2.537      -7.418      -0.735      11.231      -0.530
  q+dip:        8.236       0.767      -6.555       0.126      13.121      -1.680
   full:        8.674      -0.107      -6.162      -0.234      13.434      -2.511

           -------------------------------------------------
          |                Geometry Summary                 |
           -------------------------------------------------

      molecular mass/u    :      198.2194148
   center of mass at/Å    :        0.0193576       0.0212864       0.0874897
  moments of inertia/u·Å² :        0.5133310E+03   0.8179957E+03   0.9006784E+03
rotational constants/cm⁻¹ :        0.3283969E-01   0.2060846E-01   0.1871659E-01

 * 26 selected distances

     #   Z          #   Z                                           value/Å
     2   6 C        3   6 C                                       1.3300128
     4   6 C        5   8 O                                       1.2110775
     4   6 C        6   8 O                                       1.3398019
     6   8 O        7   6 C                                       1.4160651
     7   6 C        8   6 C                                       1.5409799 (max)
     8   6 C        9   7 N                                       1.4332258
     9   7 N       10   6 C                                       1.4481403
    10   6 C       11   6 C                                       1.5361484
    11   6 C       12   7 N                                       1.4437537
     9   7 N       13   6 C                                       1.3716219
    12   7 N       13   6 C                                       1.3657067
    13   6 C       14   8 O                                       1.2111040
     1   6 C       15   1 H                                       1.0902394
     1   6 C       16   1 H                                       1.0883102
     1   6 C       17   1 H                                       1.0865133
     3   6 C       18   1 H                                       1.0768648
     3   6 C       19   1 H                                       1.0763924
     7   6 C       20   1 H                                       1.0916377
     7   6 C       21   1 H                                       1.0953853
     8   6 C       22   1 H                                       1.0936952
     8   6 C       23   1 H                                       1.0935145
    10   6 C       24   1 H                                       1.0965592
    10   6 C       25   1 H                                       1.0933483
    11   6 C       26   1 H                                       1.0922073
    11   6 C       27   1 H                                       1.0988858
    12   7 N       28   1 H                                       1.0047306 (min)

 * 5 distinct bonds (by element types)

   Z      Z             #   av. dist./Å        max./Å        min./Å
   1 H    6 C          13     1.0902733     1.0988858     1.0763924
   6 C    6 C           3     1.4690470     1.5409799     1.3300128
   1 H    7 N           1     1.0047306     1.0047306     1.0047306
   6 C    7 N           5     1.4124897     1.4481403     1.3657067
   6 C    8 O           4     1.2945121     1.4160651     1.2110775


optimized geometry written to: xtbopt.xyz


           -------------------------------------------------
          | TOTAL ENERGY              -44.491375178748 Eh   |
          | GRADIENT NORM               0.000359285201 Eh/α |
          | HOMO-LUMO GAP               3.161147539181 eV   |
           -------------------------------------------------

------------------------------------------------------------------------
 * finished run on 2025/12/01 at 14:18:39.559     
------------------------------------------------------------------------
 total:
 * wall-time:     0 d,  0 h,  0 min,  1.326 sec
 *  cpu-time:     0 d,  0 h,  0 min, 29.839 sec
 * ratio c/w:    22.510 speedup
 SCF:
 * wall-time:     0 d,  0 h,  0 min,  0.029 sec
 *  cpu-time:     0 d,  0 h,  0 min,  0.647 sec
 * ratio c/w:    22.555 speedup
 ANC optimizer:
 * wall-time:     0 d,  0 h,  0 min,  1.276 sec
 *  cpu-time:     0 d,  0 h,  0 min, 29.014 sec
 * ratio c/w:    22.744 speedup

normal termination of xtb
