      -----------------------------------------------------------      
     |                   =====================                   |     
     |                           x T B                           |     
     |                   =====================                   |     
     |                         S. Grimme                         |     
     |          Mulliken Center for Theoretical Chemistry        |     
     |                    University of Bonn                     |     
      -----------------------------------------------------------      

   * xtb version 6.7.1 (edcfbbe) compiled by 'albert@albert-system' on 2024-07-22

   xtb is free software: you can redistribute it and/or modify it under
   the terms of the GNU Lesser General Public License as published by
   the Free Software Foundation, either version 3 of the License, or
   (at your option) any later version.
   
   xtb is distributed in the hope that it will be useful,
   but WITHOUT ANY WARRANTY; without even the implied warranty of
   MERCHANTABILITY or FITNESS FOR A PARTICULAR PURPOSE.  See the
   GNU Lesser General Public License for more details.
   
   Cite this work as:
   * C. Bannwarth, E. Caldeweyher, S. Ehlert, A. Hansen, P. Pracht,
     J. Seibert, S. Spicher, S. Grimme, WIREs Comput. Mol. Sci., 2020, 11,
     e01493. DOI: 10.1002/wcms.1493
   
   for GFN2-xTB:
   * C. Bannwarth, S. Ehlert and S. Grimme., J. Chem. Theory Comput., 2019,
     15, 1652-1671. DOI: 10.1021/acs.jctc.8b01176
   for GFN1-xTB:
   * S. Grimme, C. Bannwarth, P. Shushkov, J. Chem. Theory Comput., 2017,
     13, 1989-2009. DOI: 10.1021/acs.jctc.7b00118
   for GFN0-xTB:
   * P. Pracht, E. Caldeweyher, S. Ehlert, S. Grimme, ChemRxiv, 2019, preprint.
     DOI: 10.26434/chemrxiv.8326202.v1
   for GFN-FF:
   * S. Spicher and S. Grimme, Angew. Chem. Int. Ed., 2020, 59, 15665-15673.
     DOI: 10.1002/anie.202004239
   
   for ALPB and GBSA implicit solvation:
   * S. Ehlert, M. Stahn, S. Spicher, S. Grimme, J. Chem. Theory Comput.,
     2021, 17, 4250-4261. DOI: 10.1021/acs.jctc.1c00471
   
   for ddCOSMO and CPCM-X implicit solvation:
   * M. Stahn, S. Ehlert, S. Grimme, J. Phys. Chem. A,
     2023, XX, XXXX-XXXX. DOI: 10.1021/acs.jpca.3c04382
   
   for DFT-D4:
   * E. Caldeweyher, C. Bannwarth and S. Grimme, J. Chem. Phys., 2017,
     147, 034112. DOI: 10.1063/1.4993215
   * E. Caldeweyher, S. Ehlert, A. Hansen, H. Neugebauer, S. Spicher,
     C. Bannwarth and S. Grimme, J. Chem. Phys., 2019, 150, 154122.
     DOI: 10.1063/1.5090222
   * E. Caldeweyher, J.-M. Mewes, S. Ehlert and S. Grimme, Phys. Chem. Chem. Phys.
     2020, 22, 8499-8512. DOI: 10.1039/D0CP00502A
   
   for sTDA-xTB:
   * S. Grimme and C. Bannwarth, J. Chem. Phys., 2016, 145, 054103.
     DOI: 10.1063/1.4959605
   
   in the mass-spec context:
   * V. Asgeirsson, C. Bauer and S. Grimme, Chem. Sci., 2017, 8, 4879.
     DOI: 10.1039/c7sc00601b
   * J. Koopman and S. Grimme, ACS Omega 2019, 4, 12, 15120-15133.
     DOI: 10.1021/acsomega.9b02011
   
   for metadynamics refer to:
   * S. Grimme, J. Chem. Theory Comput., 2019, 155, 2847-2862
     DOI: 10.1021/acs.jctc.9b00143
   
   for SPH calculations refer to:
   * S. Spicher and S. Grimme, J. Chem. Theory Comput., 2021, 17, 1701-1714
     DOI: 10.1021/acs.jctc.0c01306
   
   for ONIOM refer to:
   * C. Plett, A. Katbashev, S. Ehlert, S. Grimme, M. Bursch,
     Phys. Chem. Chem. Phys., 2023, 25, 17860-17868. DOI: 10.1039/D3CP02178E
   
   for DIPRO refer to:
   * J. Kohn, N. Gildemeister, S. Grimme, D. Fazzi, A. Hansen,
     J. Chem. Phys., 2023, just accepted.
   
   for PTB refer to:
   * S. Grimme, M. Mueller, A. Hansen, J. Chem. Phys., 2023, 158, 124111.
     DOI: 10.1063/5.0137838
   
   with help from (in alphabetical order)
   P. Atkinson, C. Bannwarth, F. Bohle, G. Brandenburg, E. Caldeweyher
   M. Checinski, S. Dohm, S. Ehlert, S. Ehrlich, I. Gerasimov, C. Hölzer
   A. Katbashev, J. Kohn, J. Koopman, C. Lavigne, S. Lehtola, F. März, M. Müller,
   F. Musil, H. Neugebauer, J. Pisarek, C. Plett, P. Pracht, F. Pultar,
   J. Seibert, P. Shushkov, S. Spicher, M. Stahn, M. Steiner, T. Strunk,
   J. Stückrath, T. Rose, and J. Unsleber
   
 * started run on 2025/12/01 at 14:18:40.174     
   ID    Z sym.   atoms
    1    6 C      1-4, 7, 8, 10, 11, 13
    2    8 O      5, 6, 14
    3    7 N      9, 12
    4    1 H      15-28

           -------------------------------------------------
          |                Calculation Setup                |
           -------------------------------------------------

          program call               : xtb pipeline_data/3_conformer_xyz/acrylates/rdkit/PFPUZMSQZJFLBK-UHFFFAOYSA-N_conf124.xyz --opt --gfn 2-xTB --iterations 250
          coordinate file            : pipeline_data/3_conformer_xyz/acrylates/rdkit/PFPUZMSQZJFLBK-UHFFFAOYSA-N_conf124.xyz
          omp threads                :                    24

########################################################################
[WARNING] Please study the warnings concerning your input carefully
-1- readin_getIntValue: could not parse '2-xTB'
########################################################################

           -------------------------------------------------
          |                 G F N 2 - x T B                 |
           -------------------------------------------------

        Reference                      10.1021/acs.jctc.8b01176
      * Hamiltonian:
        H0-scaling (s, p, d)           1.850000    2.230000    2.230000
        zeta-weighting                 0.500000
      * Dispersion:
        s8                             2.700000
        a1                             0.520000
        a2                             5.000000
        s9                             5.000000
      * Repulsion:
        kExp                           1.500000    1.000000
        rExp                           1.000000
      * Coulomb:
        alpha                          2.000000
        third order                    shell-resolved
        anisotropic                    true
        a3                             3.000000
        a5                             4.000000
        cn-shift                       1.200000
        cn-exp                         4.000000
        max-rad                        5.000000

q/qsh data taken from xtbrestart
CAMM data taken from xtbrestart

          ...................................................
          :                      SETUP                      :
          :.................................................:
          :  # basis functions                  70          :
          :  # atomic orbitals                  70          :
          :  # shells                           42          :
          :  # electrons                        78          :
          :  max. iterations                   250          :
          :  Hamiltonian                  GFN2-xTB          :
          :  restarted?                       true          :
          :  GBSA solvation                  false          :
          :  PC potential                    false          :
          :  electronic temp.          300.0000000     K    :
          :  accuracy                    1.0000000          :
          :  -> integral cutoff          0.2500000E+02      :
          :  -> integral neglect         0.1000000E-07      :
          :  -> SCF convergence          0.1000000E-05 Eh   :
          :  -> wf. convergence          0.1000000E-03 e    :
          :  Broyden damping             0.4000000          :
          :  net charge                          0          :
          :  unpaired electrons                  0          :
          ...................................................

 iter      E             dE          RMSdq      gap      omega  full diag
   1    -44.8920191 -0.448920E+02  0.328E+00    2.77       0.0  T
   2    -44.8994297 -0.741059E-02  0.194E+00    2.62       1.0  T
   3    -44.8853139  0.141158E-01  0.951E-01    2.47       1.0  T
   4    -44.9028823 -0.175684E-01  0.269E-01    2.52       1.0  T
   5    -44.9036937 -0.811364E-03  0.118E-01    2.51       1.0  T
   6    -44.9037083 -0.146251E-04  0.434E-02    2.51       1.0  T
   7    -44.9037282 -0.199245E-04  0.138E-02    2.51       1.4  T
   8    -44.9037290 -0.776716E-06  0.508E-03    2.51       3.7  T
   9    -44.9037291 -0.899459E-07  0.213E-03    2.51       8.9  T
  10    -44.9037291 -0.159172E-07  0.840E-04    2.51      22.5  T
  11    -44.9037291 -0.548995E-08  0.288E-04    2.51      65.5  T

   *** convergence criteria satisfied after 11 iterations ***

         #    Occupation            Energy/Eh            Energy/eV
      -------------------------------------------------------------
         1        2.0000           -0.7363169             -20.0362
       ...           ...                  ...                  ...
        33        2.0000           -0.4512733             -12.2798
        34        2.0000           -0.4382868             -11.9264
        35        2.0000           -0.4197054             -11.4208
        36        2.0000           -0.4047762             -11.0145
        37        2.0000           -0.3933872             -10.7046
        38        2.0000           -0.3913004             -10.6478
        39        2.0000           -0.3733839             -10.1603 (HOMO)
        40                         -0.2813035              -7.6547 (LUMO)
        41                         -0.1969488              -5.3593
        42                         -0.1674454              -4.5564
        43                         -0.0778506              -2.1184
        44                         -0.0253306              -0.6893
       ...                                ...                  ...
        70                          0.6101088              16.6019
      -------------------------------------------------------------
                  HL-Gap            0.0920804 Eh            2.5056 eV
             Fermi-level           -0.3273437 Eh           -8.9075 eV

 SCC (total)                   0 d,  0 h,  0 min,  0.024 sec
 SCC setup                      ...        0 min,  0.000 sec (  1.004%)
 Dispersion                     ...        0 min,  0.000 sec (  1.266%)
 classical contributions        ...        0 min,  0.000 sec (  1.930%)
 integral evaluation            ...        0 min,  0.001 sec (  4.787%)
 iterations                     ...        0 min,  0.019 sec ( 79.606%)
 molecular gradient             ...        0 min,  0.003 sec ( 10.573%)
 printout                       ...        0 min,  0.000 sec (  0.726%)

         :::::::::::::::::::::::::::::::::::::::::::::::::::::
         ::                     SUMMARY                     ::
         :::::::::::::::::::::::::::::::::::::::::::::::::::::
         :: total energy             -44.444911872270 Eh    ::
         :: gradient norm              0.181541551822 Eh/a0 ::
         :: HOMO-LUMO gap              2.505634899157 eV    ::
         ::.................................................::
         :: SCC energy               -44.903807150476 Eh    ::
         :: -> isotropic ES            0.096025810318 Eh    ::
         :: -> anisotropic ES          0.004812730207 Eh    ::
         :: -> anisotropic XC          0.014025566416 Eh    ::
         :: -> dispersion             -0.021809303996 Eh    ::
         :: repulsion energy           0.458895278206 Eh    ::
         :: add. restraining           0.000000000000 Eh    ::
         :: total charge               0.000000000000 e     ::
         :::::::::::::::::::::::::::::::::::::::::::::::::::::

      ----------------------------------------------------------- 
     |                   =====================                   |
     |                        A N C O P T                        |
     |                   =====================                   |
     |               Approximate Normal Coordinate               |
     |                Rational Function Optimizer                |
      ----------------------------------------------------------- 
      ----------------------------------------------------------- 
     |                   =====================                   |
     |                        A N C O P T                        |
     |                   =====================                   |
     |               Approximate Normal Coordinate               |
     |                Rational Function Optimizer                |
      ----------------------------------------------------------- 

          ...................................................
          :                      SETUP                      :
          :.................................................:
          :   optimization level            normal          :
          :   max. optcycles                   200          :
          :   ANC micro-cycles                  20          :
          :   degrees of freedom                78          :
          :.................................................:
          :   RF solver                   davidson          :
          :   write xtbopt.log                true          :
          :   linear?                        false          :
          :   energy convergence         0.5000000E-05 Eh   :
          :   grad. convergence          0.1000000E-02 Eh/α :
          :   maxmium RF displ.          1.0000000          :
          :   Hlow (freq-cutoff)         0.1000000E-01      :
          :   Hmax (freq-cutoff)         5.0000000          :
          :   S6 in model hess.         20.0000000          :
          ...................................................

generating ANC from exact Hessian ...
Using Lindh-Hessian (1995)
 Shifting diagonal of input Hessian by   9.342378001812389E-003
 Lowest  eigenvalues of input Hessian
    0.000000    0.000000    0.000000    0.000000    0.000000    0.000000
    0.010000    0.010144    0.010232    0.012367    0.012965    0.014921
    0.017214    0.018346    0.020491    0.021090    0.025119    0.027480
 Highest eigenvalues
    1.624923    1.774337    1.798210    1.920796    2.169034    2.193501
 

........................................................................
.............................. CYCLE    1 ..............................
........................................................................

 iter      E             dE          RMSdq      gap      omega  full diag
   1    -44.9037291 -0.449037E+02  0.109E-04    2.51       0.0  T
   2    -44.9037291 -0.319815E-10  0.641E-05    2.51     295.0  T
   3    -44.9037291 -0.937916E-12  0.371E-05    2.51     509.1  T
     SCC iter.                  ...        0 min,  0.004 sec
     gradient                   ...        0 min,  0.002 sec
 * total energy  :   -44.4449119 Eh     change       -0.3556622E-09 Eh
   gradient norm :     0.1815431 Eh/α   predicted     0.0000000E+00 (-100.00%)
   displ. norm   :     0.3264264 α      lambda       -0.3526150E-01
   maximum displ.:     0.1151382 α      in ANC's #18, #13, #55, ...

........................................................................
.............................. CYCLE    2 ..............................
........................................................................

 iter      E             dE          RMSdq      gap      omega  full diag
   1    -44.9652386 -0.449652E+02  0.304E-01    2.71       0.0  T
   2    -44.9659021 -0.663501E-03  0.192E-01    2.71       1.0  T
   3    -44.9659413 -0.392248E-04  0.101E-01    2.70       1.0  T
   4    -44.9659467 -0.542548E-05  0.461E-02    2.71       1.0  T
   5    -44.9659905 -0.437932E-04  0.114E-02    2.71       1.7  T
   6    -44.9659919 -0.140230E-05  0.536E-03    2.71       3.5  T
   7    -44.9659920 -0.697810E-07  0.183E-03    2.71      10.3  T
   8    -44.9659920 -0.917924E-08  0.666E-04    2.71      28.4  T
   9    -44.9659920 -0.190403E-08  0.245E-04    2.71      77.2  T
     SCC iter.                  ...        0 min,  0.011 sec
     gradient                   ...        0 min,  0.002 sec
 * total energy  :   -44.4693379 Eh     change       -0.2442599E-01 Eh
   gradient norm :     0.0690890 Eh/α   predicted    -0.1952179E-01 ( -20.08%)
   displ. norm   :     0.3520812 α      lambda       -0.1021067E-01
   maximum displ.:     0.1751090 α      in ANC's #9, #13, #18, ...

........................................................................
.............................. CYCLE    3 ..............................
........................................................................

 iter      E             dE          RMSdq      gap      omega  full diag
   1    -44.9950986 -0.449951E+02  0.224E-01    2.86       0.0  T
   2    -44.9953293 -0.230759E-03  0.133E-01    2.89       1.0  T
   3    -44.9953257  0.359949E-05  0.613E-02    2.87       1.0  T
   4    -44.9953320 -0.629907E-05  0.292E-02    2.88       1.0  T
   5    -44.9953498 -0.177560E-04  0.651E-03    2.88       2.9  T
   6    -44.9953501 -0.352342E-06  0.299E-03    2.88       6.3  T
   7    -44.9953502 -0.215054E-07  0.902E-04    2.88      20.9  T
   8    -44.9953502 -0.241507E-08  0.369E-04    2.88      51.2  T
     SCC iter.                  ...        0 min,  0.010 sec
     gradient                   ...        0 min,  0.002 sec
 * total energy  :   -44.4753468 Eh     change       -0.6008908E-02 Eh
   gradient norm :     0.0204729 Eh/α   predicted    -0.5741402E-02 (  -4.45%)
   displ. norm   :     0.2996204 α      lambda       -0.2192301E-02
   maximum displ.:     0.1940412 α      in ANC's #9, #13, #10, ...

........................................................................
.............................. CYCLE    4 ..............................
........................................................................

 iter      E             dE          RMSdq      gap      omega  full diag
   1    -44.9961219 -0.449961E+02  0.117E-01    2.91       0.0  T
   2    -44.9961571 -0.352089E-04  0.693E-02    2.93       1.0  T
   3    -44.9961579 -0.786190E-06  0.204E-02    2.92       1.0  T
   4    -44.9961588 -0.873108E-06  0.315E-03    2.93       6.0  T
   5    -44.9961588 -0.368487E-07  0.177E-03    2.93      10.7  T
   6    -44.9961588 -0.176714E-07  0.950E-04    2.93      19.9  T
   7    -44.9961588 -0.107224E-07  0.371E-04    2.93      50.9  T
     SCC iter.                  ...        0 min,  0.009 sec
     gradient                   ...        0 min,  0.002 sec
 * total energy  :   -44.4769594 Eh     change       -0.1612612E-02 Eh
   gradient norm :     0.0104447 Eh/α   predicted    -0.1194567E-02 ( -25.92%)
   displ. norm   :     0.3581282 α      lambda       -0.1489972E-02
   maximum displ.:     0.2402508 α      in ANC's #9, #10, #13, ...

........................................................................
.............................. CYCLE    5 ..............................
........................................................................

 iter      E             dE          RMSdq      gap      omega  full diag
   1    -44.9955779 -0.449956E+02  0.118E-01    2.94       0.0  T
   2    -44.9956029 -0.249599E-04  0.703E-02    2.96       1.0  T
   3    -44.9956034 -0.495502E-06  0.164E-02    2.95       1.2  T
   4    -44.9956046 -0.122680E-05  0.344E-03    2.96       5.5  T
   5    -44.9956047 -0.699971E-07  0.198E-03    2.96       9.5  T
   6    -44.9956047 -0.107961E-07  0.112E-03    2.96      16.8  T
   7    -44.9956047 -0.176083E-07  0.377E-04    2.96      50.1  T
   8    -44.9956047 -0.826581E-09  0.145E-04    2.96     130.6  T
     SCC iter.                  ...        0 min,  0.010 sec
     gradient                   ...        0 min,  0.002 sec
 * total energy  :   -44.4779250 Eh     change       -0.9656061E-03 Eh
   gradient norm :     0.0112656 Eh/α   predicted    -0.8405383E-03 ( -12.95%)
   displ. norm   :     0.2397480 α      lambda       -0.5669219E-03
   maximum displ.:     0.1510164 α      in ANC's #9, #10, #1, ...

........................................................................
.............................. CYCLE    6 ..............................
........................................................................

 iter      E             dE          RMSdq      gap      omega  full diag
   1    -44.9964478 -0.449964E+02  0.834E-02    2.95       0.0  T
   2    -44.9964555 -0.773241E-05  0.494E-02    2.96       1.0  T
   3    -44.9964559 -0.380525E-06  0.850E-03    2.96       2.2  T
   4    -44.9964561 -0.265734E-06  0.313E-03    2.96       6.0  T
   5    -44.9964562 -0.863946E-07  0.181E-03    2.96      10.4  T
   6    -44.9964563 -0.249018E-07  0.733E-04    2.96      25.8  T
   7    -44.9964563 -0.553133E-08  0.225E-04    2.96      84.1  T
     SCC iter.                  ...        0 min,  0.009 sec
     gradient                   ...        0 min,  0.002 sec
 * total energy  :   -44.4783176 Eh     change       -0.3925783E-03 Eh
   gradient norm :     0.0095287 Eh/α   predicted    -0.2997847E-03 ( -23.64%)
   displ. norm   :     0.2614862 α      lambda       -0.5031964E-03
   maximum displ.:     0.1314100 α      in ANC's #9, #1, #3, ...

........................................................................
.............................. CYCLE    7 ..............................
........................................................................

 iter      E             dE          RMSdq      gap      omega  full diag
   1    -44.9982301 -0.449982E+02  0.879E-02    2.96       0.0  T
   2    -44.9982339 -0.384495E-05  0.515E-02    2.96       1.0  T
   3    -44.9982347 -0.751104E-06  0.572E-03    2.96       3.3  T
   4    -44.9982348 -0.149976E-06  0.315E-03    2.96       6.0  T
   5    -44.9982349 -0.409663E-07  0.195E-03    2.96       9.7  T
   6    -44.9982349 -0.462595E-07  0.581E-04    2.96      32.6  T
   7    -44.9982349 -0.251434E-08  0.245E-04    2.96      77.1  T
     SCC iter.                  ...        0 min,  0.009 sec
     gradient                   ...        0 min,  0.002 sec
 * total energy  :   -44.4786646 Eh     change       -0.3469959E-03 Eh
   gradient norm :     0.0063540 Eh/α   predicted    -0.2688030E-03 ( -22.53%)
   displ. norm   :     0.2606861 α      lambda       -0.4012542E-03
   maximum displ.:     0.1358154 α      in ANC's #1, #3, #2, ...

........................................................................
.............................. CYCLE    8 ..............................
........................................................................

 iter      E             dE          RMSdq      gap      omega  full diag
   1    -44.9988322 -0.449988E+02  0.896E-02    2.95       0.0  T
   2    -44.9988377 -0.548468E-05  0.521E-02    2.94       1.0  T
   3    -44.9988386 -0.925180E-06  0.652E-03    2.95       2.9  T
   4    -44.9988388 -0.188661E-06  0.304E-03    2.95       6.2  T
   5    -44.9988388  0.207825E-07  0.205E-03    2.95       9.2  T
   6    -44.9988389 -0.669292E-07  0.525E-04    2.95      36.0  T
   7    -44.9988389 -0.134664E-08  0.207E-04    2.95      91.4  T
     SCC iter.                  ...        0 min,  0.009 sec
     gradient                   ...        0 min,  0.002 sec
 * total energy  :   -44.4789584 Eh     change       -0.2938219E-03 Eh
   gradient norm :     0.0077898 Eh/α   predicted    -0.2142681E-03 ( -27.08%)
   displ. norm   :     0.2841799 α      lambda       -0.3712673E-03
   maximum displ.:     0.1715764 α      in ANC's #1, #2, #3, ...

........................................................................
.............................. CYCLE    9 ..............................
........................................................................

 iter      E             dE          RMSdq      gap      omega  full diag
   1    -44.9985543 -0.449986E+02  0.917E-02    2.95       0.0  T
   2    -44.9985602 -0.589900E-05  0.528E-02    2.95       1.0  T
   3    -44.9985612 -0.995785E-06  0.708E-03    2.95       2.7  T
   4    -44.9985615 -0.296163E-06  0.315E-03    2.95       6.0  T
   5    -44.9985614  0.111248E-07  0.188E-03    2.95      10.1  T
   6    -44.9985615 -0.492369E-07  0.672E-04    2.95      28.1  T
   7    -44.9985615 -0.463669E-08  0.249E-04    2.95      76.0  T
     SCC iter.                  ...        0 min,  0.009 sec
     gradient                   ...        0 min,  0.002 sec
 * total energy  :   -44.4792289 Eh     change       -0.2705353E-03 Eh
   gradient norm :     0.0081881 Eh/α   predicted    -0.2006262E-03 ( -25.84%)
   displ. norm   :     0.2510520 α      lambda       -0.2723495E-03
   maximum displ.:     0.1613644 α      in ANC's #1, #2, #3, ...

........................................................................
.............................. CYCLE   10 ..............................
........................................................................

 iter      E             dE          RMSdq      gap      omega  full diag
   1    -44.9980116 -0.449980E+02  0.759E-02    2.96       0.0  T
   2    -44.9980158 -0.421389E-05  0.435E-02    2.96       1.0  T
   3    -44.9980161 -0.272461E-06  0.697E-03    2.96       2.7  T
   4    -44.9980164 -0.318396E-06  0.363E-03    2.96       5.2  T
   5    -44.9980166 -0.174108E-06  0.173E-03    2.96      10.9  T
   6    -44.9980166 -0.210816E-07  0.558E-04    2.96      33.9  T
   7    -44.9980166 -0.193038E-08  0.183E-04    2.96     103.3  T
     SCC iter.                  ...        0 min,  0.009 sec
     gradient                   ...        0 min,  0.002 sec
 * total energy  :   -44.4794257 Eh     change       -0.1967407E-03 Eh
   gradient norm :     0.0057921 Eh/α   predicted    -0.1447593E-03 ( -26.42%)
   displ. norm   :     0.1978774 α      lambda       -0.1639489E-03
   maximum displ.:     0.1319613 α      in ANC's #1, #2, #3, ...

........................................................................
.............................. CYCLE   11 ..............................
........................................................................

 iter      E             dE          RMSdq      gap      omega  full diag
   1    -44.9978251 -0.449978E+02  0.583E-02    2.97       0.0  T
   2    -44.9978279 -0.284497E-05  0.337E-02    2.98       1.0  T
   3    -44.9978279 -0.272590E-07  0.572E-03    2.97       3.3  T
   4    -44.9978281 -0.207822E-06  0.260E-03    2.97       7.3  T
   5    -44.9978282 -0.100107E-06  0.116E-03    2.98      16.3  T
   6    -44.9978283 -0.936681E-08  0.479E-04    2.98      39.4  T
   7    -44.9978283 -0.163293E-08  0.132E-04    2.98     142.7  T
     SCC iter.                  ...        0 min,  0.009 sec
     gradient                   ...        0 min,  0.002 sec
 * total energy  :   -44.4795455 Eh     change       -0.1198814E-03 Eh
   gradient norm :     0.0037038 Eh/α   predicted    -0.8518443E-04 ( -28.94%)
   displ. norm   :     0.1771634 α      lambda       -0.1085468E-03
   maximum displ.:     0.1186556 α      in ANC's #1, #2, #3, ...

........................................................................
.............................. CYCLE   12 ..............................
........................................................................

 iter      E             dE          RMSdq      gap      omega  full diag
   1    -44.9978384 -0.449978E+02  0.505E-02    2.99       0.0  T
   2    -44.9978404 -0.200519E-05  0.295E-02    2.99       1.0  T
   3    -44.9978403  0.454777E-07  0.479E-03    2.99       3.9  T
   4    -44.9978405 -0.221158E-06  0.159E-03    2.99      11.9  T
   5    -44.9978406 -0.286444E-07  0.920E-04    2.99      20.5  T
   6    -44.9978406 -0.802575E-08  0.430E-04    2.99      43.9  T
     SCC iter.                  ...        0 min,  0.008 sec
     gradient                   ...        0 min,  0.002 sec
 * total energy  :   -44.4796282 Eh     change       -0.8270325E-04 Eh
   gradient norm :     0.0033081 Eh/α   predicted    -0.5597772E-04 ( -32.31%)
   displ. norm   :     0.1964477 α      lambda       -0.1036451E-03
   maximum displ.:     0.1254111 α      in ANC's #1, #2, #3, ...

........................................................................
.............................. CYCLE   13 ..............................
........................................................................

 iter      E             dE          RMSdq      gap      omega  full diag
   1    -44.9979227 -0.449979E+02  0.566E-02    3.00       0.0  T
   2    -44.9979243 -0.162969E-05  0.334E-02    3.00       1.0  T
   3    -44.9979242  0.891751E-07  0.449E-03    3.00       4.2  T
   4    -44.9979244 -0.200989E-06  0.218E-03    3.00       8.7  T
   5    -44.9979245 -0.776050E-07  0.869E-04    3.00      21.8  T
   6    -44.9979245 -0.415245E-08  0.443E-04    3.00      42.6  T
     SCC iter.                  ...        0 min,  0.008 sec
     gradient                   ...        0 min,  0.002 sec
 * total energy  :   -44.4797044 Eh     change       -0.7617862E-04 Eh
   gradient norm :     0.0047418 Eh/α   predicted    -0.5382529E-04 ( -29.34%)
   displ. norm   :     0.2620307 α      lambda       -0.1291855E-03
   maximum displ.:     0.1686741 α      in ANC's #1, #2, #5, ...

........................................................................
.............................. CYCLE   14 ..............................
........................................................................

 iter      E             dE          RMSdq      gap      omega  full diag
   1    -44.9990001 -0.449990E+02  0.728E-02    3.02       0.0  T
   2    -44.9990022 -0.211592E-05  0.432E-02    3.02       1.0  T
   3    -44.9989997  0.252780E-05  0.115E-02    3.02       1.6  T
   4    -44.9990026 -0.289557E-05  0.344E-03    3.02       5.5  T
   5    -44.9990028 -0.217395E-06  0.107E-03    3.02      17.7  T
   6    -44.9990028 -0.432009E-08  0.508E-04    3.02      37.2  T
   7    -44.9990028 -0.758639E-09  0.139E-04    3.02     135.9  T
     SCC iter.                  ...        0 min,  0.009 sec
     gradient                   ...        0 min,  0.002 sec
 * total energy  :   -44.4797858 Eh     change       -0.8135670E-04 Eh
   gradient norm :     0.0065854 Eh/α   predicted    -0.6902917E-04 ( -15.15%)
   displ. norm   :     0.3184567 α      lambda       -0.1327043E-03
   maximum displ.:     0.1962973 α      in ANC's #1, #2, #5, ...

........................................................................
.............................. CYCLE   15 ..............................
........................................................................

 iter      E             dE          RMSdq      gap      omega  full diag
   1    -44.9966705 -0.449967E+02  0.870E-02    3.01       0.0  T
   2    -44.9966742 -0.365795E-05  0.513E-02    3.02       1.0  T
   3    -44.9966735  0.692488E-06  0.816E-03    3.02       2.3  T
   4    -44.9966743 -0.825876E-06  0.464E-03    3.02       4.1  T
   5    -44.9966747 -0.424342E-06  0.136E-03    3.02      13.9  T
   6    -44.9966747 -0.455481E-08  0.535E-04    3.02      35.3  T
   7    -44.9966747 -0.101804E-08  0.161E-04    3.02     117.5  T
     SCC iter.                  ...        0 min,  0.009 sec
     gradient                   ...        0 min,  0.002 sec
 * total energy  :   -44.4798665 Eh     change       -0.8071659E-04 Eh
   gradient norm :     0.0059973 Eh/α   predicted    -0.7308869E-04 (  -9.45%)
   displ. norm   :     0.2533441 α      lambda       -0.1366932E-03
   maximum displ.:     0.1544315 α      in ANC's #1, #2, #5, ...

........................................................................
.............................. CYCLE   16 ..............................
........................................................................

 iter      E             dE          RMSdq      gap      omega  full diag
   1    -44.9981450 -0.449981E+02  0.684E-02    3.02       0.0  T
   2    -44.9981465 -0.149249E-05  0.402E-02    3.01       1.0  T
   3    -44.9981465 -0.261957E-07  0.454E-03    3.02       4.2  T
   4    -44.9981468 -0.280788E-06  0.172E-03    3.02      11.0  T
   5    -44.9981468 -0.160379E-07  0.115E-03    3.02      16.4  T
   6    -44.9981468 -0.119764E-07  0.456E-04    3.02      41.5  T
   7    -44.9981468 -0.184109E-08  0.148E-04    3.02     127.5  T
     SCC iter.                  ...        0 min,  0.009 sec
     gradient                   ...        0 min,  0.002 sec
 * total energy  :   -44.4799686 Eh     change       -0.1021458E-03 Eh
   gradient norm :     0.0059437 Eh/α   predicted    -0.7273599E-04 ( -28.79%)
   displ. norm   :     0.3056972 α      lambda       -0.1598387E-03
   maximum displ.:     0.1757959 α      in ANC's #1, #2, #5, ...

........................................................................
.............................. CYCLE   17 ..............................
........................................................................

 iter      E             dE          RMSdq      gap      omega  full diag
   1    -44.9988685 -0.449989E+02  0.782E-02    3.01       0.0  T
   2    -44.9988709 -0.237429E-05  0.459E-02    3.01       1.0  T
   3    -44.9988709 -0.154861E-08  0.535E-03    3.01       3.5  T
   4    -44.9988712 -0.352087E-06  0.216E-03    3.01       8.7  T
   5    -44.9988713 -0.456876E-07  0.132E-03    3.01      14.3  T
   6    -44.9988713 -0.141033E-07  0.509E-04    3.01      37.1  T
   7    -44.9988713 -0.184406E-08  0.141E-04    3.01     133.9  T
     SCC iter.                  ...        0 min,  0.009 sec
     gradient                   ...        0 min,  0.002 sec
 * total energy  :   -44.4800823 Eh     change       -0.1136327E-03 Eh
   gradient norm :     0.0034351 Eh/α   predicted    -0.8739130E-04 ( -23.09%)
   displ. norm   :     0.3348478 α      lambda       -0.1136703E-03
   maximum displ.:     0.1976646 α      in ANC's #2, #1, #5, ...

........................................................................
.............................. CYCLE   18 ..............................
........................................................................

 iter      E             dE          RMSdq      gap      omega  full diag
   1    -44.9980239 -0.449980E+02  0.827E-02    3.00       0.0  T
   2    -44.9980261 -0.217607E-05  0.486E-02    3.00       1.0  T
   3    -44.9980251  0.100465E-05  0.861E-03    3.00       2.2  T
   4    -44.9980264 -0.125489E-05  0.379E-03    3.00       5.0  T
   5    -44.9980266 -0.259916E-06  0.124E-03    3.00      15.2  T
   6    -44.9980266 -0.309001E-08  0.389E-04    3.00      48.6  T
   7    -44.9980266 -0.529106E-09  0.149E-04    3.00     127.2  T
     SCC iter.                  ...        0 min,  0.009 sec
     gradient                   ...        0 min,  0.002 sec
 * total energy  :   -44.4801627 Eh     change       -0.8041591E-04 Eh
   gradient norm :     0.0037957 Eh/α   predicted    -0.6320898E-04 ( -21.40%)
   displ. norm   :     0.2113017 α      lambda       -0.1062240E-03
   maximum displ.:     0.1189692 α      in ANC's #2, #1, #5, ...

........................................................................
.............................. CYCLE   19 ..............................
........................................................................

 iter      E             dE          RMSdq      gap      omega  full diag
   1    -45.0002836 -0.450003E+02  0.520E-02    3.00       0.0  T
   2    -45.0002852 -0.166213E-05  0.305E-02    3.00       1.0  T
   3    -45.0002849  0.370146E-06  0.647E-03    3.00       2.9  T
   4    -45.0002854 -0.563479E-06  0.226E-03    3.00       8.4  T
   5    -45.0002855 -0.803731E-07  0.951E-04    3.00      19.9  T
   6    -45.0002855 -0.671880E-08  0.389E-04    3.00      48.6  T
     SCC iter.                  ...        0 min,  0.008 sec
     gradient                   ...        0 min,  0.002 sec
 * total energy  :   -44.4802197 Eh     change       -0.5695594E-04 Eh
   gradient norm :     0.0039527 Eh/α   predicted    -0.5548542E-04 (  -2.58%)
   displ. norm   :     0.3781359 α      lambda       -0.9198506E-04
   maximum displ.:     0.2313546 α      in ANC's #2, #1, #5, ...

........................................................................
.............................. CYCLE   20 ..............................
........................................................................

 iter      E             dE          RMSdq      gap      omega  full diag
   1    -44.9958776 -0.449959E+02  0.961E-02    2.99       0.0  T
   2    -44.9958798 -0.228562E-05  0.568E-02    2.99       1.0  T
   3    -44.9958763  0.354292E-05  0.141E-02    2.99       1.3  T
   4    -44.9958805 -0.418346E-05  0.369E-03    2.99       5.1  T
   5    -44.9958807 -0.217119E-06  0.152E-03    2.99      12.4  T
   6    -44.9958807 -0.560819E-08  0.544E-04    2.99      34.8  T
   7    -44.9958807 -0.126603E-08  0.148E-04    2.99     127.5  T
     SCC iter.                  ...        0 min,  0.009 sec
     gradient                   ...        0 min,  0.002 sec
 * total energy  :   -44.4802461 Eh     change       -0.2649791E-04 Eh
   gradient norm :     0.0050398 Eh/α   predicted    -0.5257169E-04 (  98.40%)
   displ. norm   :     0.0867899 α      lambda       -0.6960853E-04
   maximum displ.:     0.0469960 α      in ANC's #1, #2, #5, ...
 * RMSD in coord.:     0.7425137 α      energy gain  -0.3533428E-01 Eh

generating ANC from exact Hessian ...
Using Lindh-Hessian (1995)
 Shifting diagonal of input Hessian by   9.308863487082193E-003
 Lowest  eigenvalues of input Hessian
    0.000000    0.000000    0.000000    0.000000    0.000000    0.000000
    0.010000    0.010089    0.010276    0.012399    0.013405    0.015468
    0.017091    0.019168    0.020684    0.022160    0.028707    0.030349
 Highest eigenvalues
    1.703557    1.822937    1.916407    2.078279    2.382479    2.555591
 

........................................................................
.............................. CYCLE   21 ..............................
........................................................................

 iter      E             dE          RMSdq      gap      omega  full diag
   1    -44.9988273 -0.449988E+02  0.273E-02    3.00       0.0  T
   2    -44.9988280 -0.689448E-06  0.161E-02    3.00       1.2  T
   3    -44.9988277  0.262635E-06  0.470E-03    3.00       4.0  T
   4    -44.9988281 -0.338479E-06  0.179E-03    3.00      10.6  T
   5    -44.9988281 -0.574554E-07  0.567E-04    3.00      33.3  T
   6    -44.9988281 -0.136488E-08  0.280E-04    3.00      67.6  T
     SCC iter.                  ...        0 min,  0.008 sec
     gradient                   ...        0 min,  0.002 sec
 * total energy  :   -44.4802857 Eh     change       -0.3952790E-04 Eh
   gradient norm :     0.0029469 Eh/α   predicted     0.0000000E+00 (-100.00%)
   displ. norm   :     0.0198321 α      lambda       -0.2223576E-04
   maximum displ.:     0.0080357 α      in ANC's #4, #3, #2, ...

........................................................................
.............................. CYCLE   22 ..............................
........................................................................

 iter      E             dE          RMSdq      gap      omega  full diag
   1    -44.9995931 -0.449996E+02  0.102E-02    3.01       0.0  T
   2    -44.9995932 -0.894969E-07  0.617E-03    3.01       3.1  T
   3    -44.9995931  0.988081E-07  0.250E-03    3.01       7.5  T
   4    -44.9995932 -0.118625E-06  0.711E-04    3.01      26.6  T
   5    -44.9995932 -0.887850E-08  0.255E-04    3.01      74.0  T
     SCC iter.                  ...        0 min,  0.006 sec
     gradient                   ...        0 min,  0.002 sec
 * total energy  :   -44.4803023 Eh     change       -0.1663854E-04 Eh
   gradient norm :     0.0013615 Eh/α   predicted    -0.1116574E-04 ( -32.89%)
   displ. norm   :     0.0716192 α      lambda       -0.2870911E-04
   maximum displ.:     0.0380446 α      in ANC's #4, #3, #2, ...

........................................................................
.............................. CYCLE   23 ..............................
........................................................................

 iter      E             dE          RMSdq      gap      omega  full diag
   1    -45.0006500 -0.450006E+02  0.310E-02    3.02       0.0  T
   2    -45.0006505 -0.511460E-06  0.182E-02    3.02       1.0  T
   3    -45.0006501  0.439639E-06  0.543E-03    3.02       3.5  T
   4    -45.0006506 -0.569747E-06  0.172E-03    3.02      11.0  T
   5    -45.0006507 -0.372668E-07  0.733E-04    3.02      25.8  T
   6    -45.0006507 -0.262518E-08  0.165E-04    3.02     114.8  T
     SCC iter.                  ...        0 min,  0.008 sec
     gradient                   ...        0 min,  0.002 sec
 * total energy  :   -44.4803259 Eh     change       -0.2359583E-04 Eh
   gradient norm :     0.0033591 Eh/α   predicted    -0.1438956E-04 ( -39.02%)
   displ. norm   :     0.0545319 α      lambda       -0.2429187E-04
   maximum displ.:     0.0310845 α      in ANC's #4, #3, #2, ...

........................................................................
.............................. CYCLE   24 ..............................
........................................................................

 iter      E             dE          RMSdq      gap      omega  full diag
   1    -45.0003704 -0.450004E+02  0.210E-02    3.03       0.0  T
   2    -45.0003705 -0.185535E-06  0.122E-02    3.03       1.5  T
   3    -45.0003706 -0.302546E-07  0.150E-03    3.03      12.6  T
   4    -45.0003706 -0.160963E-07  0.785E-04    3.03      24.1  T
   5    -45.0003706 -0.975135E-09  0.488E-04    3.03      38.7  T
     SCC iter.                  ...        0 min,  0.006 sec
     gradient                   ...        0 min,  0.002 sec
 * total energy  :   -44.4803465 Eh     change       -0.2061206E-04 Eh
   gradient norm :     0.0031935 Eh/α   predicted    -0.1218704E-04 ( -40.87%)
   displ. norm   :     0.2262056 α      lambda       -0.8640192E-04
   maximum displ.:     0.1360008 α      in ANC's #4, #3, #2, ...

........................................................................
.............................. CYCLE   25 ..............................
........................................................................

 iter      E             dE          RMSdq      gap      omega  full diag
   1    -44.9985964 -0.449986E+02  0.818E-02    3.06       0.0  T
   2    -44.9986011 -0.465786E-05  0.474E-02    3.05       1.0  T
   3    -44.9986013 -0.251188E-06  0.805E-03    3.06       2.3  T
   4    -44.9986018 -0.519481E-06  0.326E-03    3.05       5.8  T
   5    -44.9986019 -0.416887E-07  0.207E-03    3.05       9.1  T
   6    -44.9986019 -0.521530E-07  0.443E-04    3.05      42.6  T
   7    -44.9986019 -0.230445E-08  0.134E-04    3.05     141.5  T
     SCC iter.                  ...        0 min,  0.009 sec
     gradient                   ...        0 min,  0.002 sec
 * total energy  :   -44.4803997 Eh     change       -0.5321439E-04 Eh
   gradient norm :     0.0027110 Eh/α   predicted    -0.4541563E-04 ( -14.66%)
   displ. norm   :     0.0848388 α      lambda       -0.2384576E-04
   maximum displ.:     0.0519611 α      in ANC's #4, #3, #2, ...

........................................................................
.............................. CYCLE   26 ..............................
........................................................................

 iter      E             dE          RMSdq      gap      omega  full diag
   1    -44.9984041 -0.449984E+02  0.262E-02    3.06       0.0  T
   2    -44.9984046 -0.528727E-06  0.153E-02    3.06       1.2  T
   3    -44.9984045  0.588214E-07  0.325E-03    3.06       5.8  T
   4    -44.9984046 -0.963357E-07  0.156E-03    3.06      12.1  T
   5    -44.9984047 -0.430465E-07  0.572E-04    3.06      33.0  T
   6    -44.9984047 -0.112976E-08  0.124E-04    3.06     152.0  T
     SCC iter.                  ...        0 min,  0.007 sec
     gradient                   ...        0 min,  0.003 sec
 * total energy  :   -44.4804183 Eh     change       -0.1857670E-04 Eh
   gradient norm :     0.0020847 Eh/α   predicted    -0.1201104E-04 ( -35.34%)
   displ. norm   :     0.1063767 α      lambda       -0.3729343E-04
   maximum displ.:     0.0577502 α      in ANC's #4, #2, #3, ...

........................................................................
.............................. CYCLE   27 ..............................
........................................................................

 iter      E             dE          RMSdq      gap      omega  full diag
   1    -44.9988018 -0.449988E+02  0.280E-02    3.07       0.0  T
   2    -44.9988022 -0.415389E-06  0.165E-02    3.06       1.1  T
   3    -44.9988019  0.325781E-06  0.448E-03    3.06       4.2  T
   4    -44.9988022 -0.359854E-06  0.160E-03    3.06      11.8  T
   5    -44.9988023 -0.491149E-07  0.452E-04    3.06      41.8  T
   6    -44.9988023 -0.281986E-09  0.152E-04    3.06     124.2  T
     SCC iter.                  ...        0 min,  0.007 sec
     gradient                   ...        0 min,  0.002 sec
 * total energy  :   -44.4804427 Eh     change       -0.2436456E-04 Eh
   gradient norm :     0.0016767 Eh/α   predicted    -0.1885825E-04 ( -22.60%)
   displ. norm   :     0.1379826 α      lambda       -0.1689386E-04
   maximum displ.:     0.0691429 α      in ANC's #2, #3, #4, ...

........................................................................
.............................. CYCLE   28 ..............................
........................................................................

 iter      E             dE          RMSdq      gap      omega  full diag
   1    -44.9986950 -0.449987E+02  0.359E-02    3.07       0.0  T
   2    -44.9986956 -0.579759E-06  0.211E-02    3.07       1.0  T
   3    -44.9986954  0.152469E-06  0.376E-03    3.07       5.0  T
   4    -44.9986956 -0.191214E-06  0.185E-03    3.07      10.2  T
   5    -44.9986957 -0.635284E-07  0.580E-04    3.07      32.6  T
   6    -44.9986957 -0.696303E-09  0.132E-04    3.07     143.0  T
     SCC iter.                  ...        0 min,  0.007 sec
     gradient                   ...        0 min,  0.002 sec
 * total energy  :   -44.4804605 Eh     change       -0.1782645E-04 Eh
   gradient norm :     0.0022428 Eh/α   predicted    -0.8520655E-05 ( -52.20%)
   displ. norm   :     0.0719621 α      lambda       -0.1830251E-04
   maximum displ.:     0.0398996 α      in ANC's #3, #2, #5, ...

........................................................................
.............................. CYCLE   29 ..............................
........................................................................

 iter      E             dE          RMSdq      gap      omega  full diag
   1    -44.9989025 -0.449989E+02  0.181E-02    3.07       0.0  T
   2    -44.9989027 -0.216916E-06  0.106E-02    3.07       1.8  T
   3    -44.9989027  0.154152E-07  0.190E-03    3.07      10.0  T
   4    -44.9989027 -0.376043E-07  0.682E-04    3.07      27.7  T
   5    -44.9989027 -0.655857E-08  0.330E-04    3.07      57.3  T
     SCC iter.                  ...        0 min,  0.006 sec
     gradient                   ...        0 min,  0.002 sec
 * total energy  :   -44.4804759 Eh     change       -0.1543712E-04 Eh
   gradient norm :     0.0016807 Eh/α   predicted    -0.9201497E-05 ( -40.39%)
   displ. norm   :     0.2374943 α      lambda       -0.3181245E-04
   maximum displ.:     0.1372575 α      in ANC's #3, #2, #5, ...

........................................................................
.............................. CYCLE   30 ..............................
........................................................................

 iter      E             dE          RMSdq      gap      omega  full diag
   1    -44.9984060 -0.449984E+02  0.623E-02    3.07       0.0  T
   2    -44.9984086 -0.256640E-05  0.364E-02    3.07       1.0  T
   3    -44.9984087 -0.691677E-07  0.512E-03    3.07       3.7  T
   4    -44.9984089 -0.179491E-06  0.174E-03    3.07      10.9  T
   5    -44.9984089 -0.235906E-07  0.104E-03    3.07      18.2  T
   6    -44.9984089 -0.908280E-08  0.433E-04    3.07      43.7  T
   7    -44.9984089 -0.198859E-08  0.112E-04    3.07     169.3  T
     SCC iter.                  ...        0 min,  0.008 sec
     gradient                   ...        0 min,  0.006 sec
 * total energy  :   -44.4805035 Eh     change       -0.2757013E-04 Eh
   gradient norm :     0.0023623 Eh/α   predicted    -0.1630772E-04 ( -40.85%)
   displ. norm   :     0.0588710 α      lambda       -0.1291566E-04
   maximum displ.:     0.0368850 α      in ANC's #3, #5, #2, ...

........................................................................
.............................. CYCLE   31 ..............................
........................................................................

 iter      E             dE          RMSdq      gap      omega  full diag
   1    -44.9987792 -0.449988E+02  0.158E-02    3.07       0.0  T
   2    -44.9987793 -0.986491E-07  0.927E-03    3.07       2.0  T
   3    -44.9987793  0.471166E-08  0.118E-03    3.07      16.0  T
   4    -44.9987793 -0.189424E-07  0.416E-04    3.07      45.4  T
   5    -44.9987793 -0.150681E-08  0.259E-04    3.07      73.1  T
     SCC iter.                  ...        0 min,  0.013 sec
     gradient                   ...        0 min,  0.002 sec
 * total energy  :   -44.4805147 Eh     change       -0.1118784E-04 Eh
   gradient norm :     0.0017674 Eh/α   predicted    -0.6483342E-05 ( -42.05%)
   displ. norm   :     0.2358858 α      lambda       -0.2963742E-04
   maximum displ.:     0.1486109 α      in ANC's #3, #2, #5, ...

........................................................................
.............................. CYCLE   32 ..............................
........................................................................

 iter      E             dE          RMSdq      gap      omega  full diag
   1    -44.9988501 -0.449989E+02  0.647E-02    3.07       0.0  T
   2    -44.9988514 -0.132535E-05  0.381E-02    3.07       1.0  T
   3    -44.9988514 -0.389614E-07  0.366E-03    3.07       5.2  T
   4    -44.9988516 -0.149266E-06  0.155E-03    3.07      12.2  T
   5    -44.9988516 -0.197598E-07  0.961E-04    3.07      19.7  T
   6    -44.9988516 -0.825910E-08  0.309E-04    3.07      61.2  T
     SCC iter.                  ...        0 min,  0.014 sec
     gradient                   ...        0 min,  0.007 sec
 * total energy  :   -44.4805403 Eh     change       -0.2562097E-04 Eh
   gradient norm :     0.0020668 Eh/α   predicted    -0.1518647E-04 ( -40.73%)
   displ. norm   :     0.0707948 α      lambda       -0.8163287E-05
   maximum displ.:     0.0446405 α      in ANC's #3, #2, #5, ...

........................................................................
.............................. CYCLE   33 ..............................
........................................................................

 iter      E             dE          RMSdq      gap      omega  full diag
   1    -44.9989519 -0.449990E+02  0.191E-02    3.07       0.0  T
   2    -44.9989520 -0.759463E-07  0.112E-02    3.07       1.7  T
   3    -44.9989520  0.186223E-07  0.144E-03    3.07      13.1  T
   4    -44.9989520 -0.357076E-07  0.594E-04    3.07      31.8  T
   5    -44.9989520 -0.488769E-08  0.284E-04    3.07      66.6  T
     SCC iter.                  ...        0 min,  0.017 sec
     gradient                   ...        0 min,  0.005 sec
 * total energy  :   -44.4805466 Eh     change       -0.6320877E-05 Eh
   gradient norm :     0.0012940 Eh/α   predicted    -0.4104225E-05 ( -35.07%)
   displ. norm   :     0.1317627 α      lambda       -0.9441424E-05
   maximum displ.:     0.0852067 α      in ANC's #3, #2, #5, ...

........................................................................
.............................. CYCLE   34 ..............................
........................................................................

 iter      E             dE          RMSdq      gap      omega  full diag
   1    -44.9990486 -0.449990E+02  0.358E-02    3.08       0.0  T
   2    -44.9990488 -0.201116E-06  0.211E-02    3.08       1.0  T
   3    -44.9990488 -0.317435E-07  0.144E-03    3.08      13.1  T
   4    -44.9990489 -0.248673E-07  0.719E-04    3.07      26.3  T
   5    -44.9990489 -0.740982E-09  0.473E-04    3.08      40.0  T
     SCC iter.                  ...        0 min,  0.006 sec
     gradient                   ...        0 min,  0.002 sec
 * total energy  :   -44.4805561 Eh     change       -0.9431788E-05 Eh
   gradient norm :     0.0008259 Eh/α   predicted    -0.4759851E-05 ( -49.53%)
   displ. norm   :     0.0754066 α      lambda       -0.5464555E-05
   maximum displ.:     0.0507911 α      in ANC's #3, #2, #5, ...

........................................................................
.............................. CYCLE   35 ..............................
........................................................................

 iter      E             dE          RMSdq      gap      omega  full diag
   1    -44.9991249 -0.449991E+02  0.220E-02    3.08       0.0  T
   2    -44.9991249 -0.808832E-07  0.129E-02    3.08       1.5  T
   3    -44.9991250 -0.219990E-07  0.812E-04    3.08      23.3  T
   4    -44.9991250 -0.388785E-08  0.458E-04    3.08      41.2  T
     SCC iter.                  ...        0 min,  0.005 sec
     gradient                   ...        0 min,  0.002 sec
 * total energy  :   -44.4805626 Eh     change       -0.6564935E-05 Eh
   gradient norm :     0.0007976 Eh/α   predicted    -0.2742945E-05 ( -58.22%)
   displ. norm   :     0.1176379 α      lambda       -0.7924355E-05
   maximum displ.:     0.0799162 α      in ANC's #3, #2, #4, ...

........................................................................
.............................. CYCLE   36 ..............................
........................................................................

 iter      E             dE          RMSdq      gap      omega  full diag
   1    -44.9989274 -0.449989E+02  0.340E-02    3.08       0.0  T
   2    -44.9989276 -0.155152E-06  0.199E-02    3.08       1.0  T
   3    -44.9989276 -0.446568E-07  0.144E-03    3.08      13.1  T
   4    -44.9989277 -0.143663E-07  0.944E-04    3.08      20.0  T
   5    -44.9989277 -0.865090E-08  0.439E-04    3.08      43.1  T
     SCC iter.                  ...        0 min,  0.006 sec
     gradient                   ...        0 min,  0.002 sec
 * total energy  :   -44.4805712 Eh     change       -0.8541753E-05 Eh
   gradient norm :     0.0006363 Eh/α   predicted    -0.3990745E-05 ( -53.28%)
   displ. norm   :     0.1025094 α      lambda       -0.5545169E-05
   maximum displ.:     0.0698495 α      in ANC's #3, #2, #1, ...

........................................................................
.............................. CYCLE   37 ..............................
........................................................................

 iter      E             dE          RMSdq      gap      omega  full diag
   1    -44.9989422 -0.449989E+02  0.299E-02    3.09       0.0  T
   2    -44.9989423 -0.125432E-06  0.175E-02    3.09       1.1  T
   3    -44.9989424 -0.475757E-07  0.113E-03    3.09      16.7  T
   4    -44.9989424 -0.718087E-08  0.688E-04    3.09      27.5  T
   5    -44.9989424 -0.511307E-09  0.413E-04    3.09      45.8  T
     SCC iter.                  ...        0 min,  0.006 sec
     gradient                   ...        0 min,  0.002 sec
 * total energy  :   -44.4805771 Eh     change       -0.5918821E-05 Eh
   gradient norm :     0.0007797 Eh/α   predicted    -0.2787353E-05 ( -52.91%)
   displ. norm   :     0.0933874 α      lambda       -0.4190159E-05
   maximum displ.:     0.0647291 α      in ANC's #3, #2, #1, ...

........................................................................
.............................. CYCLE   38 ..............................
........................................................................

 iter      E             dE          RMSdq      gap      omega  full diag
   1    -44.9988409 -0.449988E+02  0.265E-02    3.09       0.0  T
   2    -44.9988411 -0.119762E-06  0.155E-02    3.09       1.2  T
   3    -44.9988411 -0.226592E-07  0.123E-03    3.09      15.4  T
   4    -44.9988411 -0.154353E-07  0.765E-04    3.09      24.7  T
   5    -44.9988411 -0.609172E-08  0.399E-04    3.09      47.4  T
     SCC iter.                  ...        0 min,  0.006 sec
     gradient                   ...        0 min,  0.002 sec
 * total energy  :   -44.4805818 Eh     change       -0.4692424E-05 Eh
   gradient norm :     0.0006790 Eh/α   predicted    -0.2105453E-05 ( -55.13%)
   displ. norm   :     0.0647476 α      lambda       -0.3287840E-05
   maximum displ.:     0.0442120 α      in ANC's #3, #2, #1, ...

   *** GEOMETRY OPTIMIZATION CONVERGED AFTER 38 ITERATIONS ***

------------------------------------------------------------------------
 total energy gain   :        -0.0356699 Eh      -22.3832 kcal/mol
 total RMSD          :         0.9173231 a0        0.4854 Å
 total power (kW/mol):        -2.4645096 (step) -181.9628 (real)
------------------------------------------------------------------------

 ANCopt (total)                0 d,  0 h,  0 min,  0.515 sec
 optimizer setup                ...        0 min,  0.000 sec (  0.026%)
 model hessian                  ...        0 min,  0.020 sec (  3.871%)
 ANC generation                 ...        0 min,  0.003 sec (  0.548%)
 coordinate transformation      ...        0 min,  0.000 sec (  0.075%)
 single point calculation       ...        0 min,  0.465 sec ( 90.403%)
 optimization log               ...        0 min,  0.010 sec (  1.985%)
 hessian update                 ...        0 min,  0.008 sec (  1.592%)
 rational function              ...        0 min,  0.004 sec (  0.730%)

================
 final structure:
================
28
 xtb: 6.7.1 (edcfbbe)
C            4.70520943903751        0.44196364776030        0.32228857139380
C            3.61731221454616       -0.52814171398093       -0.00999709231666
C            3.77377742932101       -1.84748984097469       -0.02419240672585
C            2.31496649194863        0.10524576711097       -0.35406528550750
O            2.16314421171413        1.28811040636279       -0.52588763325265
O            1.31697272862633       -0.79118215863009       -0.46339878584742
C            0.02993085940645       -0.28118407609058       -0.78363050663889
C           -0.66355407336821        0.29714768094153        0.46088820550456
N           -2.08180631239158        0.40673376904272        0.27775076645309
C           -2.96308996898448       -0.72937777590020        0.42725936631529
C           -4.35650926181591       -0.09917413355129        0.28175054333524
N           -4.08770548663323        1.29239144328703        0.55722095017955
C           -2.75458526403518        1.59444712588079        0.43284560075008
O           -2.26294008026632        2.69497995416029        0.46946898521066
H            5.65207283969261       -0.06959219065115        0.46813529741702
H            4.80145086338011        1.17312281621509       -0.47791405020878
H            4.44839153971673        0.98981202722506        1.22795990479288
H            2.96420740850821       -2.50929255392515       -0.27575094592493
H            4.72122660018779       -2.30159280670798        0.21462368206557
H            0.11653487924339        0.48849414020113       -1.55631534547310
H           -0.52652015740217       -1.13805462461129       -1.16941407916764
H           -0.28278693222177        1.30254152980793        0.65941488421839
H           -0.43822009519589       -0.35204768928038        1.31874573662490
H           -2.77001261461365       -1.48539326247318       -0.33801218705226
H           -2.83190577190972       -1.19288613003082        1.41532276148010
H           -5.07408743418484       -0.50668378866381        0.99836410215951
H           -4.75298467070850       -0.24364804865949       -0.73221321942164
H           -4.77849038159719        2.00075048613402        0.37697917963912
 
 Bond Distances (Angstroems)
 ---------------------------
C1-C2=1.4950         C1-H15=1.0861        C1-H16=1.0882        C1-H17=1.0892        C2-C1=1.4950         C2-C3=1.3287         
C2-C4=1.4885         C3-C2=1.3287         C3-H18=1.0755        C3-H19=1.0775        C4-C2=1.4885         C4-O5=1.2049         
C4-O6=1.3459         O5-C4=1.2049         O6-C4=1.3459         O6-C7=1.4210         C7-O6=1.4210         C7-C8=1.5376         
C7-H20=1.0941        C7-H21=1.0921        C8-C7=1.5376         C8-N9=1.4342         C8-H22=1.0933        C8-H23=1.0992        
N9-C8=1.4342         N9-C10=1.4456        N9-C13=1.3738        C10-N9=1.4456        C10-C11=1.5362       C10-H24=1.0929       
C10-H25=1.0992       C11-C10=1.5362       C11-N12=1.4438       C11-H26=1.0929       C11-H27=1.0983       N12-C11=1.4438       
N12-C13=1.3726       N12-H28=1.0057       C13-N9=1.3738        C13-N12=1.3726       C13-O14=1.2059       O14-C13=1.2059       
H15-C1=1.0861        H16-C1=1.0882        H17-C1=1.0892        H18-C3=1.0755        H19-C3=1.0775        H20-C7=1.0941        
H21-C7=1.0921        H22-C8=1.0933        H23-C8=1.0992        H24-C10=1.0929       H25-C10=1.0992       H26-C11=1.0929       
H27-C11=1.0983       H28-N12=1.0057       
 C  H  Rav=1.0906 sigma=0.0072  Rmin=1.0755  Rmax=1.0992    13
 C  C  Rav=1.4772 sigma=0.0770  Rmin=1.3287  Rmax=1.5376     5
 N  H  Rav=1.0057 sigma=0.0000  Rmin=1.0057  Rmax=1.0057     1
 N  C  Rav=1.4140 sigma=0.0336  Rmin=1.3726  Rmax=1.4456     5
 O  C  Rav=1.2944 sigma=0.0929  Rmin=1.2049  Rmax=1.4210     4
 
 selected bond angles (degree)
 --------------------
H15-C1-C2=111.02               H16-C1-C2=109.69               H16-C1-H15=109.76              H17-C1-C2=109.85               
H17-C1-H15=109.32              H17-C1-H16=107.12              C3-C2-C1=124.13                C4-C2-C1=114.33                
C4-C2-C3=121.54                H18-C3-C2=121.66               H19-C3-C2=121.31               H19-C3-H18=117.03              
O5-C4-C2=124.12                O6-C4-C2=112.59                O6-C4-O5=123.29                C7-O6-C4=116.80                
C8-C7-O6=111.17                H20-C7-O6=109.87               H20-C7-C8=110.04               H21-C7-O6=105.04               
H21-C7-C8=110.56               H21-C7-H20=110.05              N9-C8-C7=111.80                H22-C8-C7=109.62               
H22-C8-N9=107.30               H23-C8-C7=108.49               H23-C8-N9=110.34               H23-C8-H22=109.27              
C10-N9-C8=121.98               C13-N9-C8=122.41               C13-N9-C10=111.67              C11-C10-N9=102.75              
H24-C10-N9=111.32              H24-C10-C11=112.19             H25-C10-N9=110.59              H25-C10-C11=111.49             
H25-C10-H24=108.46             
 
 selected dihedral angles (degree)
 ---------------------------------
C3-C2-C1-H15=  4.68           C3-C2-C1-H16=126.16           C3-C2-C1-H17=243.65           C4-C2-C1-H15=185.60           
C4-C2-C1-H16=307.08           C4-C2-C1-H17= 64.57           H18-C3-C2-C1=180.41           H18-C3-C2-C4=359.43           
H19-C3-C2-C1=  0.28           H19-C3-C2-C4=179.30           O5-C4-C2-C1=  9.16            O5-C4-C2-C3=190.05            
O6-C4-C2-C1=188.72            O6-C4-C2-C3=  9.61            C7-O6-C4-C2=179.70            C7-O6-C4-O5=359.26            
C8-C7-O6-C4=280.01            H20-C7-O6-C4= 42.07           H21-C7-O6-C4=160.40           N9-C8-C7-O6=199.18            
N9-C8-C7-H20= 77.22           N9-C8-C7-H21=315.44           H22-C8-C7-O6= 80.33           H22-C8-C7-H20=318.37          
H22-C8-C7-H21=196.59          H23-C8-C7-O6=321.08           H23-C8-C7-H20=199.12          H23-C8-C7-H21= 77.34          
C10-N9-C8-C7= 80.23           C10-N9-C8-H22=200.45          C10-N9-C8-H23=319.40          C13-N9-C8-C7=236.00           
C13-N9-C8-H22=356.22          C13-N9-C8-H23=115.17          C11-C10-N9-C8=174.47          C11-C10-N9-C13= 16.37         
H24-C10-N9-C8=294.74          H24-C10-N9-C13=136.63         H25-C10-N9-C8= 55.37          H25-C10-N9-C13=257.27         
           -------------------------------------------------
          |                Final Singlepoint                |
           -------------------------------------------------

          ...................................................
          :                      SETUP                      :
          :.................................................:
          :  # basis functions                  70          :
          :  # atomic orbitals                  70          :
          :  # shells                           42          :
          :  # electrons                        78          :
          :  max. iterations                   250          :
          :  Hamiltonian                  GFN2-xTB          :
          :  restarted?                      false          :
          :  GBSA solvation                  false          :
          :  PC potential                    false          :
          :  electronic temp.          300.0000000     K    :
          :  accuracy                    1.0000000          :
          :  -> integral cutoff          0.2500000E+02      :
          :  -> integral neglect         0.1000000E-07      :
          :  -> SCF convergence          0.1000000E-05 Eh   :
          :  -> wf. convergence          0.1000000E-03 e    :
          :  Broyden damping             0.4000000          :
          :  net charge                          0          :
          :  unpaired electrons                  0          :
          ...................................................

 iter      E             dE          RMSdq      gap      omega  full diag
   1    -44.9988411 -0.449988E+02  0.119E-04    3.09       0.0  T
   2    -44.9988411 -0.735909E-10  0.731E-05    3.09     258.5  T
   3    -44.9988411 -0.226024E-10  0.505E-05    3.09     374.5  T

   *** convergence criteria satisfied after 3 iterations ***

         #    Occupation            Energy/Eh            Energy/eV
      -------------------------------------------------------------
         1        2.0000           -0.7425640             -20.2062
       ...           ...                  ...                  ...
        33        2.0000           -0.4529856             -12.3264
        34        2.0000           -0.4494965             -12.2314
        35        2.0000           -0.4184593             -11.3869
        36        2.0000           -0.4114798             -11.1969
        37        2.0000           -0.4065543             -11.0629
        38        2.0000           -0.3967363             -10.7957
        39        2.0000           -0.3834503             -10.4342 (HOMO)
        40                         -0.2699097              -7.3446 (LUMO)
        41                         -0.1786187              -4.8605
        42                         -0.1636491              -4.4531
        43                         -0.0366779              -0.9981
        44                          0.0110680               0.3012
       ...                                ...                  ...
        70                          0.7034050              19.1406
      -------------------------------------------------------------
                  HL-Gap            0.1135407 Eh            3.0896 eV
             Fermi-level           -0.3266800 Eh           -8.8894 eV

 SCC (total)                   0 d,  0 h,  0 min,  0.007 sec
 SCC setup                      ...        0 min,  0.000 sec (  3.836%)
 Dispersion                     ...        0 min,  0.000 sec (  1.662%)
 classical contributions        ...        0 min,  0.000 sec (  0.618%)
 integral evaluation            ...        0 min,  0.001 sec (  8.801%)
 iterations                     ...        0 min,  0.003 sec ( 49.382%)
 molecular gradient             ...        0 min,  0.002 sec ( 30.319%)
 printout                       ...        0 min,  0.000 sec (  5.037%)

         :::::::::::::::::::::::::::::::::::::::::::::::::::::
         ::                     SUMMARY                     ::
         :::::::::::::::::::::::::::::::::::::::::::::::::::::
         :: total energy             -44.480581793605 Eh    ::
         :: gradient norm              0.000679167298 Eh/a0 ::
         :: HOMO-LUMO gap              3.089598543412 eV    ::
         ::.................................................::
         :: SCC energy               -44.998921762588 Eh    ::
         :: -> isotropic ES            0.091376362965 Eh    ::
         :: -> anisotropic ES          0.004087143805 Eh    ::
         :: -> anisotropic XC          0.013264245314 Eh    ::
         :: -> dispersion             -0.021878635152 Eh    ::
         :: repulsion energy           0.518339968983 Eh    ::
         :: add. restraining           0.000000000000 Eh    ::
         :: total charge               0.000000000000 e     ::
         :::::::::::::::::::::::::::::::::::::::::::::::::::::

           -------------------------------------------------
          |                Property Printout                |
           -------------------------------------------------

    * Orbital Energies and Occupations

         #    Occupation            Energy/Eh            Energy/eV
      -------------------------------------------------------------
         1        2.0000           -0.7425640             -20.2062
       ...           ...                  ...                  ...
        27        2.0000           -0.4957782             -13.4908
        28        2.0000           -0.4898520             -13.3296
        29        2.0000           -0.4867256             -13.2445
        30        2.0000           -0.4862135             -13.2305
        31        2.0000           -0.4682976             -12.7430
        32        2.0000           -0.4575257             -12.4499
        33        2.0000           -0.4529856             -12.3264
        34        2.0000           -0.4494965             -12.2314
        35        2.0000           -0.4184593             -11.3869
        36        2.0000           -0.4114798             -11.1969
        37        2.0000           -0.4065543             -11.0629
        38        2.0000           -0.3967363             -10.7957
        39        2.0000           -0.3834503             -10.4342 (HOMO)
        40                         -0.2699097              -7.3446 (LUMO)
        41                         -0.1786187              -4.8605
        42                         -0.1636491              -4.4531
        43                         -0.0366779              -0.9981
        44                          0.0110680               0.3012
        45                          0.0379342               1.0322
        46                          0.0445472               1.2122
        47                          0.0693813               1.8880
        48                          0.0893017               2.4300
        49                          0.1054841               2.8704
        50                          0.1123060               3.0560
       ...                                ...                  ...
        70                          0.7034050              19.1406
      -------------------------------------------------------------
                  HL-Gap            0.1135407 Eh            3.0896 eV
             Fermi-level           -0.3266800 Eh           -8.8894 eV

     #   Z          covCN         q      C6AA      α(0)
     1   6 C        3.759    -0.112    22.688     6.791
     2   6 C        2.937    -0.007    28.189     8.708
     3   6 C        2.844    -0.083    30.060     8.986
     4   6 C        2.726     0.349    21.068     7.514
     5   8 O        0.856    -0.402    21.726     6.249
     6   8 O        1.704    -0.271    18.497     5.807
     7   6 C        3.702     0.072    19.531     6.319
     8   6 C        3.740    -0.001    20.672     6.487
     9   7 N        2.782    -0.139    24.007     7.277
    10   6 C        3.790     0.002    20.562     6.458
    11   6 C        3.783     0.007    20.472     6.445
    12   7 N        2.736    -0.216    25.715     7.531
    13   6 C        2.757     0.327    21.445     7.583
    14   8 O        0.858    -0.456    22.832     6.406
    15   1 H        0.925     0.052     2.300     2.371
    16   1 H        0.925     0.071     2.079     2.255
    17   1 H        0.925     0.064     2.155     2.296
    18   1 H        0.926     0.061     2.185     2.312
    19   1 H        0.926     0.056     2.240     2.341
    20   1 H        0.924     0.067     2.118     2.276
    21   1 H        0.924     0.057     2.233     2.337
    22   1 H        0.924     0.093     1.848     2.126
    23   1 H        0.923     0.044     2.394     2.420
    24   1 H        0.924     0.048     2.351     2.398
    25   1 H        0.923     0.044     2.395     2.420
    26   1 H        0.924     0.054     2.266     2.354
    27   1 H        0.923     0.041     2.434     2.440
    28   1 H        0.860     0.177     1.228     1.736

 Mol. C6AA /au·bohr⁶  :       7535.110658
 Mol. C8AA /au·bohr⁸  :     167350.319107
 Mol. α(0) /au        :        130.642477


Wiberg/Mayer (AO) data.
largest (>0.10) Wiberg bond orders for each atom

 ---------------------------------------------------------------------------
     #   Z sym  total        # sym  WBO       # sym  WBO       # sym  WBO
 ---------------------------------------------------------------------------
     1   6 C    3.993 --     2 C    1.030    15 H    0.984    16 H    0.967
                            17 H    0.965
     2   6 C    3.986 --     3 C    1.878     1 C    1.030     4 C    0.993
     3   6 C    3.988 --     2 C    1.878    19 H    0.974    18 H    0.973
     4   6 C    3.915 --     5 O    1.742     6 O    1.104     2 C    0.993
     5   8 O    2.045 --     4 C    1.742     6 O    0.168
     6   8 O    2.294 --     4 C    1.104     7 C    0.953     5 O    0.168
     7   6 C    3.931 --     8 C    0.981    21 H    0.970    20 H    0.968
                             6 O    0.953
     8   6 C    3.970 --     9 N    1.002     7 C    0.981    23 H    0.965
                            22 H    0.963
     9   7 N    3.395 --    13 C    1.130     8 C    1.002    10 C    0.996
                            14 O    0.149
    10   6 C    3.980 --    11 C    0.997     9 N    0.996    24 H    0.972
                            25 H    0.968
    11   6 C    3.979 --    12 N    1.007    10 C    0.997    26 H    0.973
                            27 H    0.970
    12   7 N    3.326 --    13 C    1.139    11 C    1.007    28 H    0.941
                            14 O    0.148
    13   6 C    3.960 --    14 O    1.637    12 N    1.139     9 N    1.130
    14   8 O    1.987 --    13 C    1.637     9 N    0.149    12 N    0.148
    15   1 H    0.997 --     1 C    0.984
    16   1 H    0.995 --     1 C    0.967
    17   1 H    0.996 --     1 C    0.965
    18   1 H    0.996 --     3 C    0.973
    19   1 H    0.997 --     3 C    0.974
    20   1 H    0.995 --     7 C    0.968
    21   1 H    0.996 --     7 C    0.970
    22   1 H    0.991 --     8 C    0.963
    23   1 H    0.998 --     8 C    0.965
    24   1 H    0.998 --    10 C    0.972
    25   1 H    0.998 --    10 C    0.968
    26   1 H    0.997 --    11 C    0.973
    27   1 H    0.998 --    11 C    0.970
    28   1 H    0.968 --    12 N    0.941
 ---------------------------------------------------------------------------

Topologies differ in total number of bonds
Writing topology from bond orders to xtbtopo.mol

molecular dipole:
                 x           y           z       tot (Debye)
 q only:       -0.551      -2.077       0.084
   full:       -0.766      -2.340       0.009       6.257
molecular quadrupole (traceless):
                xx          xy          yy          xz          yz          zz
 q only:       21.769       3.489     -17.526       2.980      -0.907      -4.243
  q+dip:       22.664       2.159     -19.900       4.173      -1.767      -2.764
   full:       23.075       2.326     -21.133       3.902      -1.527      -1.942

           -------------------------------------------------
          |                Geometry Summary                 |
           -------------------------------------------------

      molecular mass/u    :      198.2194148
   center of mass at/Å    :       -0.1069541       0.2947380       0.0735101
  moments of inertia/u·Å² :        0.2651437E+03   0.1848826E+04   0.2043074E+04
rotational constants/cm⁻¹ :        0.6357923E-01   0.9118019E-02   0.8251113E-02

 * 26 selected distances

     #   Z          #   Z                                           value/Å
     2   6 C        3   6 C                                       1.3286695
     4   6 C        5   8 O                                       1.2048825
     4   6 C        6   8 O                                       1.3459304
     6   8 O        7   6 C                                       1.4209587
     7   6 C        8   6 C                                       1.5376008 (max)
     8   6 C        9   7 N                                       1.4342204
     9   7 N       10   6 C                                       1.4456014
    10   6 C       11   6 C                                       1.5362120
    11   6 C       12   7 N                                       1.4438125
     9   7 N       13   6 C                                       1.3738083
    12   7 N       13   6 C                                       1.3725585
    13   6 C       14   8 O                                       1.2059142
     1   6 C       15   1 H                                       1.0860530
     1   6 C       16   1 H                                       1.0882006
     1   6 C       17   1 H                                       1.0891896
     3   6 C       18   1 H                                       1.0754852
     3   6 C       19   1 H                                       1.0774520
     7   6 C       20   1 H                                       1.0940507
     7   6 C       21   1 H                                       1.0921053
     8   6 C       22   1 H                                       1.0932582
     8   6 C       23   1 H                                       1.0991587
    10   6 C       24   1 H                                       1.0929223
    10   6 C       25   1 H                                       1.0992355
    11   6 C       26   1 H                                       1.0929400
    11   6 C       27   1 H                                       1.0982660
    12   7 N       28   1 H                                       1.0057055 (min)

 * 5 distinct bonds (by element types)

   Z      Z             #   av. dist./Å        max./Å        min./Å
   1 H    6 C          13     1.0906398     1.0992355     1.0754852
   6 C    6 C           3     1.4674941     1.5376008     1.3286695
   1 H    7 N           1     1.0057055     1.0057055     1.0057055
   6 C    7 N           5     1.4140002     1.4456014     1.3725585
   6 C    8 O           4     1.2944215     1.4209587     1.2048825


optimized geometry written to: xtbopt.xyz


           -------------------------------------------------
          | TOTAL ENERGY              -44.480581793605 Eh   |
          | GRADIENT NORM               0.000679167298 Eh/α |
          | HOMO-LUMO GAP               3.089598543412 eV   |
           -------------------------------------------------

------------------------------------------------------------------------
 * finished run on 2025/12/01 at 14:18:40.730     
------------------------------------------------------------------------
 total:
 * wall-time:     0 d,  0 h,  0 min,  0.555 sec
 *  cpu-time:     0 d,  0 h,  0 min, 12.540 sec
 * ratio c/w:    22.590 speedup
 SCF:
 * wall-time:     0 d,  0 h,  0 min,  0.025 sec
 *  cpu-time:     0 d,  0 h,  0 min,  0.555 sec
 * ratio c/w:    22.638 speedup
 ANC optimizer:
 * wall-time:     0 d,  0 h,  0 min,  0.523 sec
 *  cpu-time:     0 d,  0 h,  0 min, 11.857 sec
 * ratio c/w:    22.681 speedup

normal termination of xtb
