      -----------------------------------------------------------      
     |                   =====================                   |     
     |                           x T B                           |     
     |                   =====================                   |     
     |                         S. Grimme                         |     
     |          Mulliken Center for Theoretical Chemistry        |     
     |                    University of Bonn                     |     
      -----------------------------------------------------------      

   * xtb version 6.7.1 (edcfbbe) compiled by 'albert@albert-system' on 2024-07-22

   xtb is free software: you can redistribute it and/or modify it under
   the terms of the GNU Lesser General Public License as published by
   the Free Software Foundation, either version 3 of the License, or
   (at your option) any later version.
   
   xtb is distributed in the hope that it will be useful,
   but WITHOUT ANY WARRANTY; without even the implied warranty of
   MERCHANTABILITY or FITNESS FOR A PARTICULAR PURPOSE.  See the
   GNU Lesser General Public License for more details.
   
   Cite this work as:
   * C. Bannwarth, E. Caldeweyher, S. Ehlert, A. Hansen, P. Pracht,
     J. Seibert, S. Spicher, S. Grimme, WIREs Comput. Mol. Sci., 2020, 11,
     e01493. DOI: 10.1002/wcms.1493
   
   for GFN2-xTB:
   * C. Bannwarth, S. Ehlert and S. Grimme., J. Chem. Theory Comput., 2019,
     15, 1652-1671. DOI: 10.1021/acs.jctc.8b01176
   for GFN1-xTB:
   * S. Grimme, C. Bannwarth, P. Shushkov, J. Chem. Theory Comput., 2017,
     13, 1989-2009. DOI: 10.1021/acs.jctc.7b00118
   for GFN0-xTB:
   * P. Pracht, E. Caldeweyher, S. Ehlert, S. Grimme, ChemRxiv, 2019, preprint.
     DOI: 10.26434/chemrxiv.8326202.v1
   for GFN-FF:
   * S. Spicher and S. Grimme, Angew. Chem. Int. Ed., 2020, 59, 15665-15673.
     DOI: 10.1002/anie.202004239
   
   for ALPB and GBSA implicit solvation:
   * S. Ehlert, M. Stahn, S. Spicher, S. Grimme, J. Chem. Theory Comput.,
     2021, 17, 4250-4261. DOI: 10.1021/acs.jctc.1c00471
   
   for ddCOSMO and CPCM-X implicit solvation:
   * M. Stahn, S. Ehlert, S. Grimme, J. Phys. Chem. A,
     2023, XX, XXXX-XXXX. DOI: 10.1021/acs.jpca.3c04382
   
   for DFT-D4:
   * E. Caldeweyher, C. Bannwarth and S. Grimme, J. Chem. Phys., 2017,
     147, 034112. DOI: 10.1063/1.4993215
   * E. Caldeweyher, S. Ehlert, A. Hansen, H. Neugebauer, S. Spicher,
     C. Bannwarth and S. Grimme, J. Chem. Phys., 2019, 150, 154122.
     DOI: 10.1063/1.5090222
   * E. Caldeweyher, J.-M. Mewes, S. Ehlert and S. Grimme, Phys. Chem. Chem. Phys.
     2020, 22, 8499-8512. DOI: 10.1039/D0CP00502A
   
   for sTDA-xTB:
   * S. Grimme and C. Bannwarth, J. Chem. Phys., 2016, 145, 054103.
     DOI: 10.1063/1.4959605
   
   in the mass-spec context:
   * V. Asgeirsson, C. Bauer and S. Grimme, Chem. Sci., 2017, 8, 4879.
     DOI: 10.1039/c7sc00601b
   * J. Koopman and S. Grimme, ACS Omega 2019, 4, 12, 15120-15133.
     DOI: 10.1021/acsomega.9b02011
   
   for metadynamics refer to:
   * S. Grimme, J. Chem. Theory Comput., 2019, 155, 2847-2862
     DOI: 10.1021/acs.jctc.9b00143
   
   for SPH calculations refer to:
   * S. Spicher and S. Grimme, J. Chem. Theory Comput., 2021, 17, 1701-1714
     DOI: 10.1021/acs.jctc.0c01306
   
   for ONIOM refer to:
   * C. Plett, A. Katbashev, S. Ehlert, S. Grimme, M. Bursch,
     Phys. Chem. Chem. Phys., 2023, 25, 17860-17868. DOI: 10.1039/D3CP02178E
   
   for DIPRO refer to:
   * J. Kohn, N. Gildemeister, S. Grimme, D. Fazzi, A. Hansen,
     J. Chem. Phys., 2023, just accepted.
   
   for PTB refer to:
   * S. Grimme, M. Mueller, A. Hansen, J. Chem. Phys., 2023, 158, 124111.
     DOI: 10.1063/5.0137838
   
   with help from (in alphabetical order)
   P. Atkinson, C. Bannwarth, F. Bohle, G. Brandenburg, E. Caldeweyher
   M. Checinski, S. Dohm, S. Ehlert, S. Ehrlich, I. Gerasimov, C. Hölzer
   A. Katbashev, J. Kohn, J. Koopman, C. Lavigne, S. Lehtola, F. März, M. Müller,
   F. Musil, H. Neugebauer, J. Pisarek, C. Plett, P. Pracht, F. Pultar,
   J. Seibert, P. Shushkov, S. Spicher, M. Stahn, M. Steiner, T. Strunk,
   J. Stückrath, T. Rose, and J. Unsleber
   
 * started run on 2025/12/01 at 14:18:50.231     
   ID    Z sym.   atoms
    1    8 O      1, 13, 15, 23
    2    6 C      2, 3, 5-12, 14, 16-22, 24, 25
    3   16 S      4
    4    1 H      26-47

           -------------------------------------------------
          |                Calculation Setup                |
           -------------------------------------------------

          program call               : xtb pipeline_data/3_conformer_xyz/acrylates/rdkit/PUUAYUBAIZMECZ-JLHYYAGUSA-N_conf182.xyz --opt --gfn 2-xTB --iterations 250
          coordinate file            : pipeline_data/3_conformer_xyz/acrylates/rdkit/PUUAYUBAIZMECZ-JLHYYAGUSA-N_conf182.xyz
          omp threads                :                    24

########################################################################
[WARNING] Please study the warnings concerning your input carefully
-1- readin_getIntValue: could not parse '2-xTB'
########################################################################

           -------------------------------------------------
          |                 G F N 2 - x T B                 |
           -------------------------------------------------

        Reference                      10.1021/acs.jctc.8b01176
      * Hamiltonian:
        H0-scaling (s, p, d)           1.850000    2.230000    2.230000
        zeta-weighting                 0.500000
      * Dispersion:
        s8                             2.700000
        a1                             0.520000
        a2                             5.000000
        s9                             5.000000
      * Repulsion:
        kExp                           1.500000    1.000000
        rExp                           1.000000
      * Coulomb:
        alpha                          2.000000
        third order                    shell-resolved
        anisotropic                    true
        a3                             3.000000
        a5                             4.000000
        cn-shift                       1.200000
        cn-exp                         4.000000
        max-rad                        5.000000

q/qsh data taken from xtbrestart
CAMM data taken from xtbrestart

          ...................................................
          :                      SETUP                      :
          :.................................................:
          :  # basis functions                 128          :
          :  # atomic orbitals                 127          :
          :  # shells                           73          :
          :  # electrons                       132          :
          :  max. iterations                   250          :
          :  Hamiltonian                  GFN2-xTB          :
          :  restarted?                       true          :
          :  GBSA solvation                  false          :
          :  PC potential                    false          :
          :  electronic temp.          300.0000000     K    :
          :  accuracy                    1.0000000          :
          :  -> integral cutoff          0.2500000E+02      :
          :  -> integral neglect         0.1000000E-07      :
          :  -> SCF convergence          0.1000000E-05 Eh   :
          :  -> wf. convergence          0.1000000E-03 e    :
          :  Broyden damping             0.4000000          :
          :  net charge                          0          :
          :  unpaired electrons                  0          :
          ...................................................

 iter      E             dE          RMSdq      gap      omega  full diag
   1    -74.4462795 -0.744463E+02  0.473E+00    1.80       0.0  T
   2    -74.4609425 -0.146630E-01  0.272E+00    1.87       1.0  T
   3    -74.4536719  0.727060E-02  0.594E-01    1.43       1.0  T
   4    -74.4634505 -0.977855E-02  0.311E-01    1.42       1.0  T
   5    -74.4656581 -0.220765E-02  0.119E-01    1.47       1.0  T
   6    -74.4658583 -0.200213E-03  0.528E-02    1.48       1.0  T
   7    -74.4659033 -0.449526E-04  0.249E-02    1.49       1.0  T
   8    -74.4659094 -0.613554E-05  0.964E-03    1.49       1.5  T
   9    -74.4659102 -0.806451E-06  0.378E-03    1.49       3.9  T
  10    -74.4659103 -0.688784E-07  0.177E-03    1.49       8.2  T
  11    -74.4659103 -0.327218E-07  0.818E-04    1.49      17.8  T
  12    -74.4659103 -0.510364E-08  0.351E-04    1.49      41.6  T

   *** convergence criteria satisfied after 12 iterations ***

         #    Occupation            Energy/Eh            Energy/eV
      -------------------------------------------------------------
         1        2.0000           -0.7289978             -19.8370
       ...           ...                  ...                  ...
        60        2.0000           -0.4291637             -11.6781
        61        2.0000           -0.4179514             -11.3730
        62        2.0000           -0.4164577             -11.3324
        63        2.0000           -0.4130826             -11.2406
        64        2.0000           -0.4066151             -11.0646
        65        2.0000           -0.3900992             -10.6151
        66        2.0000           -0.3672355              -9.9930 (HOMO)
        67                         -0.3126373              -8.5073 (LUMO)
        68                         -0.2511401              -6.8339
        69                         -0.2472905              -6.7291
        70                         -0.2354066              -6.4057
        71                         -0.2331400              -6.3441
       ...                                ...                  ...
       127                          0.7174193              19.5220
      -------------------------------------------------------------
                  HL-Gap            0.0545982 Eh            1.4857 eV
             Fermi-level           -0.3399364 Eh           -9.2501 eV

 SCC (total)                   0 d,  0 h,  0 min,  0.060 sec
 SCC setup                      ...        0 min,  0.000 sec (  0.609%)
 Dispersion                     ...        0 min,  0.001 sec (  1.086%)
 classical contributions        ...        0 min,  0.000 sec (  0.489%)
 integral evaluation            ...        0 min,  0.009 sec ( 14.796%)
 iterations                     ...        0 min,  0.043 sec ( 72.090%)
 molecular gradient             ...        0 min,  0.006 sec ( 10.353%)
 printout                       ...        0 min,  0.000 sec (  0.517%)

         :::::::::::::::::::::::::::::::::::::::::::::::::::::
         ::                     SUMMARY                     ::
         :::::::::::::::::::::::::::::::::::::::::::::::::::::
         :: total energy             -73.450942701155 Eh    ::
         :: gradient norm              0.165793982037 Eh/a0 ::
         :: HOMO-LUMO gap              1.485692178717 eV    ::
         ::.................................................::
         :: SCC energy               -74.465482379100 Eh    ::
         :: -> isotropic ES            0.091662305008 Eh    ::
         :: -> anisotropic ES          0.002834452443 Eh    ::
         :: -> anisotropic XC          0.025850638799 Eh    ::
         :: -> dispersion             -0.050880610894 Eh    ::
         :: repulsion energy           1.014539677944 Eh    ::
         :: add. restraining           0.000000000000 Eh    ::
         :: total charge               0.000000000000 e     ::
         :::::::::::::::::::::::::::::::::::::::::::::::::::::

      ----------------------------------------------------------- 
     |                   =====================                   |
     |                        A N C O P T                        |
     |                   =====================                   |
     |               Approximate Normal Coordinate               |
     |                Rational Function Optimizer                |
      ----------------------------------------------------------- 
      ----------------------------------------------------------- 
     |                   =====================                   |
     |                        A N C O P T                        |
     |                   =====================                   |
     |               Approximate Normal Coordinate               |
     |                Rational Function Optimizer                |
      ----------------------------------------------------------- 

          ...................................................
          :                      SETUP                      :
          :.................................................:
          :   optimization level            normal          :
          :   max. optcycles                   200          :
          :   ANC micro-cycles                  20          :
          :   degrees of freedom               135          :
          :.................................................:
          :   RF solver                   davidson          :
          :   write xtbopt.log                true          :
          :   linear?                        false          :
          :   energy convergence         0.5000000E-05 Eh   :
          :   grad. convergence          0.1000000E-02 Eh/α :
          :   maxmium RF displ.          1.0000000          :
          :   Hlow (freq-cutoff)         0.1000000E-01      :
          :   Hmax (freq-cutoff)         5.0000000          :
          :   S6 in model hess.         20.0000000          :
          ...................................................

generating ANC from exact Hessian ...
Using Lindh-Hessian (1995)
 Shifting diagonal of input Hessian by   9.905087820026233E-003
 Lowest  eigenvalues of input Hessian
    0.000000    0.000000    0.000000    0.000000    0.000000    0.000000
    0.010000    0.010093    0.010319    0.010576    0.010990    0.011441
    0.011524    0.011898    0.012485    0.012769    0.013218    0.015020
 Highest eigenvalues
    1.987637    2.023246    2.049455    2.072052    2.083683    2.182928
 

........................................................................
.............................. CYCLE    1 ..............................
........................................................................

 iter      E             dE          RMSdq      gap      omega  full diag
   1    -74.4659103 -0.744659E+02  0.160E-04    1.49       0.0  T
   2    -74.4659103 -0.194319E-09  0.966E-05    1.49     151.0  T
   3    -74.4659103 -0.113488E-09  0.688E-05    1.49     211.9  T
     SCC iter.                  ...        0 min,  0.010 sec
     gradient                   ...        0 min,  0.007 sec
 * total energy  :   -73.4509427 Eh     change       -0.1086320E-08 Eh
   gradient norm :     0.1657964 Eh/α   predicted     0.0000000E+00 (-100.00%)
   displ. norm   :     0.3713074 α      lambda       -0.3327634E-01
   maximum displ.:     0.1106023 α      in ANC's #40, #37, #32, ...

........................................................................
.............................. CYCLE    2 ..............................
........................................................................

 iter      E             dE          RMSdq      gap      omega  full diag
   1    -74.4821473 -0.744821E+02  0.291E-01    1.56       0.0  T
   2    -74.4826683 -0.521039E-03  0.180E-01    1.55       1.0  T
   3    -74.4826504  0.179305E-04  0.763E-02    1.55       1.0  T
   4    -74.4827172 -0.668639E-04  0.247E-02    1.55       1.0  T
   5    -74.4827372 -0.199944E-04  0.809E-03    1.55       1.8  T
   6    -74.4827380 -0.826406E-06  0.371E-03    1.55       3.9  T
   7    -74.4827382 -0.123673E-06  0.204E-03    1.55       7.2  T
   8    -74.4827382 -0.677207E-07  0.909E-04    1.55      16.0  T
   9    -74.4827382 -0.123209E-07  0.337E-04    1.55      43.2  T
     SCC iter.                  ...        0 min,  0.027 sec
     gradient                   ...        0 min,  0.007 sec
 * total energy  :   -73.4738823 Eh     change       -0.2293964E-01 Eh
   gradient norm :     0.0679053 Eh/α   predicted    -0.1894938E-01 ( -17.39%)
   displ. norm   :     0.3187781 α      lambda       -0.1005388E-01
   maximum displ.:     0.1024300 α      in ANC's #23, #45, #27, ...

........................................................................
.............................. CYCLE    3 ..............................
........................................................................

 iter      E             dE          RMSdq      gap      omega  full diag
   1    -74.4901160 -0.744901E+02  0.184E-01    1.61       0.0  T
   2    -74.4904074 -0.291411E-03  0.115E-01    1.61       1.0  T
   3    -74.4904143 -0.692930E-05  0.524E-02    1.59       1.0  T
   4    -74.4904345 -0.201570E-04  0.164E-02    1.60       1.0  T
   5    -74.4904441 -0.954861E-05  0.550E-03    1.59       2.7  T
   6    -74.4904448 -0.765401E-06  0.238E-03    1.60       6.1  T
   7    -74.4904449 -0.892384E-07  0.143E-03    1.60      10.2  T
   8    -74.4904449 -0.343610E-07  0.624E-04    1.60      23.4  T
   9    -74.4904449 -0.432071E-08  0.234E-04    1.60      62.2  T
     SCC iter.                  ...        0 min,  0.028 sec
     gradient                   ...        0 min,  0.007 sec
 * total energy  :   -73.4798691 Eh     change       -0.5986707E-02 Eh
   gradient norm :     0.0172769 Eh/α   predicted    -0.5541927E-02 (  -7.43%)
   displ. norm   :     0.2406029 α      lambda       -0.1637263E-02
   maximum displ.:     0.0931421 α      in ANC's #13, #23, #10, ...

........................................................................
.............................. CYCLE    4 ..............................
........................................................................

 iter      E             dE          RMSdq      gap      omega  full diag
   1    -74.4887741 -0.744888E+02  0.775E-02    1.60       0.0  T
   2    -74.4887855 -0.114445E-04  0.469E-02    1.61       1.0  T
   3    -74.4887781  0.745597E-05  0.162E-02    1.60       1.0  T
   4    -74.4887876 -0.953634E-05  0.479E-03    1.61       3.0  T
   5    -74.4887884 -0.764746E-06  0.195E-03    1.61       7.5  T
   6    -74.4887885 -0.857007E-07  0.867E-04    1.61      16.8  T
   7    -74.4887885 -0.399828E-08  0.482E-04    1.61      30.2  T
     SCC iter.                  ...        0 min,  0.021 sec
     gradient                   ...        0 min,  0.006 sec
 * total energy  :   -73.4810694 Eh     change       -0.1200367E-02 Eh
   gradient norm :     0.0110992 Eh/α   predicted    -0.8660516E-03 ( -27.85%)
   displ. norm   :     0.3270804 α      lambda       -0.1221753E-02
   maximum displ.:     0.1366387 α      in ANC's #13, #10, #23, ...

........................................................................
.............................. CYCLE    5 ..............................
........................................................................

 iter      E             dE          RMSdq      gap      omega  full diag
   1    -74.4872367 -0.744872E+02  0.984E-02    1.62       0.0  T
   2    -74.4872435 -0.672736E-05  0.583E-02    1.62       1.0  T
   3    -74.4872340  0.944229E-05  0.173E-02    1.62       1.0  T
   4    -74.4872453 -0.112583E-04  0.531E-03    1.62       2.7  T
   5    -74.4872460 -0.727037E-06  0.249E-03    1.62       5.9  T
   6    -74.4872461 -0.118904E-06  0.109E-03    1.62      13.4  T
   7    -74.4872462 -0.227426E-07  0.564E-04    1.62      25.9  T
   8    -74.4872462 -0.399378E-08  0.204E-04    1.62      71.6  T
     SCC iter.                  ...        0 min,  0.025 sec
     gradient                   ...        0 min,  0.007 sec
 * total energy  :   -73.4819157 Eh     change       -0.8462773E-03 Eh
   gradient norm :     0.0119586 Eh/α   predicted    -0.6762314E-03 ( -20.09%)
   displ. norm   :     0.3045611 α      lambda       -0.7082723E-03
   maximum displ.:     0.1254129 α      in ANC's #13, #10, #9, ...

........................................................................
.............................. CYCLE    6 ..............................
........................................................................

 iter      E             dE          RMSdq      gap      omega  full diag
   1    -74.4871344 -0.744871E+02  0.880E-02    1.63       0.0  T
   2    -74.4871385 -0.410282E-05  0.512E-02    1.63       1.0  T
   3    -74.4871334  0.507227E-05  0.139E-02    1.64       1.1  T
   4    -74.4871393 -0.589165E-05  0.534E-03    1.64       2.7  T
   5    -74.4871401 -0.762178E-06  0.242E-03    1.64       6.0  T
   6    -74.4871402 -0.100639E-06  0.829E-04    1.64      17.6  T
   7    -74.4871402 -0.138363E-07  0.423E-04    1.64      34.5  T
     SCC iter.                  ...        0 min,  0.031 sec
     gradient                   ...        0 min,  0.007 sec
 * total energy  :   -73.4824451 Eh     change       -0.5293691E-03 Eh
   gradient norm :     0.0163920 Eh/α   predicted    -0.3869862E-03 ( -26.90%)
   displ. norm   :     0.3691807 α      lambda       -0.8383414E-03
   maximum displ.:     0.1402867 α      in ANC's #13, #7, #10, ...

........................................................................
.............................. CYCLE    7 ..............................
........................................................................

 iter      E             dE          RMSdq      gap      omega  full diag
   1    -74.4888141 -0.744888E+02  0.102E-01    1.64       0.0  T
   2    -74.4888200 -0.590723E-05  0.585E-02    1.65       1.0  T
   3    -74.4888154  0.458761E-05  0.145E-02    1.65       1.0  T
   4    -74.4888207 -0.534453E-05  0.617E-03    1.65       2.4  T
   5    -74.4888217 -0.949804E-06  0.283E-03    1.65       5.1  T
   6    -74.4888219 -0.187242E-06  0.818E-04    1.65      17.8  T
   7    -74.4888219 -0.122755E-07  0.427E-04    1.65      34.2  T
     SCC iter.                  ...        0 min,  0.021 sec
     gradient                   ...        0 min,  0.007 sec
 * total energy  :   -73.4830826 Eh     change       -0.6374873E-03 Eh
   gradient norm :     0.0152938 Eh/α   predicted    -0.4763041E-03 ( -25.28%)
   displ. norm   :     0.3789752 α      lambda       -0.8843143E-03
   maximum displ.:     0.1449430 α      in ANC's #7, #4, #13, ...

........................................................................
.............................. CYCLE    8 ..............................
........................................................................

 iter      E             dE          RMSdq      gap      omega  full diag
   1    -74.4913487 -0.744913E+02  0.104E-01    1.65       0.0  T
   2    -74.4913565 -0.777552E-05  0.603E-02    1.66       1.0  T
   3    -74.4913543  0.220180E-05  0.135E-02    1.66       1.1  T
   4    -74.4913581 -0.377712E-05  0.440E-03    1.66       3.3  T
   5    -74.4913583 -0.214021E-06  0.200E-03    1.66       7.3  T
   6    -74.4913584 -0.105292E-06  0.711E-04    1.66      20.5  T
   7    -74.4913584 -0.145661E-08  0.425E-04    1.66      34.3  T
     SCC iter.                  ...        0 min,  0.021 sec
     gradient                   ...        0 min,  0.005 sec
 * total energy  :   -73.4837603 Eh     change       -0.6777942E-03 Eh
   gradient norm :     0.0142566 Eh/α   predicted    -0.5056633E-03 ( -25.40%)
   displ. norm   :     0.3721150 α      lambda       -0.9252380E-03
   maximum displ.:     0.1734394 α      in ANC's #4, #7, #14, ...

........................................................................
.............................. CYCLE    9 ..............................
........................................................................

 iter      E             dE          RMSdq      gap      omega  full diag
   1    -74.4955612 -0.744956E+02  0.106E-01    1.65       0.0  T
   2    -74.4955666 -0.540064E-05  0.618E-02    1.66       1.0  T
   3    -74.4955610  0.562928E-05  0.146E-02    1.66       1.0  T
   4    -74.4955673 -0.635106E-05  0.541E-03    1.66       2.7  T
   5    -74.4955682 -0.905290E-06  0.230E-03    1.66       6.3  T
   6    -74.4955683 -0.105857E-06  0.777E-04    1.66      18.8  T
   7    -74.4955683 -0.825598E-08  0.401E-04    1.66      36.4  T
     SCC iter.                  ...        0 min,  0.022 sec
     gradient                   ...        0 min,  0.005 sec
 * total energy  :   -73.4843299 Eh     change       -0.5695424E-03 Eh
   gradient norm :     0.0103259 Eh/α   predicted    -0.5266900E-03 (  -7.52%)
   displ. norm   :     0.5328566 α      lambda       -0.1080302E-02
   maximum displ.:     0.2072347 α      in ANC's #4, #7, #25, ...

........................................................................
.............................. CYCLE   10 ..............................
........................................................................

 iter      E             dE          RMSdq      gap      omega  full diag
   1    -74.4885274 -0.744885E+02  0.163E-01    1.65       0.0  T
   2    -74.4885511 -0.237114E-04  0.952E-02    1.66       1.0  T
   3    -74.4885396  0.114865E-04  0.240E-02    1.67       1.0  T
   4    -74.4885557 -0.160494E-04  0.102E-02    1.67       1.4  T
   5    -74.4885585 -0.279435E-05  0.491E-03    1.67       3.0  T
   6    -74.4885588 -0.394486E-06  0.194E-03    1.67       7.5  T
   7    -74.4885589 -0.277705E-07  0.970E-04    1.67      15.0  T
   8    -74.4885589 -0.220775E-07  0.280E-04    1.67      52.1  T
     SCC iter.                  ...        0 min,  0.025 sec
     gradient                   ...        0 min,  0.007 sec
 * total energy  :   -73.4840879 Eh     change        0.2419853E-03 Eh
   gradient norm :     0.0359479 Eh/α   predicted    -0.6935278E-03 (-386.60%)
   displ. norm   :     0.1714673 α      lambda       -0.1666564E-02
   maximum displ.:     0.0767951 α      in ANC's #25, #19, #13, ...

........................................................................
.............................. CYCLE   11 ..............................
........................................................................

 iter      E             dE          RMSdq      gap      omega  full diag
   1    -74.4945464 -0.744945E+02  0.637E-02    1.67       0.0  T
   2    -74.4945559 -0.954518E-05  0.366E-02    1.67       1.0  T
   3    -74.4945570 -0.109905E-05  0.984E-03    1.66       1.5  T
   4    -74.4945580 -0.990390E-06  0.432E-03    1.66       3.4  T
   5    -74.4945582 -0.215744E-06  0.227E-03    1.66       6.4  T
   6    -74.4945583 -0.119816E-06  0.105E-03    1.66      13.9  T
   7    -74.4945584 -0.379754E-08  0.488E-04    1.66      29.9  T
   8    -74.4945584 -0.751156E-08  0.170E-04    1.66      86.0  T
     SCC iter.                  ...        0 min,  0.024 sec
     gradient                   ...        0 min,  0.008 sec
 * total energy  :   -73.4848971 Eh     change       -0.8091615E-03 Eh
   gradient norm :     0.0060406 Eh/α   predicted    -0.8577808E-03 (   6.01%)
   displ. norm   :     0.1662255 α      lambda       -0.2045003E-03
   maximum displ.:     0.0898945 α      in ANC's #4, #7, #9, ...

........................................................................
.............................. CYCLE   12 ..............................
........................................................................

 iter      E             dE          RMSdq      gap      omega  full diag
   1    -74.4943759 -0.744944E+02  0.517E-02    1.66       0.0  T
   2    -74.4943766 -0.678503E-06  0.303E-02    1.66       1.0  T
   3    -74.4943755  0.108060E-05  0.529E-03    1.66       2.8  T
   4    -74.4943768 -0.127188E-05  0.182E-03    1.66       8.0  T
   5    -74.4943768 -0.632175E-07  0.951E-04    1.66      15.3  T
   6    -74.4943769 -0.207503E-07  0.336E-04    1.66      43.4  T
     SCC iter.                  ...        0 min,  0.019 sec
     gradient                   ...        0 min,  0.006 sec
 * total energy  :   -73.4850748 Eh     change       -0.1776915E-03 Eh
   gradient norm :     0.0047435 Eh/α   predicted    -0.1050804E-03 ( -40.86%)
   displ. norm   :     0.4520233 α      lambda       -0.4747909E-03
   maximum displ.:     0.2445685 α      in ANC's #4, #8, #7, ...

........................................................................
.............................. CYCLE   13 ..............................
........................................................................

 iter      E             dE          RMSdq      gap      omega  full diag
   1    -74.4937011 -0.744937E+02  0.144E-01    1.67       0.0  T
   2    -74.4937058 -0.469263E-05  0.844E-02    1.67       1.0  T
   3    -74.4937012  0.456192E-05  0.119E-02    1.67       1.2  T
   4    -74.4937073 -0.611991E-05  0.441E-03    1.67       3.3  T
   5    -74.4937076 -0.274128E-06  0.221E-03    1.67       6.6  T
   6    -74.4937077 -0.963398E-07  0.969E-04    1.67      15.1  T
   7    -74.4937077 -0.146319E-07  0.512E-04    1.67      28.5  T
     SCC iter.                  ...        0 min,  0.023 sec
     gradient                   ...        0 min,  0.007 sec
 * total energy  :   -73.4853756 Eh     change       -0.3008331E-03 Eh
   gradient norm :     0.0059249 Eh/α   predicted    -0.2859117E-03 (  -4.96%)
   displ. norm   :     0.2962285 α      lambda       -0.1747991E-03
   maximum displ.:     0.1759565 α      in ANC's #4, #9, #7, ...

........................................................................
.............................. CYCLE   14 ..............................
........................................................................

 iter      E             dE          RMSdq      gap      omega  full diag
   1    -74.4904436 -0.744904E+02  0.923E-02    1.68       0.0  T
   2    -74.4904449 -0.127558E-05  0.542E-02    1.68       1.0  T
   3    -74.4904434  0.145970E-05  0.629E-03    1.68       2.3  T
   4    -74.4904453 -0.190592E-05  0.227E-03    1.68       6.4  T
   5    -74.4904454 -0.692842E-07  0.108E-03    1.68      13.5  T
   6    -74.4904454 -0.283273E-07  0.499E-04    1.68      29.2  T
   7    -74.4904454 -0.568440E-08  0.228E-04    1.68      64.0  T
     SCC iter.                  ...        0 min,  0.022 sec
     gradient                   ...        0 min,  0.007 sec
 * total energy  :   -73.4854708 Eh     change       -0.9517048E-04 Eh
   gradient norm :     0.0055960 Eh/α   predicted    -0.9507073E-04 (  -0.10%)
   displ. norm   :     0.2752244 α      lambda       -0.2170823E-03
   maximum displ.:     0.1515826 α      in ANC's #4, #5, #8, ...

........................................................................
.............................. CYCLE   15 ..............................
........................................................................

 iter      E             dE          RMSdq      gap      omega  full diag
   1    -74.4949145 -0.744949E+02  0.938E-02    1.69       0.0  T
   2    -74.4949160 -0.145921E-05  0.550E-02    1.69       1.0  T
   3    -74.4949145  0.140981E-05  0.649E-03    1.69       2.2  T
   4    -74.4949163 -0.173685E-05  0.228E-03    1.69       6.4  T
   5    -74.4949164 -0.116173E-06  0.109E-03    1.69      13.3  T
   6    -74.4949164 -0.133188E-07  0.487E-04    1.69      29.9  T
   7    -74.4949164 -0.577489E-08  0.201E-04    1.69      72.6  T
     SCC iter.                  ...        0 min,  0.022 sec
     gradient                   ...        0 min,  0.008 sec
 * total energy  :   -73.4855955 Eh     change       -0.1247580E-03 Eh
   gradient norm :     0.0056008 Eh/α   predicted    -0.1167662E-03 (  -6.41%)
   displ. norm   :     0.2142920 α      lambda       -0.1204906E-03
   maximum displ.:     0.1242263 α      in ANC's #4, #5, #8, ...

........................................................................
.............................. CYCLE   16 ..............................
........................................................................

 iter      E             dE          RMSdq      gap      omega  full diag
   1    -74.4955958 -0.744956E+02  0.758E-02    1.69       0.0  T
   2    -74.4955966 -0.763472E-06  0.444E-02    1.69       1.0  T
   3    -74.4955964  0.164991E-06  0.364E-03    1.69       4.0  T
   4    -74.4955968 -0.368049E-06  0.173E-03    1.69       8.4  T
   5    -74.4955968 -0.441550E-07  0.744E-04    1.69      19.6  T
   6    -74.4955969 -0.129817E-07  0.328E-04    1.69      44.4  T
     SCC iter.                  ...        0 min,  0.018 sec
     gradient                   ...        0 min,  0.008 sec
 * total energy  :   -73.4856885 Eh     change       -0.9300832E-04 Eh
   gradient norm :     0.0044537 Eh/α   predicted    -0.6301409E-04 ( -32.25%)
   displ. norm   :     0.3534770 α      lambda       -0.2024647E-03
   maximum displ.:     0.1850412 α      in ANC's #5, #4, #8, ...

........................................................................
.............................. CYCLE   17 ..............................
........................................................................

 iter      E             dE          RMSdq      gap      omega  full diag
   1    -74.4964717 -0.744965E+02  0.131E-01    1.70       0.0  T
   2    -74.4964742 -0.254726E-05  0.762E-02    1.70       1.0  T
   3    -74.4964741  0.144920E-06  0.676E-03    1.71       2.2  T
   4    -74.4964747 -0.616113E-06  0.335E-03    1.70       4.4  T
   5    -74.4964749 -0.207734E-06  0.988E-04    1.70      14.8  T
   6    -74.4964749 -0.225159E-07  0.432E-04    1.70      33.8  T
     SCC iter.                  ...        0 min,  0.018 sec
     gradient                   ...        0 min,  0.005 sec
 * total energy  :   -73.4858091 Eh     change       -0.1205278E-03 Eh
   gradient norm :     0.0053117 Eh/α   predicted    -0.1138826E-03 (  -5.51%)
   displ. norm   :     0.2828638 α      lambda       -0.1230090E-03
   maximum displ.:     0.1567564 α      in ANC's #5, #4, #8, ...

........................................................................
.............................. CYCLE   18 ..............................
........................................................................

 iter      E             dE          RMSdq      gap      omega  full diag
   1    -74.4956937 -0.744957E+02  0.104E-01    1.70       0.0  T
   2    -74.4956950 -0.137606E-05  0.602E-02    1.71       1.0  T
   3    -74.4956947  0.373935E-06  0.603E-03    1.71       2.4  T
   4    -74.4956950 -0.371290E-06  0.353E-03    1.71       4.1  T
   5    -74.4956954 -0.383967E-06  0.102E-03    1.71      14.3  T
   6    -74.4956955 -0.356611E-07  0.407E-04    1.71      35.8  T
   7    -74.4956955 -0.477469E-08  0.179E-04    1.71      81.4  T
     SCC iter.                  ...        0 min,  0.022 sec
     gradient                   ...        0 min,  0.005 sec
 * total energy  :   -73.4859004 Eh     change       -0.9138962E-04 Eh
   gradient norm :     0.0053978 Eh/α   predicted    -0.6643056E-04 ( -27.31%)
   displ. norm   :     0.3575933 α      lambda       -0.1800954E-03
   maximum displ.:     0.2239133 α      in ANC's #5, #4, #2, ...

........................................................................
.............................. CYCLE   19 ..............................
........................................................................

 iter      E             dE          RMSdq      gap      omega  full diag
   1    -74.4956560 -0.744957E+02  0.128E-01    1.71       0.0  T
   2    -74.4956585 -0.253404E-05  0.729E-02    1.72       1.0  T
   3    -74.4956565  0.201143E-05  0.102E-02    1.72       1.4  T
   4    -74.4956583 -0.174976E-05  0.601E-03    1.72       2.4  T
   5    -74.4956593 -0.103166E-05  0.142E-03    1.72      10.3  T
   6    -74.4956594 -0.822307E-07  0.454E-04    1.72      32.1  T
   7    -74.4956594 -0.503138E-08  0.222E-04    1.72      65.7  T
     SCC iter.                  ...        0 min,  0.021 sec
     gradient                   ...        0 min,  0.007 sec
 * total energy  :   -73.4860495 Eh     change       -0.1490076E-03 Eh
   gradient norm :     0.0053314 Eh/α   predicted    -0.1015636E-03 ( -31.84%)
   displ. norm   :     0.5053558 α      lambda       -0.2987503E-03
   maximum displ.:     0.3261122 α      in ANC's #5, #2, #1, ...

........................................................................
.............................. CYCLE   20 ..............................
........................................................................

 iter      E             dE          RMSdq      gap      omega  full diag
   1    -74.4938756 -0.744939E+02  0.173E-01    1.71       0.0  T
   2    -74.4938814 -0.579809E-05  0.981E-02    1.72       1.0  T
   3    -74.4938756  0.579831E-05  0.165E-02    1.73       1.0  T
   4    -74.4938812 -0.562351E-05  0.911E-03    1.73       1.6  T
   5    -74.4938832 -0.198519E-05  0.219E-03    1.73       6.7  T
   6    -74.4938834 -0.207497E-06  0.706E-04    1.73      20.7  T
   7    -74.4938834 -0.150933E-07  0.327E-04    1.73      44.7  T
     SCC iter.                  ...        0 min,  0.022 sec
     gradient                   ...        0 min,  0.005 sec
 * total energy  :   -73.4862868 Eh     change       -0.2373443E-03 Eh
   gradient norm :     0.0065980 Eh/α   predicted    -0.1875263E-03 ( -20.99%)
   displ. norm   :     0.4713929 α      lambda       -0.3146633E-03
   maximum displ.:     0.3072246 α      in ANC's #5, #2, #1, ...
 * RMSD in coord.:     0.6544927 α      energy gain  -0.3534409E-01 Eh

generating ANC from exact Hessian ...
Using Lindh-Hessian (1995)
 Shifting diagonal of input Hessian by   9.926855529000999E-003
 Lowest  eigenvalues of input Hessian
    0.000000    0.000000    0.000000    0.000000    0.000000    0.010000
    0.000000    0.010108    0.010267    0.010561    0.010965    0.011361
    0.011477    0.011612    0.012158    0.012453    0.012794    0.014724
 Highest eigenvalues
    1.918573    1.987474    2.009556    2.025423    2.082667    2.203975
 

........................................................................
.............................. CYCLE   21 ..............................
........................................................................

 iter      E             dE          RMSdq      gap      omega  full diag
   1    -74.4948862 -0.744949E+02  0.151E-01    1.72       0.0  T
   2    -74.4948923 -0.614227E-05  0.842E-02    1.74       1.0  T
   3    -74.4948861  0.624400E-05  0.172E-02    1.74       1.0  T
   4    -74.4948928 -0.671345E-05  0.893E-03    1.74       1.6  T
   5    -74.4948943 -0.149225E-05  0.225E-03    1.74       6.5  T
   6    -74.4948945 -0.202590E-06  0.849E-04    1.74      17.2  T
   7    -74.4948945 -0.243486E-07  0.367E-04    1.74      39.8  T
     SCC iter.                  ...        0 min,  0.027 sec
     gradient                   ...        0 min,  0.007 sec
 * total energy  :   -73.4865097 Eh     change       -0.2229016E-03 Eh
   gradient norm :     0.0091983 Eh/α   predicted     0.0000000E+00 (-100.00%)
   displ. norm   :     0.0700242 α      lambda       -0.1964821E-03
   maximum displ.:     0.0287069 α      in ANC's #5, #20, #2, ...

........................................................................
.............................. CYCLE   22 ..............................
........................................................................

 iter      E             dE          RMSdq      gap      omega  full diag
   1    -74.4964215 -0.744964E+02  0.309E-02    1.75       0.0  T
   2    -74.4964226 -0.108728E-05  0.182E-02    1.75       1.0  T
   3    -74.4964203  0.222919E-05  0.730E-03    1.75       2.0  T
   4    -74.4964229 -0.251326E-05  0.188E-03    1.75       7.7  T
   5    -74.4964230 -0.103811E-06  0.729E-04    1.75      20.0  T
   6    -74.4964230 -0.649686E-08  0.315E-04    1.75      46.4  T
     SCC iter.                  ...        0 min,  0.033 sec
     gradient                   ...        0 min,  0.005 sec
 * total energy  :   -73.4866590 Eh     change       -0.1493238E-03 Eh
   gradient norm :     0.0047352 Eh/α   predicted    -0.9872296E-04 ( -33.89%)
   displ. norm   :     0.1424489 α      lambda       -0.1845258E-03
   maximum displ.:     0.0687370 α      in ANC's #5, #2, #20, ...

........................................................................
.............................. CYCLE   23 ..............................
........................................................................

 iter      E             dE          RMSdq      gap      omega  full diag
   1    -74.4976865 -0.744977E+02  0.570E-02    1.76       0.0  T
   2    -74.4976888 -0.224825E-05  0.333E-02    1.76       1.0  T
   3    -74.4976856  0.317886E-05  0.873E-03    1.76       1.7  T
   4    -74.4976892 -0.360790E-05  0.281E-03    1.76       5.2  T
   5    -74.4976894 -0.203578E-06  0.127E-03    1.76      11.5  T
   6    -74.4976894 -0.333700E-07  0.505E-04    1.76      28.9  T
   7    -74.4976894 -0.567127E-08  0.217E-04    1.76      67.3  T
     SCC iter.                  ...        0 min,  0.038 sec
     gradient                   ...        0 min,  0.006 sec
 * total energy  :   -73.4867797 Eh     change       -0.1207087E-03 Eh
   gradient norm :     0.0026247 Eh/α   predicted    -0.9413607E-04 ( -22.01%)
   displ. norm   :     0.1340005 α      lambda       -0.8127045E-04
   maximum displ.:     0.0727809 α      in ANC's #5, #2, #6, ...

........................................................................
.............................. CYCLE   24 ..............................
........................................................................

 iter      E             dE          RMSdq      gap      omega  full diag
   1    -74.4977625 -0.744978E+02  0.504E-02    1.76       0.0  T
   2    -74.4977635 -0.101120E-05  0.291E-02    1.77       1.0  T
   3    -74.4977624  0.109469E-05  0.560E-03    1.77       2.6  T
   4    -74.4977637 -0.131417E-05  0.202E-03    1.77       7.2  T
   5    -74.4977638 -0.693517E-07  0.630E-04    1.77      23.1  T
   6    -74.4977638 -0.788467E-08  0.282E-04    1.77      51.8  T
     SCC iter.                  ...        0 min,  0.034 sec
     gradient                   ...        0 min,  0.006 sec
 * total energy  :   -73.4868451 Eh     change       -0.6532402E-04 Eh
   gradient norm :     0.0036062 Eh/α   predicted    -0.4158807E-04 ( -36.34%)
   displ. norm   :     0.2196108 α      lambda       -0.1156297E-03
   maximum displ.:     0.1194370 α      in ANC's #5, #2, #6, ...

........................................................................
.............................. CYCLE   25 ..............................
........................................................................

 iter      E             dE          RMSdq      gap      omega  full diag
   1    -74.4971989 -0.744972E+02  0.789E-02    1.77       0.0  T
   2    -74.4972011 -0.214229E-05  0.452E-02    1.78       1.0  T
   3    -74.4971982  0.282346E-05  0.938E-03    1.78       1.6  T
   4    -74.4972015 -0.324777E-05  0.365E-03    1.78       4.0  T
   5    -74.4972017 -0.217198E-06  0.120E-03    1.78      12.1  T
   6    -74.4972018 -0.416287E-07  0.522E-04    1.78      28.0  T
   7    -74.4972018 -0.866164E-08  0.221E-04    1.78      65.9  T
     SCC iter.                  ...        0 min,  0.032 sec
     gradient                   ...        0 min,  0.006 sec
 * total energy  :   -73.4869377 Eh     change       -0.9266484E-04 Eh
   gradient norm :     0.0042568 Eh/α   predicted    -0.6060366E-04 ( -34.60%)
   displ. norm   :     0.2881983 α      lambda       -0.1321703E-03
   maximum displ.:     0.1572846 α      in ANC's #5, #2, #4, ...

........................................................................
.............................. CYCLE   26 ..............................
........................................................................

 iter      E             dE          RMSdq      gap      omega  full diag
   1    -74.4962560 -0.744963E+02  0.982E-02    1.77       0.0  T
   2    -74.4962590 -0.300736E-05  0.560E-02    1.78       1.0  T
   3    -74.4962544  0.456576E-05  0.122E-02    1.79       1.2  T
   4    -74.4962596 -0.512168E-05  0.495E-03    1.79       2.9  T
   5    -74.4962600 -0.420359E-06  0.158E-03    1.79       9.2  T
   6    -74.4962601 -0.849504E-07  0.598E-04    1.79      24.4  T
   7    -74.4962601 -0.121187E-07  0.245E-04    1.79      59.5  T
     SCC iter.                  ...        0 min,  0.022 sec
     gradient                   ...        0 min,  0.015 sec
 * total energy  :   -73.4870446 Eh     change       -0.1068517E-03 Eh
   gradient norm :     0.0046862 Eh/α   predicted    -0.7157681E-04 ( -33.01%)
   displ. norm   :     0.3278221 α      lambda       -0.1457327E-03
   maximum displ.:     0.1788348 α      in ANC's #5, #2, #4, ...

........................................................................
.............................. CYCLE   27 ..............................
........................................................................

 iter      E             dE          RMSdq      gap      omega  full diag
   1    -74.4955755 -0.744956E+02  0.106E-01    1.79       0.0  T
   2    -74.4955786 -0.313232E-05  0.603E-02    1.80       1.0  T
   3    -74.4955739  0.476880E-05  0.128E-02    1.80       1.1  T
   4    -74.4955792 -0.530536E-05  0.549E-03    1.80       2.7  T
   5    -74.4955797 -0.537955E-06  0.168E-03    1.80       8.7  T
   6    -74.4955798 -0.102116E-06  0.591E-04    1.80      24.7  T
   7    -74.4955798 -0.117209E-07  0.252E-04    1.80      57.9  T
     SCC iter.                  ...        0 min,  0.026 sec
     gradient                   ...        0 min,  0.005 sec
 * total energy  :   -73.4871658 Eh     change       -0.1212237E-03 Eh
   gradient norm :     0.0046556 Eh/α   predicted    -0.8070786E-04 ( -33.42%)
   displ. norm   :     0.3878887 α      lambda       -0.1797856E-03
   maximum displ.:     0.2108582 α      in ANC's #5, #2, #4, ...

........................................................................
.............................. CYCLE   28 ..............................
........................................................................

 iter      E             dE          RMSdq      gap      omega  full diag
   1    -74.4953765 -0.744954E+02  0.121E-01    1.80       0.0  T
   2    -74.4953803 -0.385318E-05  0.689E-02    1.81       1.0  T
   3    -74.4953754  0.489993E-05  0.133E-02    1.82       1.1  T
   4    -74.4953808 -0.542070E-05  0.613E-03    1.82       2.4  T
   5    -74.4953816 -0.721814E-06  0.180E-03    1.82       8.1  T
   6    -74.4953817 -0.113025E-06  0.666E-04    1.82      21.9  T
   7    -74.4953817 -0.151820E-07  0.278E-04    1.82      52.5  T
     SCC iter.                  ...        0 min,  0.023 sec
     gradient                   ...        0 min,  0.005 sec
 * total energy  :   -73.4873142 Eh     change       -0.1483966E-03 Eh
   gradient norm :     0.0046290 Eh/α   predicted    -0.1034178E-03 ( -30.31%)
   displ. norm   :     0.4424746 α      lambda       -0.2070689E-03
   maximum displ.:     0.2401651 α      in ANC's #5, #4, #2, ...

........................................................................
.............................. CYCLE   29 ..............................
........................................................................

 iter      E             dE          RMSdq      gap      omega  full diag
   1    -74.4955473 -0.744955E+02  0.135E-01    1.82       0.0  T
   2    -74.4955518 -0.446826E-05  0.773E-02    1.83       1.0  T
   3    -74.4955475  0.431306E-05  0.130E-02    1.83       1.1  T
   4    -74.4955522 -0.476307E-05  0.636E-03    1.83       2.3  T
   5    -74.4955531 -0.849207E-06  0.171E-03    1.83       8.5  T
   6    -74.4955532 -0.875321E-07  0.770E-04    1.83      18.9  T
   7    -74.4955532 -0.220559E-07  0.289E-04    1.83      50.5  T
     SCC iter.                  ...        0 min,  0.059 sec
     gradient                   ...        0 min,  0.009 sec
 * total energy  :   -73.4874834 Eh     change       -0.1692217E-03 Eh
   gradient norm :     0.0050983 Eh/α   predicted    -0.1238052E-03 ( -26.84%)
   displ. norm   :     0.4785584 α      lambda       -0.2298352E-03
   maximum displ.:     0.2590506 α      in ANC's #5, #4, #2, ...

........................................................................
.............................. CYCLE   30 ..............................
........................................................................

 iter      E             dE          RMSdq      gap      omega  full diag
   1    -74.4963051 -0.744963E+02  0.143E-01    1.83       0.0  T
   2    -74.4963097 -0.453563E-05  0.825E-02    1.85       1.0  T
   3    -74.4963067  0.292238E-05  0.114E-02    1.85       1.3  T
   4    -74.4963101 -0.336706E-05  0.586E-03    1.85       2.5  T
   5    -74.4963109 -0.759830E-06  0.144E-03    1.85      10.2  T
   6    -74.4963109 -0.401327E-07  0.792E-04    1.85      18.4  T
   7    -74.4963109 -0.232244E-07  0.298E-04    1.85      48.9  T
     SCC iter.                  ...        0 min,  0.021 sec
     gradient                   ...        0 min,  0.006 sec
 * total energy  :   -73.4876716 Eh     change       -0.1882141E-03 Eh
   gradient norm :     0.0056848 Eh/α   predicted    -0.1412385E-03 ( -24.96%)
   displ. norm   :     0.5297860 α      lambda       -0.2517541E-03
   maximum displ.:     0.2862835 α      in ANC's #5, #4, #2, ...

........................................................................
.............................. CYCLE   31 ..............................
........................................................................

 iter      E             dE          RMSdq      gap      omega  full diag
   1    -74.4966995 -0.744967E+02  0.155E-01    1.85       0.0  T
   2    -74.4967044 -0.499600E-05  0.899E-02    1.86       1.0  T
   3    -74.4967017  0.273465E-05  0.115E-02    1.87       1.3  T
   4    -74.4967052 -0.346059E-05  0.553E-03    1.87       2.6  T
   5    -74.4967057 -0.574881E-06  0.153E-03    1.87       9.5  T
   6    -74.4967058 -0.475476E-07  0.739E-04    1.87      19.7  T
   7    -74.4967058 -0.150758E-07  0.341E-04    1.87      42.8  T
     SCC iter.                  ...        0 min,  0.020 sec
     gradient                   ...        0 min,  0.005 sec
 * total energy  :   -73.4878786 Eh     change       -0.2069912E-03 Eh
   gradient norm :     0.0058660 Eh/α   predicted    -0.1612101E-03 ( -22.12%)
   displ. norm   :     0.5469005 α      lambda       -0.2554251E-03
   maximum displ.:     0.2928514 α      in ANC's #5, #4, #2, ...

........................................................................
.............................. CYCLE   32 ..............................
........................................................................

 iter      E             dE          RMSdq      gap      omega  full diag
   1    -74.4977710 -0.744978E+02  0.157E-01    1.87       0.0  T
   2    -74.4977761 -0.518848E-05  0.908E-02    1.88       1.0  T
   3    -74.4977734  0.272493E-05  0.115E-02    1.89       1.3  T
   4    -74.4977770 -0.360774E-05  0.523E-03    1.89       2.8  T
   5    -74.4977775 -0.452944E-06  0.155E-03    1.89       9.4  T
   6    -74.4977775 -0.520304E-07  0.647E-04    1.89      22.5  T
   7    -74.4977775 -0.772037E-08  0.325E-04    1.89      44.9  T
     SCC iter.                  ...        0 min,  0.020 sec
     gradient                   ...        0 min,  0.005 sec
 * total energy  :   -73.4880809 Eh     change       -0.2023041E-03 Eh
   gradient norm :     0.0052914 Eh/α   predicted    -0.1659117E-03 ( -17.99%)
   displ. norm   :     0.6285028 α      lambda       -0.2095884E-03
   maximum displ.:     0.3417566 α      in ANC's #5, #2, #4, ...

........................................................................
.............................. CYCLE   33 ..............................
........................................................................

 iter      E             dE          RMSdq      gap      omega  full diag
   1    -74.4925861 -0.744926E+02  0.182E-01    1.88       0.0  T
   2    -74.4925951 -0.898034E-05  0.105E-01    1.90       1.0  T
   3    -74.4925863  0.881803E-05  0.178E-02    1.91       1.0  T
   4    -74.4925966 -0.102576E-04  0.755E-03    1.91       1.9  T
   5    -74.4925975 -0.966461E-06  0.242E-03    1.91       6.0  T
   6    -74.4925977 -0.137588E-06  0.109E-03    1.91      13.3  T
   7    -74.4925977 -0.388441E-07  0.455E-04    1.91      32.0  T
   8    -74.4925977 -0.289413E-08  0.234E-04    1.91      62.3  T
     SCC iter.                  ...        0 min,  0.023 sec
     gradient                   ...        0 min,  0.006 sec
 * total energy  :   -73.4882135 Eh     change       -0.1325867E-03 Eh
   gradient norm :     0.0076385 Eh/α   predicted    -0.1461897E-03 (  10.26%)
   displ. norm   :     0.4270106 α      lambda       -0.3542693E-03
   maximum displ.:     0.1949002 α      in ANC's #2, #5, #4, ...

........................................................................
.............................. CYCLE   34 ..............................
........................................................................

 iter      E             dE          RMSdq      gap      omega  full diag
   1    -74.5049435 -0.745049E+02  0.123E-01    1.92       0.0  T
   2    -74.5049502 -0.667591E-05  0.715E-02    1.92       1.0  T
   3    -74.5049470  0.323655E-05  0.121E-02    1.92       1.2  T
   4    -74.5049513 -0.429892E-05  0.467E-03    1.92       3.1  T
   5    -74.5049516 -0.306814E-06  0.180E-03    1.92       8.1  T
   6    -74.5049517 -0.769467E-07  0.810E-04    1.92      18.0  T
   7    -74.5049517 -0.134970E-07  0.393E-04    1.92      37.2  T
     SCC iter.                  ...        0 min,  0.020 sec
     gradient                   ...        0 min,  0.006 sec
 * total energy  :   -73.4882466 Eh     change       -0.3311002E-04 Eh
   gradient norm :     0.0083907 Eh/α   predicted    -0.2094326E-03 ( 532.54%)
   displ. norm   :     0.3054999 α      lambda       -0.2593764E-03
   maximum displ.:     0.1664376 α      in ANC's #5, #2, #4, ...

........................................................................
.............................. CYCLE   35 ..............................
........................................................................

 iter      E             dE          RMSdq      gap      omega  full diag
   1    -74.4965514 -0.744966E+02  0.937E-02    1.92       0.0  T
   2    -74.4965546 -0.323896E-05  0.535E-02    1.93       1.0  T
   3    -74.4965505  0.413770E-05  0.117E-02    1.93       1.2  T
   4    -74.4965552 -0.477807E-05  0.470E-03    1.93       3.1  T
   5    -74.4965556 -0.359547E-06  0.161E-03    1.93       9.1  T
   6    -74.4965557 -0.730628E-07  0.636E-04    1.93      22.9  T
   7    -74.4965557 -0.139088E-07  0.271E-04    1.93      53.9  T
     SCC iter.                  ...        0 min,  0.021 sec
     gradient                   ...        0 min,  0.006 sec
 * total energy  :   -73.4883967 Eh     change       -0.1500502E-03 Eh
   gradient norm :     0.0050578 Eh/α   predicted    -0.1417941E-03 (  -5.50%)
   displ. norm   :     0.1210963 α      lambda       -0.8421055E-04
   maximum displ.:     0.0596107 α      in ANC's #2, #5, #1, ...

........................................................................
.............................. CYCLE   36 ..............................
........................................................................

 iter      E             dE          RMSdq      gap      omega  full diag
   1    -74.4960572 -0.744961E+02  0.394E-02    1.93       0.0  T
   2    -74.4960584 -0.122032E-05  0.214E-02    1.93       1.0  T
   3    -74.4960569  0.146958E-05  0.763E-03    1.93       1.9  T
   4    -74.4960586 -0.172034E-05  0.282E-03    1.93       5.2  T
   5    -74.4960588 -0.143555E-06  0.105E-03    1.93      13.9  T
   6    -74.4960588 -0.235541E-07  0.371E-04    1.93      39.3  T
   7    -74.4960588 -0.449607E-08  0.154E-04    1.93      94.9  T
     SCC iter.                  ...        0 min,  0.021 sec
     gradient                   ...        0 min,  0.005 sec
 * total energy  :   -73.4884594 Eh     change       -0.6269902E-04 Eh
   gradient norm :     0.0042335 Eh/α   predicted    -0.4272399E-04 ( -31.86%)
   displ. norm   :     0.4131339 α      lambda       -0.1366793E-03
   maximum displ.:     0.2248662 α      in ANC's #2, #5, #1, ...

........................................................................
.............................. CYCLE   37 ..............................
........................................................................

 iter      E             dE          RMSdq      gap      omega  full diag
   1    -74.4960591 -0.744961E+02  0.118E-01    1.93       0.0  T
   2    -74.4960645 -0.536297E-05  0.652E-02    1.95       1.0  T
   3    -74.4960575  0.704031E-05  0.162E-02    1.95       1.0  T
   4    -74.4960656 -0.813447E-05  0.695E-03    1.95       2.1  T
   5    -74.4960663 -0.752761E-06  0.195E-03    1.95       7.5  T
   6    -74.4960664 -0.101484E-06  0.822E-04    1.95      17.7  T
   7    -74.4960665 -0.268155E-07  0.305E-04    1.95      47.8  T
     SCC iter.                  ...        0 min,  0.021 sec
     gradient                   ...        0 min,  0.005 sec
 * total energy  :   -73.4885546 Eh     change       -0.9524419E-04 Eh
   gradient norm :     0.0045827 Eh/α   predicted    -0.8000498E-04 ( -16.00%)
   displ. norm   :     0.3535071 α      lambda       -0.1034449E-03
   maximum displ.:     0.1941161 α      in ANC's #2, #5, #1, ...

........................................................................
.............................. CYCLE   38 ..............................
........................................................................

 iter      E             dE          RMSdq      gap      omega  full diag
   1    -74.4984186 -0.744984E+02  0.989E-02    1.95       0.0  T
   2    -74.4984222 -0.361199E-05  0.548E-02    1.96       1.0  T
   3    -74.4984176  0.459184E-05  0.133E-02    1.96       1.1  T
   4    -74.4984229 -0.534062E-05  0.574E-03    1.96       2.5  T
   5    -74.4984234 -0.486754E-06  0.145E-03    1.96      10.1  T
   6    -74.4984235 -0.555984E-07  0.693E-04    1.96      21.0  T
   7    -74.4984235 -0.189467E-07  0.247E-04    1.96      59.2  T
     SCC iter.                  ...        0 min,  0.021 sec
     gradient                   ...        0 min,  0.005 sec
 * total energy  :   -73.4886317 Eh     change       -0.7713295E-04 Eh
   gradient norm :     0.0038360 Eh/α   predicted    -0.5818833E-04 ( -24.56%)
   displ. norm   :     0.5745191 α      lambda       -0.1105610E-03
   maximum displ.:     0.3055117 α      in ANC's #2, #5, #1, ...

........................................................................
.............................. CYCLE   39 ..............................
........................................................................

 iter      E             dE          RMSdq      gap      omega  full diag
   1    -74.4962500 -0.744963E+02  0.157E-01    1.96       0.0  T
   2    -74.4962580 -0.801427E-05  0.888E-02    1.98       1.0  T
   3    -74.4962490  0.900341E-05  0.184E-02    1.98       1.0  T
   4    -74.4962594 -0.103443E-04  0.823E-03    1.98       1.8  T
   5    -74.4962605 -0.108697E-05  0.215E-03    1.98       6.8  T
   6    -74.4962606 -0.108541E-06  0.104E-03    1.98      14.0  T
   7    -74.4962606 -0.412939E-07  0.397E-04    1.98      36.8  T
   8    -74.4962606 -0.154232E-08  0.219E-04    1.98      66.8  T
     SCC iter.                  ...        0 min,  0.024 sec
     gradient                   ...        0 min,  0.005 sec
 * total energy  :   -73.4887073 Eh     change       -0.7551854E-04 Eh
   gradient norm :     0.0044805 Eh/α   predicted    -0.7352990E-04 (  -2.63%)
   displ. norm   :     0.3684710 α      lambda       -0.1776152E-03
   maximum displ.:     0.2086753 α      in ANC's #2, #1, #5, ...

........................................................................
.............................. CYCLE   40 ..............................
........................................................................

 iter      E             dE          RMSdq      gap      omega  full diag
   1    -74.5050332 -0.745050E+02  0.996E-02    1.99       0.0  T
   2    -74.5050380 -0.488086E-05  0.553E-02    1.99       1.0  T
   3    -74.5050351  0.294287E-05  0.122E-02    1.99       1.2  T
   4    -74.5050389 -0.379193E-05  0.575E-03    2.00       2.5  T
   5    -74.5050393 -0.370890E-06  0.182E-03    2.00       8.0  T
   6    -74.5050393 -0.969199E-07  0.654E-04    2.00      22.3  T
   7    -74.5050394 -0.102651E-07  0.371E-04    2.00      39.3  T
     SCC iter.                  ...        0 min,  0.021 sec
     gradient                   ...        0 min,  0.006 sec
 * total energy  :   -73.4887425 Eh     change       -0.3526639E-04 Eh
   gradient norm :     0.0067554 Eh/α   predicted    -0.1008691E-03 ( 186.02%)
   displ. norm   :     0.3957490 α      lambda       -0.1527275E-03
   maximum displ.:     0.2057309 α      in ANC's #5, #2, #4, ...

........................................................................
.............................. CYCLE   41 ..............................
........................................................................

 iter      E             dE          RMSdq      gap      omega  full diag
   1    -74.4994354 -0.744994E+02  0.112E-01    1.99       0.0  T
   2    -74.4994401 -0.468613E-05  0.635E-02    2.00       1.0  T
   3    -74.4994354  0.462886E-05  0.132E-02    2.00       1.1  T
   4    -74.4994406 -0.520500E-05  0.583E-03    2.01       2.5  T
   5    -74.4994413 -0.640078E-06  0.171E-03    2.01       8.5  T
   6    -74.4994413 -0.636753E-07  0.783E-04    2.01      18.6  T
   7    -74.4994414 -0.221819E-07  0.297E-04    2.01      49.1  T
     SCC iter.                  ...        0 min,  0.020 sec
     gradient                   ...        0 min,  0.005 sec
 * total energy  :   -73.4888205 Eh     change       -0.7793725E-04 Eh
   gradient norm :     0.0035809 Eh/α   predicted    -0.8832790E-04 (  13.33%)
   displ. norm   :     0.2127740 α      lambda       -0.4119944E-04
   maximum displ.:     0.1218019 α      in ANC's #2, #5, #1, ...

........................................................................
.............................. CYCLE   42 ..............................
........................................................................

 iter      E             dE          RMSdq      gap      omega  full diag
   1    -74.4981107 -0.744981E+02  0.579E-02    2.00       0.0  T
   2    -74.4981126 -0.196095E-05  0.322E-02    2.01       1.0  T
   3    -74.4981100  0.267166E-05  0.979E-03    2.01       1.5  T
   4    -74.4981130 -0.305432E-05  0.376E-03    2.01       3.9  T
   5    -74.4981133 -0.227487E-06  0.135E-03    2.01      10.8  T
   6    -74.4981133 -0.451654E-07  0.469E-04    2.01      31.1  T
   7    -74.4981133 -0.659253E-08  0.193E-04    2.01      75.5  T
     SCC iter.                  ...        0 min,  0.019 sec
     gradient                   ...        0 min,  0.005 sec
 * total energy  :   -73.4888417 Eh     change       -0.2127941E-04 Eh
   gradient norm :     0.0032609 Eh/α   predicted    -0.2153270E-04 (   1.19%)
   displ. norm   :     0.1049140 α      lambda       -0.3823790E-04
   maximum displ.:     0.0596742 α      in ANC's #2, #5, #1, ...
 * RMSD in coord.:     1.0216618 α      energy gain  -0.2554951E-02 Eh

generating ANC from exact Hessian ...
Using Lindh-Hessian (1995)
 Shifting diagonal of input Hessian by   9.918131611446434E-003
 Lowest  eigenvalues of input Hessian
    0.000000    0.000000    0.000000    0.000000    0.000000    0.000000
    0.010000    0.010105    0.010294    0.010564    0.010950    0.011411
    0.011566    0.012018    0.012220    0.012617    0.012945    0.014856
 Highest eigenvalues
    1.923817    1.987642    2.010194    2.025088    2.088855    2.205712
 

........................................................................
.............................. CYCLE   43 ..............................
........................................................................

 iter      E             dE          RMSdq      gap      omega  full diag
   1    -74.5003403 -0.745003E+02  0.269E-02    2.01       0.0  T
   2    -74.5003407 -0.430062E-06  0.144E-02    2.01       1.0  T
   3    -74.5003401  0.559003E-06  0.482E-03    2.01       3.0  T
   4    -74.5003408 -0.679981E-06  0.196E-03    2.01       7.4  T
   5    -74.5003408 -0.439700E-07  0.697E-04    2.01      20.9  T
   6    -74.5003409 -0.150179E-07  0.206E-04    2.01      70.8  T
     SCC iter.                  ...        0 min,  0.017 sec
     gradient                   ...        0 min,  0.005 sec
 * total energy  :   -73.4888667 Eh     change       -0.2495201E-04 Eh
   gradient norm :     0.0025602 Eh/α   predicted     0.0000000E+00 (-100.00%)
   displ. norm   :     0.0295614 α      lambda       -0.1394697E-04
   maximum displ.:     0.0138481 α      in ANC's #2, #4, #3, ...

........................................................................
.............................. CYCLE   44 ..............................
........................................................................

 iter      E             dE          RMSdq      gap      omega  full diag
   1    -74.5006072 -0.745006E+02  0.811E-03    2.01       0.0  T
   2    -74.5006073 -0.973305E-07  0.486E-03    2.01       3.0  T
   3    -74.5006072  0.978797E-07  0.171E-03    2.01       8.5  T
   4    -74.5006073 -0.113347E-06  0.464E-04    2.01      31.4  T
   5    -74.5006073 -0.538778E-08  0.204E-04    2.01      71.5  T
     SCC iter.                  ...        0 min,  0.015 sec
     gradient                   ...        0 min,  0.005 sec
 * total energy  :   -73.4888809 Eh     change       -0.1422601E-04 Eh
   gradient norm :     0.0007893 Eh/α   predicted    -0.9025533E-05 ( -36.56%)
   displ. norm   :     0.1254674 α      lambda       -0.2875511E-04
   maximum displ.:     0.0584127 α      in ANC's #2, #4, #5, ...

........................................................................
.............................. CYCLE   45 ..............................
........................................................................

 iter      E             dE          RMSdq      gap      omega  full diag
   1    -74.5009669 -0.745010E+02  0.285E-02    2.01       0.0  T
   2    -74.5009673 -0.403418E-06  0.165E-02    2.01       1.0  T
   3    -74.5009670  0.213442E-06  0.301E-03    2.01       4.8  T
   4    -74.5009673 -0.266274E-06  0.115E-03    2.01      12.7  T
   5    -74.5009673 -0.261612E-07  0.427E-04    2.01      34.2  T
   6    -74.5009673 -0.506226E-08  0.167E-04    2.01      87.3  T
     SCC iter.                  ...        0 min,  0.017 sec
     gradient                   ...        0 min,  0.005 sec
 * total energy  :   -73.4889070 Eh     change       -0.2607195E-04 Eh
   gradient norm :     0.0032229 Eh/α   predicted    -0.1447856E-04 ( -44.47%)
   displ. norm   :     0.0736719 α      lambda       -0.1900139E-04
   maximum displ.:     0.0364940 α      in ANC's #2, #4, #5, ...

........................................................................
.............................. CYCLE   46 ..............................
........................................................................

 iter      E             dE          RMSdq      gap      omega  full diag
   1    -74.5008704 -0.745009E+02  0.159E-02    2.01       0.0  T
   2    -74.5008704 -0.833359E-07  0.900E-03    2.01       1.6  T
   3    -74.5008703  0.150102E-06  0.225E-03    2.01       6.5  T
   4    -74.5008705 -0.172310E-06  0.919E-04    2.01      15.9  T
   5    -74.5008705 -0.108669E-07  0.353E-04    2.01      41.3  T
     SCC iter.                  ...        0 min,  0.014 sec
     gradient                   ...        0 min,  0.005 sec
 * total energy  :   -73.4889243 Eh     change       -0.1728380E-04 Eh
   gradient norm :     0.0027998 Eh/α   predicted    -0.9552902E-05 ( -44.73%)
   displ. norm   :     0.1843347 α      lambda       -0.4688918E-04
   maximum displ.:     0.0928833 α      in ANC's #2, #4, #5, ...

........................................................................
.............................. CYCLE   47 ..............................
........................................................................

 iter      E             dE          RMSdq      gap      omega  full diag
   1    -74.5004836 -0.745005E+02  0.405E-02    2.01       0.0  T
   2    -74.5004843 -0.698760E-06  0.227E-02    2.01       1.0  T
   3    -74.5004831  0.120042E-05  0.644E-03    2.01       2.3  T
   4    -74.5004845 -0.139437E-05  0.256E-03    2.01       5.7  T
   5    -74.5004845 -0.754629E-07  0.976E-04    2.01      14.9  T
   6    -74.5004846 -0.324031E-07  0.262E-04    2.01      55.6  T
     SCC iter.                  ...        0 min,  0.017 sec
     gradient                   ...        0 min,  0.005 sec
 * total energy  :   -73.4889612 Eh     change       -0.3689785E-04 Eh
   gradient norm :     0.0012725 Eh/α   predicted    -0.2424718E-04 ( -34.29%)
   displ. norm   :     0.3106025 α      lambda       -0.3628902E-04
   maximum displ.:     0.1618950 α      in ANC's #2, #4, #5, ...

........................................................................
.............................. CYCLE   48 ..............................
........................................................................

 iter      E             dE          RMSdq      gap      omega  full diag
   1    -74.4996635 -0.744997E+02  0.705E-02    2.01       0.0  T
   2    -74.4996657 -0.212560E-05  0.387E-02    2.02       1.0  T
   3    -74.4996629  0.280787E-05  0.105E-02    2.02       1.4  T
   4    -74.4996661 -0.325912E-05  0.470E-03    2.02       3.1  T
   5    -74.4996664 -0.292763E-06  0.155E-03    2.02       9.4  T
   6    -74.4996665 -0.829821E-07  0.443E-04    2.02      32.9  T
   7    -74.4996665 -0.375687E-08  0.225E-04    2.02      64.8  T
     SCC iter.                  ...        0 min,  0.019 sec
     gradient                   ...        0 min,  0.005 sec
 * total energy  :   -73.4889952 Eh     change       -0.3403087E-04 Eh
   gradient norm :     0.0029929 Eh/α   predicted    -0.1892370E-04 ( -44.39%)
   displ. norm   :     0.1018273 α      lambda       -0.2194098E-04
   maximum displ.:     0.0556978 α      in ANC's #2, #4, #3, ...

........................................................................
.............................. CYCLE   49 ..............................
........................................................................

 iter      E             dE          RMSdq      gap      omega  full diag
   1    -74.5000270 -0.745000E+02  0.259E-02    2.02       0.0  T
   2    -74.5000273 -0.292400E-06  0.138E-02    2.02       1.1  T
   3    -74.5000271  0.207659E-06  0.339E-03    2.02       4.3  T
   4    -74.5000273 -0.250281E-06  0.174E-03    2.02       8.4  T
   5    -74.5000274 -0.440916E-07  0.414E-04    2.02      35.2  T
   6    -74.5000274 -0.589893E-08  0.169E-04    2.02      86.3  T
     SCC iter.                  ...        0 min,  0.016 sec
     gradient                   ...        0 min,  0.006 sec
 * total energy  :   -73.4890152 Eh     change       -0.1994558E-04 Eh
   gradient norm :     0.0023962 Eh/α   predicted    -0.1108470E-04 ( -44.43%)
   displ. norm   :     0.2854678 α      lambda       -0.6380262E-04
   maximum displ.:     0.1576540 α      in ANC's #2, #4, #3, ...

........................................................................
.............................. CYCLE   50 ..............................
........................................................................

 iter      E             dE          RMSdq      gap      omega  full diag
   1    -74.5005764 -0.745006E+02  0.759E-02    2.02       0.0  T
   2    -74.5005789 -0.240810E-05  0.401E-02    2.02       1.0  T
   3    -74.5005779  0.931831E-06  0.890E-03    2.02       1.6  T
   4    -74.5005791 -0.113829E-05  0.504E-03    2.03       2.9  T
   5    -74.5005795 -0.434689E-06  0.104E-03    2.02      14.0  T
   6    -74.5005795 -0.344870E-07  0.490E-04    2.02      29.8  T
   7    -74.5005795 -0.860264E-08  0.183E-04    2.02      79.9  T
     SCC iter.                  ...        0 min,  0.025 sec
     gradient                   ...        0 min,  0.006 sec
 * total energy  :   -73.4890646 Eh     change       -0.4948070E-04 Eh
   gradient norm :     0.0016448 Eh/α   predicted    -0.3451252E-04 ( -30.25%)
   displ. norm   :     0.4876502 α      lambda       -0.4739060E-04
   maximum displ.:     0.2753248 α      in ANC's #2, #4, #3, ...

........................................................................
.............................. CYCLE   51 ..............................
........................................................................

 iter      E             dE          RMSdq      gap      omega  full diag
   1    -74.4996480 -0.744996E+02  0.128E-01    2.02       0.0  T
   2    -74.4996545 -0.646644E-05  0.680E-02    2.03       1.0  T
   3    -74.4996526  0.187600E-05  0.143E-02    2.03       1.0  T
   4    -74.4996548 -0.221149E-05  0.848E-03    2.03       1.7  T
   5    -74.4996562 -0.139358E-05  0.162E-03    2.03       9.0  T
   6    -74.4996563 -0.794639E-07  0.785E-04    2.03      18.6  T
   7    -74.4996563 -0.210144E-07  0.314E-04    2.03      46.4  T
     SCC iter.                  ...        0 min,  0.019 sec
     gradient                   ...        0 min,  0.006 sec
 * total energy  :   -73.4891045 Eh     change       -0.3985396E-04 Eh
   gradient norm :     0.0029469 Eh/α   predicted    -0.2620139E-04 ( -34.26%)
   displ. norm   :     0.0782820 α      lambda       -0.2298312E-04
   maximum displ.:     0.0462412 α      in ANC's #2, #3, #4, ...

........................................................................
.............................. CYCLE   52 ..............................
........................................................................

 iter      E             dE          RMSdq      gap      omega  full diag
   1    -74.5006144 -0.745006E+02  0.220E-02    2.03       0.0  T
   2    -74.5006146 -0.176426E-06  0.120E-02    2.03       1.2  T
   3    -74.5006146  0.618638E-07  0.241E-03    2.03       6.1  T
   4    -74.5006146 -0.851939E-07  0.137E-03    2.03      10.6  T
   5    -74.5006147 -0.355069E-07  0.257E-04    2.03      56.8  T
   6    -74.5006147 -0.136289E-08  0.137E-04    2.03     106.4  T
     SCC iter.                  ...        0 min,  0.017 sec
     gradient                   ...        0 min,  0.005 sec
 * total energy  :   -73.4891233 Eh     change       -0.1878182E-04 Eh
   gradient norm :     0.0020651 Eh/α   predicted    -0.1156353E-04 ( -38.43%)
   displ. norm   :     0.2692028 α      lambda       -0.4712596E-04
   maximum displ.:     0.1659560 α      in ANC's #2, #4, #3, ...

........................................................................
.............................. CYCLE   53 ..............................
........................................................................

 iter      E             dE          RMSdq      gap      omega  full diag
   1    -74.5011559 -0.745012E+02  0.716E-02    2.03       0.0  T
   2    -74.5011577 -0.184126E-05  0.388E-02    2.03       1.0  T
   3    -74.5011573  0.401222E-06  0.757E-03    2.03       1.9  T
   4    -74.5011578 -0.462181E-06  0.459E-03    2.04       3.2  T
   5    -74.5011582 -0.459198E-06  0.849E-04    2.03      17.2  T
   6    -74.5011583 -0.185809E-07  0.452E-04    2.03      32.3  T
     SCC iter.                  ...        0 min,  0.017 sec
     gradient                   ...        0 min,  0.006 sec
 * total energy  :   -73.4891595 Eh     change       -0.3622804E-04 Eh
   gradient norm :     0.0012450 Eh/α   predicted    -0.2527133E-04 ( -30.24%)
   displ. norm   :     0.4195397 α      lambda       -0.3545753E-04
   maximum displ.:     0.2645191 α      in ANC's #2, #3, #4, ...

........................................................................
.............................. CYCLE   54 ..............................
........................................................................

 iter      E             dE          RMSdq      gap      omega  full diag
   1    -74.5000573 -0.745001E+02  0.110E-01    2.03       0.0  T
   2    -74.5000615 -0.420844E-05  0.596E-02    2.04       1.0  T
   3    -74.5000608  0.731660E-06  0.113E-02    2.04       1.3  T
   4    -74.5000615 -0.689462E-06  0.697E-03    2.04       2.1  T
   5    -74.5000627 -0.117298E-05  0.128E-03    2.04      11.4  T
   6    -74.5000627 -0.462061E-07  0.615E-04    2.04      23.7  T
   7    -74.5000627 -0.936862E-08  0.290E-04    2.04      50.3  T
     SCC iter.                  ...        0 min,  0.019 sec
     gradient                   ...        0 min,  0.005 sec
 * total energy  :   -73.4891966 Eh     change       -0.3714965E-04 Eh
   gradient norm :     0.0022528 Eh/α   predicted    -0.1912072E-04 ( -48.53%)
   displ. norm   :     0.1157525 α      lambda       -0.1900973E-04
   maximum displ.:     0.0754733 α      in ANC's #2, #3, #6, ...

........................................................................
.............................. CYCLE   55 ..............................
........................................................................

 iter      E             dE          RMSdq      gap      omega  full diag
   1    -74.5004266 -0.745004E+02  0.306E-02    2.04       0.0  T
   2    -74.5004269 -0.256865E-06  0.169E-02    2.04       1.0  T
   3    -74.5004268  0.541586E-07  0.287E-03    2.04       5.1  T
   4    -74.5004269 -0.498071E-07  0.170E-03    2.04       8.6  T
   5    -74.5004270 -0.828303E-07  0.249E-04    2.04      58.5  T
   6    -74.5004270 -0.135270E-08  0.135E-04    2.04     108.2  T
     SCC iter.                  ...        0 min,  0.020 sec
     gradient                   ...        0 min,  0.005 sec
 * total energy  :   -73.4892126 Eh     change       -0.1595602E-04 Eh
   gradient norm :     0.0017526 Eh/α   predicted    -0.9635280E-05 ( -39.61%)
   displ. norm   :     0.4016250 α      lambda       -0.3491921E-04
   maximum displ.:     0.2728934 α      in ANC's #2, #3, #4, ...

........................................................................
.............................. CYCLE   56 ..............................
........................................................................

 iter      E             dE          RMSdq      gap      omega  full diag
   1    -74.4999322 -0.744999E+02  0.102E-01    2.04       0.0  T
   2    -74.4999353 -0.309011E-05  0.560E-02    2.04       1.0  T
   3    -74.4999350  0.288203E-06  0.959E-03    2.04       1.5  T
   4    -74.4999352 -0.187253E-06  0.581E-03    2.04       2.5  T
   5    -74.4999361 -0.979966E-06  0.890E-04    2.04      16.4  T
   6    -74.4999362 -0.211367E-07  0.440E-04    2.04      33.2  T
     SCC iter.                  ...        0 min,  0.019 sec
     gradient                   ...        0 min,  0.005 sec
 * total energy  :   -73.4892476 Eh     change       -0.3497096E-04 Eh
   gradient norm :     0.0013957 Eh/α   predicted    -0.1871231E-04 ( -46.49%)
   displ. norm   :     0.1391220 α      lambda       -0.1413685E-04
   maximum displ.:     0.1008035 α      in ANC's #2, #1, #3, ...

........................................................................
.............................. CYCLE   57 ..............................
........................................................................

 iter      E             dE          RMSdq      gap      omega  full diag
[...]
H32-C7-C6-H31=  0.95          C9-C8-C7-C6=180.62            C9-C8-C7-H32=  0.47           C24-C8-C7-C6=  0.40           
C24-C8-C7-H32=180.25          C10-C9-C8-C7=354.28           C10-C9-C8-C24=174.50          H33-C9-C8-C7=174.50           
H33-C9-C8-C24=354.72          C11-C10-C9-C8=178.83          C11-C10-C9-H33=358.61         H34-C10-C9-C8=359.28          
H34-C10-C9-H33=179.05         
           -------------------------------------------------
          |                Final Singlepoint                |
           -------------------------------------------------

          ...................................................
          :                      SETUP                      :
          :.................................................:
          :  # basis functions                 128          :
          :  # atomic orbitals                 127          :
          :  # shells                           73          :
          :  # electrons                       132          :
          :  max. iterations                   250          :
          :  Hamiltonian                  GFN2-xTB          :
          :  restarted?                      false          :
          :  GBSA solvation                  false          :
          :  PC potential                    false          :
          :  electronic temp.          300.0000000     K    :
          :  accuracy                    1.0000000          :
          :  -> integral cutoff          0.2500000E+02      :
          :  -> integral neglect         0.1000000E-07      :
          :  -> SCF convergence          0.1000000E-05 Eh   :
          :  -> wf. convergence          0.1000000E-03 e    :
          :  Broyden damping             0.4000000          :
          :  net charge                          0          :
          :  unpaired electrons                  0          :
          ...................................................

 iter      E             dE          RMSdq      gap      omega  full diag
   1    -74.5009697 -0.745010E+02  0.106E-04    2.04       0.0  T
   2    -74.5009697 -0.645031E-10  0.802E-05    2.04     181.9  T
   3    -74.5009697 -0.196493E-09  0.433E-05    2.04     336.5  T

   *** convergence criteria satisfied after 3 iterations ***

         #    Occupation            Energy/Eh            Energy/eV
      -------------------------------------------------------------
         1        2.0000           -0.7315137             -19.9055
       ...           ...                  ...                  ...
        60        2.0000           -0.4235425             -11.5252
        61        2.0000           -0.4160982             -11.3226
        62        2.0000           -0.4119264             -11.2091
        63        2.0000           -0.4102412             -11.1632
        64        2.0000           -0.4075089             -11.0889
        65        2.0000           -0.3805400             -10.3550
        66        2.0000           -0.3757831             -10.2256 (HOMO)
        67                         -0.3006330              -8.1806 (LUMO)
        68                         -0.2436907              -6.6312
        69                         -0.2397490              -6.5239
        70                         -0.2287683              -6.2251
        71                         -0.2249829              -6.1221
       ...                                ...                  ...
       127                          0.6964291              18.9508
      -------------------------------------------------------------
                  HL-Gap            0.0751501 Eh            2.0449 eV
             Fermi-level           -0.3382081 Eh           -9.2031 eV

 SCC (total)                   0 d,  0 h,  0 min,  0.020 sec
 SCC setup                      ...        0 min,  0.001 sec (  4.293%)
 Dispersion                     ...        0 min,  0.000 sec (  1.234%)
 classical contributions        ...        0 min,  0.000 sec (  0.797%)
 integral evaluation            ...        0 min,  0.002 sec (  7.867%)
 iterations                     ...        0 min,  0.009 sec ( 43.154%)
 molecular gradient             ...        0 min,  0.006 sec ( 27.497%)
 printout                       ...        0 min,  0.003 sec ( 15.015%)

         :::::::::::::::::::::::::::::::::::::::::::::::::::::
         ::                     SUMMARY                     ::
         :::::::::::::::::::::::::::::::::::::::::::::::::::::
         :: total energy             -73.489563312776 Eh    ::
         :: gradient norm              0.000418550554 Eh/a0 ::
         :: HOMO-LUMO gap              2.044937904162 eV    ::
         ::.................................................::
         :: SCC energy               -74.500589187667 Eh    ::
         :: -> isotropic ES            0.089865938108 Eh    ::
         :: -> anisotropic ES          0.002889033579 Eh    ::
         :: -> anisotropic XC          0.026183905319 Eh    ::
         :: -> dispersion             -0.050554357807 Eh    ::
         :: repulsion energy           1.011025874891 Eh    ::
         :: add. restraining           0.000000000000 Eh    ::
         :: total charge              -0.000000000000 e     ::
         :::::::::::::::::::::::::::::::::::::::::::::::::::::

           -------------------------------------------------
          |                Property Printout                |
           -------------------------------------------------

    * Orbital Energies and Occupations

         #    Occupation            Energy/Eh            Energy/eV
      -------------------------------------------------------------
         1        2.0000           -0.7315137             -19.9055
       ...           ...                  ...                  ...
        54        2.0000           -0.4476470             -12.1811
        55        2.0000           -0.4393502             -11.9553
        56        2.0000           -0.4352110             -11.8427
        57        2.0000           -0.4350365             -11.8379
        58        2.0000           -0.4309968             -11.7280
        59        2.0000           -0.4271240             -11.6226
        60        2.0000           -0.4235425             -11.5252
        61        2.0000           -0.4160982             -11.3226
        62        2.0000           -0.4119264             -11.2091
        63        2.0000           -0.4102412             -11.1632
        64        2.0000           -0.4075089             -11.0889
        65        2.0000           -0.3805400             -10.3550
        66        2.0000           -0.3757831             -10.2256 (HOMO)
        67                         -0.3006330              -8.1806 (LUMO)
        68                         -0.2436907              -6.6312
        69                         -0.2397490              -6.5239
        70                         -0.2287683              -6.2251
        71                         -0.2249829              -6.1221
        72                         -0.2081288              -5.6635
        73                         -0.1709919              -4.6529
        74                         -0.1562725              -4.2524
        75                         -0.1022283              -2.7818
        76                         -0.0994980              -2.7075
        77                         -0.0254265              -0.6919
       ...                                ...                  ...
       127                          0.6964291              18.9508
      -------------------------------------------------------------
                  HL-Gap            0.0751501 Eh            2.0449 eV
             Fermi-level           -0.3382081 Eh           -9.2031 eV

     #   Z          covCN         q      C6AA      α(0)
     1   8 O        1.656    -0.431    21.468     6.255
     2   6 C        3.704     0.083    19.335     6.287
     3   6 C        3.793    -0.022    20.977     6.522
     4  16 S        2.064    -0.148   147.282    20.426
     5   6 C        2.966     0.052    26.836     8.497
     6   6 C        2.939    -0.041    29.021     8.835
     7   6 C        2.924    -0.029    28.732     8.790
     8   6 C        2.969     0.012    27.748     8.640
     9   6 C        2.908    -0.010    28.278     8.720
    10   6 C        2.893    -0.067    29.661     8.929
    11   6 C        2.835     0.211    23.540     7.951
    12   6 C        3.706     0.250    16.872     5.872
    13   8 O        1.701    -0.317    19.290     5.930
    14   6 C        3.647     0.046    20.134     6.448
    15   8 O        1.700    -0.337    19.646     5.984
    16   6 C        3.646     0.046    20.134     6.448
    17   6 C        2.987    -0.010    28.264     8.721
    18   6 C        2.920    -0.032    28.786     8.798
    19   6 C        2.921    -0.029    28.724     8.789
    20   6 C        2.920    -0.030    28.738     8.791
    21   6 C        2.920    -0.028    28.702     8.785
    22   6 C        2.923    -0.032    28.787     8.799
    23   8 O        0.857    -0.349    20.680     6.097
    24   6 C        2.927    -0.027    28.684     8.783
    25   6 C        2.982    -0.036    28.896     8.818
    26   1 H        0.805     0.290     0.753     1.363
    27   1 H        0.923     0.024     2.670     2.555
    28   1 H        0.924     0.062     2.175     2.306
    29   1 H        0.925     0.069     2.095     2.264
    30   1 H        0.924     0.047     2.359     2.402
    31   1 H        0.926     0.036     2.509     2.477
    32   1 H        0.926     0.045     2.385     2.415
    33   1 H        0.925     0.071     2.071     2.251
    34   1 H        0.926     0.054     2.265     2.353
    35   1 H        0.924     0.039     2.461     2.453
    36   1 H        0.924     0.032     2.562     2.503
    37   1 H        0.925     0.060     2.197     2.318
    38   1 H        0.924     0.027     2.628     2.535
    39   1 H        0.925     0.056     2.241     2.341
    40   1 H        0.924     0.048     2.348     2.396
    41   1 H        0.926     0.049     2.332     2.388
    42   1 H        0.926     0.036     2.501     2.473
    43   1 H        0.926     0.036     2.500     2.472
    44   1 H        0.926     0.039     2.465     2.455
    45   1 H        0.926     0.054     2.275     2.359
    46   1 H        0.926     0.049     2.326     2.385
    47   1 H        0.926     0.051     2.304     2.373

 Mol. C6AA /au·bohr⁶  :      27105.109613
 Mol. C8AA /au·bohr⁸  :     682773.711281
 Mol. α(0) /au        :        258.753266


Wiberg/Mayer (AO) data.
largest (>0.10) Wiberg bond orders for each atom

 ---------------------------------------------------------------------------
     #   Z sym  total        # sym  WBO       # sym  WBO       # sym  WBO
 ---------------------------------------------------------------------------
     1   8 O    1.973 --     2 C    1.004    26 H    0.901
     2   6 C    3.955 --     1 O    1.004     3 C    0.995    28 H    0.971
                            27 H    0.968
     3   6 C    3.975 --     2 C    0.995     4 S    0.988    30 H    0.969
                            29 H    0.968
     4  16 S    2.258 --     5 C    1.059     3 C    0.988
     5   6 C    3.955 --     6 C    1.374    25 C    1.363     4 S    1.059
     6   6 C    3.990 --     7 C    1.476     5 C    1.374    31 H    0.963
     7   6 C    3.990 --     6 C    1.476     8 C    1.350    32 H    0.964
     8   6 C    3.988 --     7 C    1.350    24 C    1.341     9 C    1.134
     9   6 C    3.974 --    10 C    1.733     8 C    1.134    33 H    0.957
    10   6 C    3.973 --     9 C    1.733    11 C    1.078    34 H    0.960
    11   6 C    3.926 --    23 O    1.807    10 C    1.078    12 C    0.900
    12   6 C    3.923 --    13 O    0.976    15 O    0.959    17 C    0.942
                            11 C    0.900
    13   8 O    2.094 --    14 C    0.982    12 C    0.976
    14   6 C    3.946 --    13 O    0.982    37 H    0.980    35 H    0.980
                            36 H    0.978
    15   8 O    2.078 --    16 C    0.983    12 C    0.959
    16   6 C    3.946 --    15 O    0.983    39 H    0.981    40 H    0.979
                            38 H    0.977
    17   6 C    3.982 --    18 C    1.413    22 C    1.403    12 C    0.942
                            20 C    0.107
    18   6 C    3.990 --    19 C    1.440    17 C    1.413    41 H    0.966
                            21 C    0.110
    19   6 C    3.991 --    20 C    1.441    18 C    1.440    42 H    0.970
                            22 C    0.111
    20   6 C    3.987 --    19 C    1.441    21 C    1.434    43 H    0.971
                            17 C    0.107
    21   6 C    3.991 --    22 C    1.449    20 C    1.434    44 H    0.970
                            18 C    0.110
    22   6 C    3.989 --    21 C    1.449    17 C    1.403    45 H    0.967
                            19 C    0.111
    23   8 O    2.067 --    11 C    1.807
    24   6 C    3.988 --    25 C    1.488     8 C    1.341    46 H    0.966
    25   6 C    3.989 --    24 C    1.488     5 C    1.363    47 H    0.967
    26   1 H    0.916 --     1 O    0.901
    27   1 H    0.999 --     2 C    0.968
    28   1 H    0.996 --     2 C    0.971
    29   1 H    0.995 --     3 C    0.968
    30   1 H    0.997 --     3 C    0.969
    31   1 H    0.998 --     6 C    0.963
    32   1 H    0.998 --     7 C    0.964
    33   1 H    0.994 --     9 C    0.957
    34   1 H    0.997 --    10 C    0.960
    35   1 H    0.998 --    14 C    0.980
    36   1 H    0.999 --    14 C    0.978
    37   1 H    0.996 --    14 C    0.980
    38   1 H    0.999 --    16 C    0.977
    39   1 H    0.996 --    16 C    0.981
    40   1 H    0.998 --    16 C    0.979
    41   1 H    0.998 --    18 C    0.966
    42   1 H    0.998 --    19 C    0.970
    43   1 H    0.998 --    20 C    0.971
    44   1 H    0.998 --    21 C    0.970
    45   1 H    0.997 --    22 C    0.967
    46   1 H    0.997 --    24 C    0.966
    47   1 H    0.997 --    25 C    0.967
 ---------------------------------------------------------------------------

Topologies differ in total number of bonds
Writing topology from bond orders to xtbtopo.mol

molecular dipole:
                 x           y           z       tot (Debye)
 q only:        0.373      -0.889       1.002
   full:        0.020      -0.902       1.439       4.317
molecular quadrupole (traceless):
                xx          xy          yy          xz          yz          zz
 q only:       -0.673       2.381       1.219      -6.898       4.041      -0.546
  q+dip:       -8.118       2.861       3.637      -5.806      -0.128       4.480
   full:       -7.704       3.652       4.904      -5.771       2.442       2.800

           -------------------------------------------------
          |                Geometry Summary                 |
           -------------------------------------------------

      molecular mass/u    :      358.4518216
   center of mass at/Å    :        0.2863086      -0.0915478      -0.1979094
  moments of inertia/u·Å² :        0.1339520E+04   0.6744154E+04   0.6924210E+04
rotational constants/cm⁻¹ :        0.1258483E-01   0.2499592E-02   0.2434593E-02

 * 42 selected distances

     #   Z          #   Z                                           value/Å
     1   8 O        2   6 C                                       1.4035170
     2   6 C        3   6 C                                       1.5280896 (max)
     5   6 C        6   6 C                                       1.3910465
     6   6 C        7   6 C                                       1.3784753
     7   6 C        8   6 C                                       1.3984591
     9   6 C       10   6 C                                       1.3437660
    12   6 C       13   8 O                                       1.4018213
    13   8 O       14   6 C                                       1.4128871
    12   6 C       15   8 O                                       1.4123874
    15   8 O       16   6 C                                       1.4138434
    17   6 C       18   6 C                                       1.3869005
    18   6 C       19   6 C                                       1.3842609
    19   6 C       20   6 C                                       1.3843183
    20   6 C       21   6 C                                       1.3855390
    17   6 C       22   6 C                                       1.3903545
    21   6 C       22   6 C                                       1.3822882
    11   6 C       23   8 O                                       1.2093633
     8   6 C       24   6 C                                       1.4010780
     5   6 C       25   6 C                                       1.3946026
    24   6 C       25   6 C                                       1.3754560
     1   8 O       26   1 H                                       0.9638772 (min)
     2   6 C       27   1 H                                       1.0998507
     2   6 C       28   1 H                                       1.0924251
     3   6 C       29   1 H                                       1.0900320
     3   6 C       30   1 H                                       1.0912082
     6   6 C       31   1 H                                       1.0789568
     7   6 C       32   1 H                                       1.0788523
     9   6 C       33   1 H                                       1.0842288
    10   6 C       34   1 H                                       1.0785874
    14   6 C       35   1 H                                       1.0943532
    14   6 C       36   1 H                                       1.0949172
    14   6 C       37   1 H                                       1.0879403
    16   6 C       38   1 H                                       1.0957451
    16   6 C       39   1 H                                       1.0884516
    16   6 C       40   1 H                                       1.0927003
    18   6 C       41   1 H                                       1.0783784
    19   6 C       42   1 H                                       1.0802244
    20   6 C       43   1 H                                       1.0800383
    21   6 C       44   1 H                                       1.0798430
    22   6 C       45   1 H                                       1.0800452
    24   6 C       46   1 H                                       1.0799233
    25   6 C       47   1 H                                       1.0791333

 * 4 distinct bonds (by element types)

   Z      Z             #   av. dist./Å        max./Å        min./Å
   1 H    6 C          21     1.0859921     1.0998507     1.0783784
   6 C    6 C          14     1.3946167     1.5280896     1.3437660
   1 H    8 O           1     0.9638772     0.9638772     0.9638772
   6 C    8 O           6     1.3756366     1.4138434     1.2093633


optimized geometry written to: xtbopt.xyz


           -------------------------------------------------
          | TOTAL ENERGY              -73.489563312776 Eh   |
          | GRADIENT NORM               0.000418550554 Eh/α |
          | HOMO-LUMO GAP               2.044937904162 eV   |
           -------------------------------------------------

------------------------------------------------------------------------
 * finished run on 2025/12/01 at 14:18:52.770     
------------------------------------------------------------------------
 total:
 * wall-time:     0 d,  0 h,  0 min,  2.539 sec
 *  cpu-time:     0 d,  0 h,  0 min, 57.768 sec
 * ratio c/w:    22.756 speedup
 SCF:
 * wall-time:     0 d,  0 h,  0 min,  0.060 sec
 *  cpu-time:     0 d,  0 h,  0 min,  1.323 sec
 * ratio c/w:    22.068 speedup
 ANC optimizer:
 * wall-time:     0 d,  0 h,  0 min,  2.465 sec
 *  cpu-time:     0 d,  0 h,  0 min, 56.254 sec
 * ratio c/w:    22.825 speedup

normal termination of xtb
