      -----------------------------------------------------------      
     |                   =====================                   |     
     |                           x T B                           |     
     |                   =====================                   |     
     |                         S. Grimme                         |     
     |          Mulliken Center for Theoretical Chemistry        |     
     |                    University of Bonn                     |     
      -----------------------------------------------------------      

   * xtb version 6.7.1 (edcfbbe) compiled by 'albert@albert-system' on 2024-07-22

   xtb is free software: you can redistribute it and/or modify it under
   the terms of the GNU Lesser General Public License as published by
   the Free Software Foundation, either version 3 of the License, or
   (at your option) any later version.
   
   xtb is distributed in the hope that it will be useful,
   but WITHOUT ANY WARRANTY; without even the implied warranty of
   MERCHANTABILITY or FITNESS FOR A PARTICULAR PURPOSE.  See the
   GNU Lesser General Public License for more details.
   
   Cite this work as:
   * C. Bannwarth, E. Caldeweyher, S. Ehlert, A. Hansen, P. Pracht,
     J. Seibert, S. Spicher, S. Grimme, WIREs Comput. Mol. Sci., 2020, 11,
     e01493. DOI: 10.1002/wcms.1493
   
   for GFN2-xTB:
   * C. Bannwarth, S. Ehlert and S. Grimme., J. Chem. Theory Comput., 2019,
     15, 1652-1671. DOI: 10.1021/acs.jctc.8b01176
   for GFN1-xTB:
   * S. Grimme, C. Bannwarth, P. Shushkov, J. Chem. Theory Comput., 2017,
     13, 1989-2009. DOI: 10.1021/acs.jctc.7b00118
   for GFN0-xTB:
   * P. Pracht, E. Caldeweyher, S. Ehlert, S. Grimme, ChemRxiv, 2019, preprint.
     DOI: 10.26434/chemrxiv.8326202.v1
   for GFN-FF:
   * S. Spicher and S. Grimme, Angew. Chem. Int. Ed., 2020, 59, 15665-15673.
     DOI: 10.1002/anie.202004239
   
   for ALPB and GBSA implicit solvation:
   * S. Ehlert, M. Stahn, S. Spicher, S. Grimme, J. Chem. Theory Comput.,
     2021, 17, 4250-4261. DOI: 10.1021/acs.jctc.1c00471
   
   for ddCOSMO and CPCM-X implicit solvation:
   * M. Stahn, S. Ehlert, S. Grimme, J. Phys. Chem. A,
     2023, XX, XXXX-XXXX. DOI: 10.1021/acs.jpca.3c04382
   
   for DFT-D4:
   * E. Caldeweyher, C. Bannwarth and S. Grimme, J. Chem. Phys., 2017,
     147, 034112. DOI: 10.1063/1.4993215
   * E. Caldeweyher, S. Ehlert, A. Hansen, H. Neugebauer, S. Spicher,
     C. Bannwarth and S. Grimme, J. Chem. Phys., 2019, 150, 154122.
     DOI: 10.1063/1.5090222
   * E. Caldeweyher, J.-M. Mewes, S. Ehlert and S. Grimme, Phys. Chem. Chem. Phys.
     2020, 22, 8499-8512. DOI: 10.1039/D0CP00502A
   
   for sTDA-xTB:
   * S. Grimme and C. Bannwarth, J. Chem. Phys., 2016, 145, 054103.
     DOI: 10.1063/1.4959605
   
   in the mass-spec context:
   * V. Asgeirsson, C. Bauer and S. Grimme, Chem. Sci., 2017, 8, 4879.
     DOI: 10.1039/c7sc00601b
   * J. Koopman and S. Grimme, ACS Omega 2019, 4, 12, 15120-15133.
     DOI: 10.1021/acsomega.9b02011
   
   for metadynamics refer to:
   * S. Grimme, J. Chem. Theory Comput., 2019, 155, 2847-2862
     DOI: 10.1021/acs.jctc.9b00143
   
   for SPH calculations refer to:
   * S. Spicher and S. Grimme, J. Chem. Theory Comput., 2021, 17, 1701-1714
     DOI: 10.1021/acs.jctc.0c01306
   
   for ONIOM refer to:
   * C. Plett, A. Katbashev, S. Ehlert, S. Grimme, M. Bursch,
     Phys. Chem. Chem. Phys., 2023, 25, 17860-17868. DOI: 10.1039/D3CP02178E
   
   for DIPRO refer to:
   * J. Kohn, N. Gildemeister, S. Grimme, D. Fazzi, A. Hansen,
     J. Chem. Phys., 2023, just accepted.
   
   for PTB refer to:
   * S. Grimme, M. Mueller, A. Hansen, J. Chem. Phys., 2023, 158, 124111.
     DOI: 10.1063/5.0137838
   
   with help from (in alphabetical order)
   P. Atkinson, C. Bannwarth, F. Bohle, G. Brandenburg, E. Caldeweyher
   M. Checinski, S. Dohm, S. Ehlert, S. Ehrlich, I. Gerasimov, C. Hölzer
   A. Katbashev, J. Kohn, J. Koopman, C. Lavigne, S. Lehtola, F. März, M. Müller,
   F. Musil, H. Neugebauer, J. Pisarek, C. Plett, P. Pracht, F. Pultar,
   J. Seibert, P. Shushkov, S. Spicher, M. Stahn, M. Steiner, T. Strunk,
   J. Stückrath, T. Rose, and J. Unsleber
   
 * started run on 2025/12/01 at 14:18:52.779     
   ID    Z sym.   atoms
    1    8 O      1, 13, 15, 23
    2    6 C      2, 3, 5-12, 14, 16-22, 24, 25
    3   16 S      4
    4    1 H      26-47

           -------------------------------------------------
          |                Calculation Setup                |
           -------------------------------------------------

          program call               : xtb pipeline_data/3_conformer_xyz/acrylates/rdkit/PUUAYUBAIZMECZ-JLHYYAGUSA-N_conf101.xyz --opt --gfn 2-xTB --iterations 250
          coordinate file            : pipeline_data/3_conformer_xyz/acrylates/rdkit/PUUAYUBAIZMECZ-JLHYYAGUSA-N_conf101.xyz
          omp threads                :                    24

########################################################################
[WARNING] Please study the warnings concerning your input carefully
-1- readin_getIntValue: could not parse '2-xTB'
########################################################################

           -------------------------------------------------
          |                 G F N 2 - x T B                 |
           -------------------------------------------------

        Reference                      10.1021/acs.jctc.8b01176
      * Hamiltonian:
        H0-scaling (s, p, d)           1.850000    2.230000    2.230000
        zeta-weighting                 0.500000
      * Dispersion:
        s8                             2.700000
        a1                             0.520000
        a2                             5.000000
        s9                             5.000000
      * Repulsion:
        kExp                           1.500000    1.000000
        rExp                           1.000000
      * Coulomb:
        alpha                          2.000000
        third order                    shell-resolved
        anisotropic                    true
        a3                             3.000000
        a5                             4.000000
        cn-shift                       1.200000
        cn-exp                         4.000000
        max-rad                        5.000000

q/qsh data taken from xtbrestart
CAMM data taken from xtbrestart

          ...................................................
          :                      SETUP                      :
          :.................................................:
          :  # basis functions                 128          :
          :  # atomic orbitals                 127          :
          :  # shells                           73          :
          :  # electrons                       132          :
          :  max. iterations                   250          :
          :  Hamiltonian                  GFN2-xTB          :
          :  restarted?                       true          :
          :  GBSA solvation                  false          :
          :  PC potential                    false          :
          :  electronic temp.          300.0000000     K    :
          :  accuracy                    1.0000000          :
          :  -> integral cutoff          0.2500000E+02      :
          :  -> integral neglect         0.1000000E-07      :
          :  -> SCF convergence          0.1000000E-05 Eh   :
          :  -> wf. convergence          0.1000000E-03 e    :
          :  Broyden damping             0.4000000          :
          :  net charge                          0          :
          :  unpaired electrons                  0          :
          ...................................................

 iter      E             dE          RMSdq      gap      omega  full diag
   1    -74.4548773 -0.744549E+02  0.533E+00    2.11       0.0  T
   2    -74.4698667 -0.149893E-01  0.301E+00    1.68       1.0  T
   3    -74.4669719  0.289477E-02  0.606E-01    1.36       1.0  T
   4    -74.4730355 -0.606361E-02  0.307E-01    1.35       1.0  T
   5    -74.4744922 -0.145673E-02  0.918E-02    1.39       1.0  T
   6    -74.4746264 -0.134177E-03  0.412E-02    1.41       1.0  T
   7    -74.4746434 -0.169961E-04  0.217E-02    1.40       1.0  T
   8    -74.4746468 -0.343732E-05  0.890E-03    1.41       1.6  T
   9    -74.4746485 -0.171334E-05  0.368E-03    1.41       4.0  T
  10    -74.4746487 -0.155618E-06  0.170E-03    1.41       8.6  T
  11    -74.4746487 -0.481761E-07  0.786E-04    1.41      18.6  T
  12    -74.4746487 -0.337354E-08  0.414E-04    1.41      35.2  T

   *** convergence criteria satisfied after 12 iterations ***

         #    Occupation            Energy/Eh            Energy/eV
      -------------------------------------------------------------
         1        2.0000           -0.7254675             -19.7410
       ...           ...                  ...                  ...
        60        2.0000           -0.4188369             -11.3971
        61        2.0000           -0.4114755             -11.1968
        62        2.0000           -0.4102839             -11.1644
        63        2.0000           -0.4065085             -11.0617
        64        2.0000           -0.4042757             -11.0009
        65        2.0000           -0.3897653             -10.6061
        66        2.0000           -0.3582547              -9.7486 (HOMO)
        67                         -0.3065322              -8.3412 (LUMO)
        68                         -0.2417846              -6.5793
        69                         -0.2371418              -6.4530
        70                         -0.2282661              -6.2114
        71                         -0.2246477              -6.1130
       ...                                ...                  ...
       127                          0.7094766              19.3058
      -------------------------------------------------------------
                  HL-Gap            0.0517225 Eh            1.4074 eV
             Fermi-level           -0.3323934 Eh           -9.0449 eV

 SCC (total)                   0 d,  0 h,  0 min,  0.057 sec
 SCC setup                      ...        0 min,  0.000 sec (  0.475%)
 Dispersion                     ...        0 min,  0.001 sec (  1.635%)
 classical contributions        ...        0 min,  0.000 sec (  0.510%)
 integral evaluation            ...        0 min,  0.006 sec ( 10.108%)
 iterations                     ...        0 min,  0.044 sec ( 76.767%)
 molecular gradient             ...        0 min,  0.006 sec (  9.607%)
 printout                       ...        0 min,  0.000 sec (  0.837%)

         :::::::::::::::::::::::::::::::::::::::::::::::::::::
         ::                     SUMMARY                     ::
         :::::::::::::::::::::::::::::::::::::::::::::::::::::
         :: total energy             -73.448332802614 Eh    ::
         :: gradient norm              0.169407451217 Eh/a0 ::
         :: HOMO-LUMO gap              1.407442211152 eV    ::
         ::.................................................::
         :: SCC energy               -74.474593260574 Eh    ::
         :: -> isotropic ES            0.093449773759 Eh    ::
         :: -> anisotropic ES          0.001548051275 Eh    ::
         :: -> anisotropic XC          0.024783542638 Eh    ::
         :: -> dispersion             -0.051136519768 Eh    ::
         :: repulsion energy           1.026260457960 Eh    ::
         :: add. restraining           0.000000000000 Eh    ::
         :: total charge              -0.000000000000 e     ::
         :::::::::::::::::::::::::::::::::::::::::::::::::::::

      ----------------------------------------------------------- 
     |                   =====================                   |
     |                        A N C O P T                        |
     |                   =====================                   |
     |               Approximate Normal Coordinate               |
     |                Rational Function Optimizer                |
      ----------------------------------------------------------- 
      ----------------------------------------------------------- 
     |                   =====================                   |
     |                        A N C O P T                        |
     |                   =====================                   |
     |               Approximate Normal Coordinate               |
     |                Rational Function Optimizer                |
      ----------------------------------------------------------- 

          ...................................................
          :                      SETUP                      :
          :.................................................:
          :   optimization level            normal          :
          :   max. optcycles                   200          :
          :   ANC micro-cycles                  20          :
          :   degrees of freedom               135          :
          :.................................................:
          :   RF solver                   davidson          :
          :   write xtbopt.log                true          :
          :   linear?                        false          :
          :   energy convergence         0.5000000E-05 Eh   :
          :   grad. convergence          0.1000000E-02 Eh/α :
          :   maxmium RF displ.          1.0000000          :
          :   Hlow (freq-cutoff)         0.1000000E-01      :
          :   Hmax (freq-cutoff)         5.0000000          :
          :   S6 in model hess.         20.0000000          :
          ...................................................

generating ANC from exact Hessian ...
Using Lindh-Hessian (1995)
 Shifting diagonal of input Hessian by   9.892875125452222E-003
 Lowest  eigenvalues of input Hessian
    0.000000    0.000000    0.000000    0.000000    0.000000    0.000000
    0.010000    0.010108    0.010402    0.010523    0.010970    0.011348
    0.011551    0.011864    0.012356    0.013026    0.013412    0.014981
 Highest eigenvalues
    1.979724    2.017425    2.069982    2.074768    2.096294    2.148987
 

........................................................................
.............................. CYCLE    1 ..............................
........................................................................

 iter      E             dE          RMSdq      gap      omega  full diag
   1    -74.4746488 -0.744746E+02  0.156E-04    1.41       0.0  T
   2    -74.4746488 -0.111342E-09  0.104E-04    1.41     140.5  T
   3    -74.4746488 -0.125908E-10  0.725E-05    1.41     201.2  T
     SCC iter.                  ...        0 min,  0.013 sec
     gradient                   ...        0 min,  0.005 sec
 * total energy  :   -73.4483328 Eh     change       -0.3605280E-08 Eh
   gradient norm :     0.1694061 Eh/α   predicted     0.0000000E+00 (-100.00%)
   displ. norm   :     0.3814456 α      lambda       -0.3476232E-01
   maximum displ.:     0.1058469 α      in ANC's #37, #38, #49, ...

........................................................................
.............................. CYCLE    2 ..............................
........................................................................

 iter      E             dE          RMSdq      gap      omega  full diag
   1    -74.4816356 -0.744816E+02  0.292E-01    1.52       0.0  T
   2    -74.4820614 -0.425789E-03  0.176E-01    1.51       1.0  T
   3    -74.4820415  0.198757E-04  0.721E-02    1.52       1.0  T
   4    -74.4820931 -0.515515E-04  0.262E-02    1.51       1.0  T
   5    -74.4821129 -0.198002E-04  0.100E-02    1.52       1.5  T
   6    -74.4821146 -0.169379E-05  0.454E-03    1.51       3.2  T
   7    -74.4821148 -0.246632E-06  0.232E-03    1.51       6.3  T
   8    -74.4821149 -0.602577E-07  0.114E-03    1.51      12.8  T
   9    -74.4821149 -0.160489E-07  0.397E-04    1.51      36.7  T
  10    -74.4821149 -0.338905E-08  0.173E-04    1.51      84.2  T
     SCC iter.                  ...        0 min,  0.041 sec
     gradient                   ...        0 min,  0.005 sec
 * total energy  :   -73.4721276 Eh     change       -0.2379483E-01 Eh
   gradient norm :     0.0671651 Eh/α   predicted    -0.1992900E-01 ( -16.25%)
   displ. norm   :     0.3369091 α      lambda       -0.9974060E-02
   maximum displ.:     0.0958315 α      in ANC's #13, #30, #17, ...

........................................................................
.............................. CYCLE    3 ..............................
........................................................................

 iter      E             dE          RMSdq      gap      omega  full diag
   1    -74.4853199 -0.744853E+02  0.184E-01    1.58       0.0  T
   2    -74.4855293 -0.209488E-03  0.110E-01    1.57       1.0  T
   3    -74.4855326 -0.322118E-05  0.468E-02    1.56       1.0  T
   4    -74.4855487 -0.161422E-04  0.137E-02    1.56       1.1  T
   5    -74.4855521 -0.342007E-05  0.705E-03    1.56       2.1  T
   6    -74.4855532 -0.111277E-05  0.304E-03    1.56       4.8  T
   7    -74.4855534 -0.131346E-06  0.149E-03    1.56       9.8  T
   8    -74.4855534 -0.245345E-07  0.703E-04    1.56      20.7  T
   9    -74.4855534 -0.485022E-08  0.268E-04    1.56      54.4  T
     SCC iter.                  ...        0 min,  0.032 sec
     gradient                   ...        0 min,  0.005 sec
 * total energy  :   -73.4782032 Eh     change       -0.6075569E-02 Eh
   gradient norm :     0.0172480 Eh/α   predicted    -0.5553097E-02 (  -8.60%)
   displ. norm   :     0.2908571 α      lambda       -0.2139210E-02
   maximum displ.:     0.1141098 α      in ANC's #13, #17, #25, ...

........................................................................
.............................. CYCLE    4 ..............................
........................................................................

 iter      E             dE          RMSdq      gap      omega  full diag
   1    -74.4841391 -0.744841E+02  0.993E-02    1.57       0.0  T
   2    -74.4841538 -0.147296E-04  0.574E-02    1.58       1.0  T
   3    -74.4841504  0.340045E-05  0.182E-02    1.57       1.0  T
   4    -74.4841564 -0.599061E-05  0.713E-03    1.58       2.0  T
   5    -74.4841568 -0.368679E-06  0.426E-03    1.58       3.4  T
   6    -74.4841573 -0.466917E-06  0.134E-03    1.58      10.9  T
   7    -74.4841573 -0.179956E-07  0.687E-04    1.58      21.2  T
   8    -74.4841573 -0.252146E-08  0.291E-04    1.58      50.2  T
     SCC iter.                  ...        0 min,  0.034 sec
     gradient                   ...        0 min,  0.007 sec
 * total energy  :   -73.4797994 Eh     change       -0.1596198E-02 Eh
   gradient norm :     0.0128234 Eh/α   predicted    -0.1160137E-02 ( -27.32%)
   displ. norm   :     0.3905101 α      lambda       -0.1703208E-02
   maximum displ.:     0.1390555 α      in ANC's #13, #11, #25, ...

........................................................................
.............................. CYCLE    5 ..............................
........................................................................

 iter      E             dE          RMSdq      gap      omega  full diag
   1    -74.4831399 -0.744831E+02  0.116E-01    1.59       0.0  T
   2    -74.4831505 -0.106179E-04  0.665E-02    1.59       1.0  T
   3    -74.4831492  0.131020E-05  0.168E-02    1.59       1.0  T
   4    -74.4831533 -0.412694E-05  0.683E-03    1.59       2.1  T
   5    -74.4831536 -0.251948E-06  0.284E-03    1.59       5.1  T
   6    -74.4831537 -0.121449E-06  0.112E-03    1.59      13.0  T
   7    -74.4831537 -0.344814E-08  0.646E-04    1.59      22.6  T
   8    -74.4831537 -0.785739E-08  0.272E-04    1.59      53.7  T
     SCC iter.                  ...        0 min,  0.024 sec
     gradient                   ...        0 min,  0.005 sec
 * total energy  :   -73.4809656 Eh     change       -0.1166192E-02 Eh
   gradient norm :     0.0180943 Eh/α   predicted    -0.9814781E-03 ( -15.84%)
   displ. norm   :     0.3295431 α      lambda       -0.1000861E-02
   maximum displ.:     0.1269807 α      in ANC's #11, #17, #15, ...

........................................................................
.............................. CYCLE    6 ..............................
........................................................................

 iter      E             dE          RMSdq      gap      omega  full diag
   1    -74.4848732 -0.744849E+02  0.846E-02    1.60       0.0  T
   2    -74.4848768 -0.355684E-05  0.486E-02    1.60       1.0  T
   3    -74.4848747  0.214139E-05  0.116E-02    1.61       1.3  T
   4    -74.4848777 -0.302290E-05  0.496E-03    1.61       2.9  T
   5    -74.4848780 -0.279093E-06  0.251E-03    1.61       5.8  T
   6    -74.4848781 -0.151648E-06  0.838E-04    1.61      17.4  T
   7    -74.4848781 -0.104130E-07  0.452E-04    1.61      32.3  T
     SCC iter.                  ...        0 min,  0.021 sec
     gradient                   ...        0 min,  0.005 sec
 * total energy  :   -73.4817232 Eh     change       -0.7576443E-03 Eh
   gradient norm :     0.0148545 Eh/α   predicted    -0.5547792E-03 ( -26.78%)
   displ. norm   :     0.3753011 α      lambda       -0.9928831E-03
   maximum displ.:     0.1509785 α      in ANC's #11, #15, #17, ...

........................................................................
.............................. CYCLE    7 ..............................
........................................................................

 iter      E             dE          RMSdq      gap      omega  full diag
   1    -74.4877558 -0.744878E+02  0.919E-02    1.61       0.0  T
   2    -74.4877612 -0.538279E-05  0.543E-02    1.61       1.0  T
   3    -74.4877538  0.743522E-05  0.158E-02    1.62       1.0  T
   4    -74.4877630 -0.920202E-05  0.514E-03    1.62       2.8  T
   5    -74.4877634 -0.378981E-06  0.289E-03    1.62       5.0  T
   6    -74.4877635 -0.121153E-06  0.107E-03    1.62      13.7  T
   7    -74.4877635 -0.189999E-07  0.569E-04    1.62      25.6  T
   8    -74.4877635 -0.352986E-08  0.178E-04    1.62      81.9  T
     SCC iter.                  ...        0 min,  0.041 sec
     gradient                   ...        0 min,  0.007 sec
 * total energy  :   -73.4824672 Eh     change       -0.7439944E-03 Eh
   gradient norm :     0.0133256 Eh/α   predicted    -0.5663674E-03 ( -23.87%)
   displ. norm   :     0.3525815 α      lambda       -0.8177726E-03
   maximum displ.:     0.1360117 α      in ANC's #11, #15, #8, ...

........................................................................
.............................. CYCLE    8 ..............................
........................................................................

 iter      E             dE          RMSdq      gap      omega  full diag
   1    -74.4912306 -0.744912E+02  0.891E-02    1.62       0.0  T
   2    -74.4912351 -0.453761E-05  0.531E-02    1.62       1.0  T
   3    -74.4912261  0.902572E-05  0.156E-02    1.63       1.0  T
   4    -74.4912370 -0.108992E-04  0.402E-03    1.63       3.6  T
   5    -74.4912372 -0.170076E-06  0.247E-03    1.63       5.9  T
   6    -74.4912372 -0.853336E-07  0.905E-04    1.63      16.1  T
   7    -74.4912373 -0.125768E-07  0.494E-04    1.63      29.6  T
     SCC iter.                  ...        0 min,  0.021 sec
     gradient                   ...        0 min,  0.006 sec
 * total energy  :   -73.4830460 Eh     change       -0.5787859E-03 Eh
   gradient norm :     0.0087853 Eh/α   predicted    -0.4597194E-03 ( -20.57%)
   displ. norm   :     0.4104678 α      lambda       -0.6837070E-03
   maximum displ.:     0.1549120 α      in ANC's #15, #7, #11, ...

........................................................................
.............................. CYCLE    9 ..............................
........................................................................

 iter      E             dE          RMSdq      gap      omega  full diag
   1    -74.4886833 -0.744887E+02  0.114E-01    1.63       0.0  T
   2    -74.4886940 -0.107237E-04  0.677E-02    1.63       1.0  T
   3    -74.4886815  0.125122E-04  0.195E-02    1.65       1.0  T
   4    -74.4886979 -0.163925E-04  0.603E-03    1.64       2.4  T
   5    -74.4886985 -0.579343E-06  0.314E-03    1.64       4.6  T
   6    -74.4886986 -0.101039E-06  0.126E-03    1.64      11.6  T
   7    -74.4886986 -0.884714E-08  0.566E-04    1.64      25.8  T
   8    -74.4886986 -0.457564E-08  0.233E-04    1.64      62.5  T
     SCC iter.                  ...        0 min,  0.024 sec
     gradient                   ...        0 min,  0.006 sec
 * total energy  :   -73.4832084 Eh     change       -0.1624043E-03 Eh
   gradient norm :     0.0245396 Eh/α   predicted    -0.3994741E-03 ( 145.98%)
   displ. norm   :     0.1670557 α      lambda       -0.8625549E-03
   maximum displ.:     0.0596951 α      in ANC's #7, #8, #9, ...

........................................................................
.............................. CYCLE   10 ..............................
........................................................................

 iter      E             dE          RMSdq      gap      omega  full diag
   1    -74.4936758 -0.744937E+02  0.600E-02    1.64       0.0  T
   2    -74.4936793 -0.347389E-05  0.343E-02    1.63       1.0  T
   3    -74.4936764  0.290250E-05  0.104E-02    1.63       1.4  T
   4    -74.4936804 -0.399057E-05  0.385E-03    1.63       3.8  T
   5    -74.4936806 -0.178709E-06  0.184E-03    1.63       7.9  T
   6    -74.4936806 -0.837782E-07  0.800E-04    1.63      18.2  T
   7    -74.4936807 -0.547919E-08  0.422E-04    1.63      34.6  T
     SCC iter.                  ...        0 min,  0.021 sec
     gradient                   ...        0 min,  0.006 sec
 * total energy  :   -73.4836474 Eh     change       -0.4389575E-03 Eh
   gradient norm :     0.0078543 Eh/α   predicted    -0.4433153E-03 (   0.99%)
   displ. norm   :     0.1695037 α      lambda       -0.1961089E-03
   maximum displ.:     0.0730835 α      in ANC's #7, #15, #8, ...

........................................................................
.............................. CYCLE   11 ..............................
........................................................................

 iter      E             dE          RMSdq      gap      omega  full diag
   1    -74.4920016 -0.744920E+02  0.476E-02    1.63       0.0  T
   2    -74.4920022 -0.650303E-06  0.282E-02    1.63       1.0  T
   3    -74.4920000  0.224826E-05  0.713E-03    1.64       2.0  T
   4    -74.4920025 -0.258335E-05  0.186E-03    1.63       7.8  T
   5    -74.4920026 -0.520044E-07  0.990E-04    1.63      14.7  T
   6    -74.4920026 -0.111565E-07  0.394E-04    1.63      37.1  T
     SCC iter.                  ...        0 min,  0.017 sec
     gradient                   ...        0 min,  0.006 sec
 * total energy  :   -73.4838097 Eh     change       -0.1623560E-03 Eh
   gradient norm :     0.0062562 Eh/α   predicted    -0.1008905E-03 ( -37.86%)
   displ. norm   :     0.3607387 α      lambda       -0.4221645E-03
   maximum displ.:     0.1491308 α      in ANC's #7, #8, #9, ...

........................................................................
.............................. CYCLE   12 ..............................
........................................................................

 iter      E             dE          RMSdq      gap      omega  full diag
   1    -74.4914869 -0.744915E+02  0.107E-01    1.64       0.0  T
   2    -74.4914908 -0.394412E-05  0.631E-02    1.63       1.0  T
   3    -74.4914794  0.114506E-04  0.164E-02    1.64       1.0  T
   4    -74.4914924 -0.130146E-04  0.438E-03    1.63       3.3  T
   5    -74.4914927 -0.341458E-06  0.214E-03    1.63       6.8  T
   6    -74.4914928 -0.538072E-07  0.866E-04    1.63      16.8  T
   7    -74.4914928 -0.107196E-07  0.429E-04    1.63      34.0  T
     SCC iter.                  ...        0 min,  0.020 sec
     gradient                   ...        0 min,  0.007 sec
 * total energy  :   -73.4840524 Eh     change       -0.2426719E-03 Eh
   gradient norm :     0.0085453 Eh/α   predicted    -0.2385516E-03 (  -1.70%)
   displ. norm   :     0.2019521 α      lambda       -0.1891722E-03
   maximum displ.:     0.0744261 α      in ANC's #9, #5, #7, ...

........................................................................
.............................. CYCLE   13 ..............................
........................................................................

 iter      E             dE          RMSdq      gap      omega  full diag
   1    -74.4904713 -0.744905E+02  0.577E-02    1.64       0.0  T
   2    -74.4904720 -0.653001E-06  0.339E-02    1.64       1.0  T
   3    -74.4904713  0.730608E-06  0.438E-03    1.63       3.3  T
   4    -74.4904722 -0.908999E-06  0.158E-03    1.63       9.2  T
   5    -74.4904722 -0.505750E-07  0.853E-04    1.63      17.1  T
   6    -74.4904722 -0.105967E-07  0.354E-04    1.63      41.2  T
     SCC iter.                  ...        0 min,  0.018 sec
     gradient                   ...        0 min,  0.007 sec
 * total energy  :   -73.4841844 Eh     change       -0.1320393E-03 Eh
   gradient norm :     0.0070738 Eh/α   predicted    -0.9844767E-04 ( -25.44%)
   displ. norm   :     0.2987684 α      lambda       -0.2712624E-03
   maximum displ.:     0.1257754 α      in ANC's #5, #9, #8, ...

........................................................................
.............................. CYCLE   14 ..............................
........................................................................

 iter      E             dE          RMSdq      gap      omega  full diag
   1    -74.4916147 -0.744916E+02  0.879E-02    1.64       0.0  T
   2    -74.4916160 -0.127418E-05  0.515E-02    1.64       1.0  T
   3    -74.4916152  0.785451E-06  0.501E-03    1.64       2.9  T
   4    -74.4916163 -0.110502E-05  0.170E-03    1.64       8.6  T
   5    -74.4916164 -0.641054E-07  0.774E-04    1.64      18.8  T
   6    -74.4916164 -0.280502E-08  0.329E-04    1.64      44.3  T
     SCC iter.                  ...        0 min,  0.018 sec
     gradient                   ...        0 min,  0.005 sec
 * total energy  :   -73.4843873 Eh     change       -0.2028183E-03 Eh
   gradient norm :     0.0065486 Eh/α   predicted    -0.1477387E-03 ( -27.16%)
   displ. norm   :     0.5037926 α      lambda       -0.3667327E-03
   maximum displ.:     0.2180437 α      in ANC's #5, #8, #7, ...

........................................................................
.............................. CYCLE   15 ..............................
........................................................................

 iter      E             dE          RMSdq      gap      omega  full diag
   1    -74.4891845 -0.744892E+02  0.150E-01    1.64       0.0  T
   2    -74.4891881 -0.362159E-05  0.879E-02    1.65       1.0  T
   3    -74.4891832  0.489320E-05  0.116E-02    1.65       1.3  T
   4    -74.4891892 -0.598091E-05  0.312E-03    1.65       4.7  T
   5    -74.4891894 -0.183215E-06  0.156E-03    1.65       9.4  T
   6    -74.4891894 -0.355011E-07  0.720E-04    1.65      20.3  T
   7    -74.4891895 -0.106528E-07  0.256E-04    1.65      57.1  T
     SCC iter.                  ...        0 min,  0.021 sec
     gradient                   ...        0 min,  0.006 sec
 * total energy  :   -73.4846393 Eh     change       -0.2520713E-03 Eh
   gradient norm :     0.0074957 Eh/α   predicted    -0.2299062E-03 (  -8.79%)
   displ. norm   :     0.3686884 α      lambda       -0.3635206E-03
   maximum displ.:     0.1754601 α      in ANC's #5, #14, #12, ...

........................................................................
.............................. CYCLE   16 ..............................
........................................................................

 iter      E             dE          RMSdq      gap      omega  full diag
   1    -74.4937264 -0.744937E+02  0.112E-01    1.65       0.0  T
   2    -74.4937291 -0.265471E-05  0.655E-02    1.66       1.0  T
   3    -74.4937236  0.544388E-05  0.120E-02    1.66       1.2  T
   4    -74.4937299 -0.623128E-05  0.327E-03    1.66       4.5  T
   5    -74.4937301 -0.224648E-06  0.149E-03    1.66       9.8  T
   6    -74.4937301 -0.372511E-07  0.669E-04    1.66      21.8  T
   7    -74.4937301 -0.850706E-08  0.291E-04    1.66      50.2  T
     SCC iter.                  ...        0 min,  0.021 sec
     gradient                   ...        0 min,  0.006 sec
 * total energy  :   -73.4848555 Eh     change       -0.2161362E-03 Eh
   gradient norm :     0.0081324 Eh/α   predicted    -0.2064699E-03 (  -4.47%)
   displ. norm   :     0.4310295 α      lambda       -0.2761600E-03
   maximum displ.:     0.1912694 α      in ANC's #5, #7, #8, ...

........................................................................
.............................. CYCLE   17 ..............................
........................................................................

 iter      E             dE          RMSdq      gap      omega  full diag
   1    -74.4894470 -0.744894E+02  0.131E-01    1.66       0.0  T
   2    -74.4894496 -0.265368E-05  0.770E-02    1.67       1.0  T
   3    -74.4894466  0.306049E-05  0.948E-03    1.67       1.5  T
   4    -74.4894505 -0.388091E-05  0.294E-03    1.67       5.0  T
   5    -74.4894506 -0.143122E-06  0.134E-03    1.67      10.9  T
   6    -74.4894506 -0.267951E-07  0.703E-04    1.67      20.7  T
   7    -74.4894506 -0.904488E-08  0.267E-04    1.67      54.7  T
     SCC iter.                  ...        0 min,  0.021 sec
     gradient                   ...        0 min,  0.007 sec
 * total energy  :   -73.4850513 Eh     change       -0.1958285E-03 Eh
   gradient norm :     0.0089902 Eh/α   predicted    -0.1637434E-03 ( -16.38%)
   displ. norm   :     0.3569079 α      lambda       -0.3619480E-03
   maximum displ.:     0.1524130 α      in ANC's #5, #7, #12, ...

........................................................................
.............................. CYCLE   18 ..............................
........................................................................

 iter      E             dE          RMSdq      gap      omega  full diag
   1    -74.4919174 -0.744919E+02  0.111E-01    1.66       0.0  T
   2    -74.4919211 -0.371659E-05  0.642E-02    1.68       1.0  T
   3    -74.4919089  0.121846E-04  0.191E-02    1.68       1.0  T
   4    -74.4919228 -0.138720E-04  0.484E-03    1.68       3.0  T
   5    -74.4919230 -0.278146E-06  0.214E-03    1.68       6.8  T
   6    -74.4919232 -0.119619E-06  0.716E-04    1.68      20.4  T
   7    -74.4919232 -0.956922E-08  0.339E-04    1.68      43.0  T
     SCC iter.                  ...        0 min,  0.021 sec
     gradient                   ...        0 min,  0.008 sec
 * total energy  :   -73.4852921 Eh     change       -0.2407839E-03 Eh
   gradient norm :     0.0069225 Eh/α   predicted    -0.2040281E-03 ( -15.27%)
   displ. norm   :     0.4328764 α      lambda       -0.2413436E-03
   maximum displ.:     0.1897869 α      in ANC's #5, #7, #1, ...

........................................................................
.............................. CYCLE   19 ..............................
........................................................................

 iter      E             dE          RMSdq      gap      omega  full diag
   1    -74.4896823 -0.744897E+02  0.134E-01    1.67       0.0  T
   2    -74.4896864 -0.410350E-05  0.776E-02    1.69       1.0  T
   3    -74.4896659  0.205569E-04  0.235E-02    1.69       1.0  T
   4    -74.4896892 -0.233696E-04  0.506E-03    1.69       2.9  T
   5    -74.4896893 -0.650811E-07  0.238E-03    1.69       6.1  T
   6    -74.4896895 -0.223835E-06  0.603E-04    1.69      24.2  T
   7    -74.4896895 -0.530473E-08  0.297E-04    1.69      49.1  T
     SCC iter.                  ...        0 min,  0.066 sec
     gradient                   ...        0 min,  0.006 sec
 * total energy  :   -73.4854754 Eh     change       -0.1833627E-03 Eh
   gradient norm :     0.0072843 Eh/α   predicted    -0.1432892E-03 ( -21.85%)
   displ. norm   :     0.4048341 α      lambda       -0.3562779E-03
   maximum displ.:     0.1700117 α      in ANC's #7, #1, #5, ...

........................................................................
.............................. CYCLE   20 ..............................
........................................................................

 iter      E             dE          RMSdq      gap      omega  full diag
   1    -74.4956712 -0.744957E+02  0.128E-01    1.68       0.0  T
   2    -74.4956806 -0.933181E-05  0.709E-02    1.70       1.0  T
   3    -74.4956507  0.298982E-04  0.317E-02    1.70       1.0  T
   4    -74.4956867 -0.360691E-04  0.796E-03    1.71       1.8  T
   5    -74.4956870 -0.246758E-06  0.362E-03    1.71       4.0  T
   6    -74.4956874 -0.459892E-06  0.881E-04    1.71      16.6  T
   7    -74.4956875 -0.223585E-07  0.374E-04    1.71      39.0  T
     SCC iter.                  ...        0 min,  0.021 sec
     gradient                   ...        0 min,  0.005 sec
 * total energy  :   -73.4856629 Eh     change       -0.1874902E-03 Eh
   gradient norm :     0.0101073 Eh/α   predicted    -0.2073362E-03 (  10.59%)
   displ. norm   :     0.5556784 α      lambda       -0.3884142E-03
   maximum displ.:     0.2490228 α      in ANC's #7, #1, #5, ...
 * RMSD in coord.:     0.7478095 α      energy gain  -0.3733013E-01 Eh

generating ANC from exact Hessian ...
Using Lindh-Hessian (1995)
 Shifting diagonal of input Hessian by   9.888725186644048E-003
 Lowest  eigenvalues of input Hessian
    0.000000    0.000000    0.000000    0.000000    0.000000    0.000000
    0.010000    0.010068    0.010341    0.010466    0.010916    0.011165
    0.011322    0.011631    0.011990    0.012514    0.012862    0.014610
 Highest eigenvalues
    1.916528    1.980575    2.006800    2.021100    2.075560    2.176303
 

........................................................................
.............................. CYCLE   21 ..............................
........................................................................

 iter      E             dE          RMSdq      gap      omega  full diag
   1    -74.4894411 -0.744894E+02  0.174E-01    1.70       0.0  T
   2    -74.4894505 -0.934351E-05  0.998E-02    1.72       1.0  T
   3    -74.4894212  0.293183E-04  0.294E-02    1.72       1.0  T
   4    -74.4894548 -0.336238E-04  0.760E-03    1.73       1.9  T
   5    -74.4894553 -0.560649E-06  0.320E-03    1.73       4.6  T
   6    -74.4894557 -0.314111E-06  0.110E-03    1.73      13.2  T
   7    -74.4894557 -0.318502E-07  0.479E-04    1.73      30.4  T
   8    -74.4894557 -0.312799E-08  0.237E-04    1.73      61.5  T
     SCC iter.                  ...        0 min,  0.031 sec
     gradient                   ...        0 min,  0.005 sec
 * total energy  :   -73.4858933 Eh     change       -0.2303386E-03 Eh
   gradient norm :     0.0101638 Eh/α   predicted     0.0000000E+00 (-100.00%)
   displ. norm   :     0.0804724 α      lambda       -0.2819709E-03
   maximum displ.:     0.0331257 α      in ANC's #5, #7, #14, ...

........................................................................
.............................. CYCLE   22 ..............................
........................................................................

 iter      E             dE          RMSdq      gap      omega  full diag
   1    -74.4944153 -0.744944E+02  0.344E-02    1.73       0.0  T
   2    -74.4944165 -0.120278E-05  0.199E-02    1.73       1.0  T
   3    -74.4944150  0.150075E-05  0.703E-03    1.74       2.1  T
   4    -74.4944168 -0.177142E-05  0.206E-03    1.74       7.1  T
   5    -74.4944168 -0.811225E-07  0.101E-03    1.74      14.4  T
   6    -74.4944169 -0.197358E-07  0.355E-04    1.74      41.1  T
   7    -74.4944169 -0.254809E-08  0.164E-04    1.74      88.9  T
     SCC iter.                  ...        0 min,  0.035 sec
     gradient                   ...        0 min,  0.005 sec
 * total energy  :   -73.4860967 Eh     change       -0.2033789E-03 Eh
   gradient norm :     0.0044718 Eh/α   predicted    -0.1422377E-03 ( -30.06%)
   displ. norm   :     0.1354654 α      lambda       -0.1728390E-03
   maximum displ.:     0.0679237 α      in ANC's #5, #7, #14, ...

........................................................................
.............................. CYCLE   23 ..............................
........................................................................

 iter      E             dE          RMSdq      gap      omega  full diag
   1    -74.4973550 -0.744974E+02  0.471E-02    1.74       0.0  T
   2    -74.4973567 -0.173614E-05  0.269E-02    1.74       1.0  T
   3    -74.4973551  0.159077E-05  0.759E-03    1.75       1.9  T
   4    -74.4973571 -0.194036E-05  0.252E-03    1.75       5.8  T
   5    -74.4973572 -0.852836E-07  0.123E-03    1.75      11.8  T
   6    -74.4973572 -0.374367E-07  0.461E-04    1.75      31.6  T
   7    -74.4973572 -0.610996E-08  0.179E-04    1.75      81.5  T
     SCC iter.                  ...        0 min,  0.033 sec
     gradient                   ...        0 min,  0.005 sec
 * total energy  :   -73.4862139 Eh     change       -0.1172427E-03 Eh
   gradient norm :     0.0023722 Eh/α   predicted    -0.8800824E-04 ( -24.93%)
   displ. norm   :     0.1581865 α      lambda       -0.1029025E-03
   maximum displ.:     0.0874002 α      in ANC's #5, #7, #2, ...

........................................................................
.............................. CYCLE   24 ..............................
........................................................................

 iter      E             dE          RMSdq      gap      omega  full diag
   1    -74.4978120 -0.744978E+02  0.509E-02    1.75       0.0  T
   2    -74.4978134 -0.137307E-05  0.287E-02    1.75       1.0  T
   3    -74.4978116  0.179936E-05  0.786E-03    1.76       1.9  T
   4    -74.4978138 -0.221150E-05  0.259E-03    1.76       5.6  T
   5    -74.4978139 -0.712524E-07  0.771E-04    1.76      18.9  T
   6    -74.4978139 -0.154726E-07  0.296E-04    1.76      49.4  T
     SCC iter.                  ...        0 min,  0.053 sec
     gradient                   ...        0 min,  0.006 sec
 * total energy  :   -73.4862977 Eh     change       -0.8375795E-04 Eh
   gradient norm :     0.0039051 Eh/α   predicted    -0.5290533E-04 ( -36.84%)
   displ. norm   :     0.2486286 α      lambda       -0.1437164E-03
   maximum displ.:     0.1378779 α      in ANC's #5, #7, #2, ...

........................................................................
.............................. CYCLE   25 ..............................
........................................................................

 iter      E             dE          RMSdq      gap      omega  full diag
   1    -74.4967544 -0.744968E+02  0.778E-02    1.75       0.0  T
   2    -74.4967575 -0.301606E-05  0.436E-02    1.77       1.0  T
   3    -74.4967516  0.584555E-05  0.138E-02    1.77       1.1  T
   4    -74.4967587 -0.705118E-05  0.425E-03    1.77       3.4  T
   5    -74.4967588 -0.135749E-06  0.144E-03    1.77      10.1  T
   6    -74.4967589 -0.716490E-07  0.526E-04    1.77      27.7  T
   7    -74.4967589 -0.814396E-08  0.206E-04    1.77      70.8  T
     SCC iter.                  ...        0 min,  0.021 sec
     gradient                   ...        0 min,  0.006 sec
 * total energy  :   -73.4864170 Eh     change       -0.1193316E-03 Eh
   gradient norm :     0.0046295 Eh/α   predicted    -0.7630058E-04 ( -36.06%)
   displ. norm   :     0.3184612 α      lambda       -0.1647014E-03
   maximum displ.:     0.1793532 α      in ANC's #5, #7, #2, ...

........................................................................
.............................. CYCLE   26 ..............................
........................................................................

 iter      E             dE          RMSdq      gap      omega  full diag
   1    -74.4948870 -0.744949E+02  0.991E-02    1.76       0.0  T
   2    -74.4948919 -0.496110E-05  0.554E-02    1.78       1.0  T
   3    -74.4948807  0.112835E-04  0.192E-02    1.78       1.0  T
   4    -74.4948942 -0.135331E-04  0.555E-03    1.78       2.6  T
   5    -74.4948944 -0.184775E-06  0.205E-03    1.78       7.1  T
   6    -74.4948945 -0.161344E-06  0.656E-04    1.78      22.2  T
   7    -74.4948946 -0.114741E-07  0.264E-04    1.78      55.3  T
     SCC iter.                  ...        0 min,  0.021 sec
     gradient                   ...        0 min,  0.006 sec
 * total energy  :   -73.4865498 Eh     change       -0.1327899E-03 Eh
   gradient norm :     0.0043160 Eh/α   predicted    -0.9070326E-04 ( -31.69%)
   displ. norm   :     0.3330415 α      lambda       -0.1508590E-03
   maximum displ.:     0.1895742 α      in ANC's #5, #7, #2, ...

........................................................................
.............................. CYCLE   27 ..............................
........................................................................

 iter      E             dE          RMSdq      gap      omega  full diag
   1    -74.4935968 -0.744936E+02  0.103E-01    1.78       0.0  T
   2    -74.4936021 -0.535541E-05  0.578E-02    1.79       1.0  T
   3    -74.4935898  0.122999E-04  0.201E-02    1.79       1.0  T
   4    -74.4936045 -0.146907E-04  0.574E-03    1.80       2.5  T
   5    -74.4936047 -0.208591E-06  0.212E-03    1.79       6.9  T
   6    -74.4936049 -0.171418E-06  0.706E-04    1.79      20.7  T
   7    -74.4936049 -0.134284E-07  0.277E-04    1.80      52.6  T
     SCC iter.                  ...        0 min,  0.021 sec
     gradient                   ...        0 min,  0.007 sec
 * total energy  :   -73.4866695 Eh     change       -0.1196990E-03 Eh
   gradient norm :     0.0038840 Eh/α   predicted    -0.8379630E-04 ( -29.99%)
   displ. norm   :     0.3403935 α      lambda       -0.1458670E-03
   maximum displ.:     0.1944898 α      in ANC's #5, #7, #1, ...

........................................................................
.............................. CYCLE   28 ..............................
........................................................................

 iter      E             dE          RMSdq      gap      omega  full diag
   1    -74.4935107 -0.744935E+02  0.105E-01    1.79       0.0  T
   2    -74.4935158 -0.507021E-05  0.589E-02    1.81       1.0  T
   3    -74.4935049  0.108792E-04  0.189E-02    1.81       1.0  T
   4    -74.4935178 -0.129356E-04  0.554E-03    1.81       2.6  T
   5    -74.4935181 -0.234520E-06  0.192E-03    1.81       7.6  T
   6    -74.4935182 -0.131044E-06  0.736E-04    1.81      19.8  T
   7    -74.4935182 -0.156932E-07  0.276E-04    1.81      52.8  T
     SCC iter.                  ...        0 min,  0.021 sec
     gradient                   ...        0 min,  0.005 sec
 * total energy  :   -73.4867847 Eh     change       -0.1152178E-03 Eh
   gradient norm :     0.0038829 Eh/α   predicted    -0.8138614E-04 ( -29.36%)
   displ. norm   :     0.3608736 α      lambda       -0.1510605E-03
   maximum displ.:     0.2056533 α      in ANC's #5, #7, #1, ...

........................................................................
.............................. CYCLE   29 ..............................
........................................................................

 iter      E             dE          RMSdq      gap      omega  full diag
   1    -74.4945698 -0.744946E+02  0.109E-01    1.80       0.0  T
   2    -74.4945745 -0.473751E-05  0.617E-02    1.82       1.0  T
   3    -74.4945661  0.842591E-05  0.167E-02    1.82       1.0  T
   4    -74.4945761 -0.100336E-04  0.527E-03    1.82       2.8  T
   5    -74.4945764 -0.285646E-06  0.154E-03    1.82       9.5  T
   6    -74.4945765 -0.661193E-07  0.758E-04    1.82      19.3  T
   7    -74.4945765 -0.180131E-07  0.282E-04    1.82      51.7  T
     SCC iter.                  ...        0 min,  0.021 sec
     gradient                   ...        0 min,  0.008 sec
 * total energy  :   -73.4869026 Eh     change       -0.1179534E-03 Eh
   gradient norm :     0.0042142 Eh/α   predicted    -0.8536677E-04 ( -27.63%)
   displ. norm   :     0.3828566 α      lambda       -0.1471301E-03
   maximum displ.:     0.2168130 α      in ANC's #5, #1, #7, ...

........................................................................
.............................. CYCLE   30 ..............................
........................................................................

 iter      E             dE          RMSdq      gap      omega  full diag
   1    -74.4958810 -0.744959E+02  0.113E-01    1.82       0.0  T
   2    -74.4958855 -0.442193E-05  0.643E-02    1.83       1.0  T
   3    -74.4958795  0.592512E-05  0.143E-02    1.83       1.0  T
   4    -74.4958867 -0.711341E-05  0.497E-03    1.84       2.9  T
   5    -74.4958870 -0.353979E-06  0.128E-03    1.84      11.4  T
   6    -74.4958870 -0.286961E-07  0.628E-04    1.84      23.2  T
   7    -74.4958870 -0.127443E-07  0.264E-04    1.84      55.2  T
     SCC iter.                  ...        0 min,  0.021 sec
     gradient                   ...        0 min,  0.006 sec
 * total energy  :   -73.4870185 Eh     change       -0.1158480E-03 Eh
   gradient norm :     0.0042092 Eh/α   predicted    -0.8434893E-04 ( -27.19%)
   displ. norm   :     0.4197803 α      lambda       -0.1456355E-03
   maximum displ.:     0.2366044 α      in ANC's #5, #1, #7, ...

........................................................................
.............................. CYCLE   31 ..............................
........................................................................

 iter      E             dE          RMSdq      gap      omega  full diag
   1    -74.4966272 -0.744966E+02  0.121E-01    1.84       0.0  T
   2    -74.4966320 -0.483180E-05  0.694E-02    1.85       1.0  T
   3    -74.4966267  0.539391E-05  0.138E-02    1.85       1.1  T
   4    -74.4966331 -0.645323E-05  0.511E-03    1.85       2.9  T
   5    -74.4966336 -0.454340E-06  0.155E-03    1.85       9.4  T
   6    -74.4966336 -0.364339E-07  0.781E-04    1.85      18.7  T
   7    -74.4966336 -0.197993E-07  0.347E-04    1.85      42.0  T
     SCC iter.                  ...        0 min,  0.024 sec
     gradient                   ...        0 min,  0.010 sec
 * total energy  :   -73.4871339 Eh     change       -0.1153855E-03 Eh
   gradient norm :     0.0037683 Eh/α   predicted    -0.8565723E-04 ( -25.76%)
   displ. norm   :     0.4375689 α      lambda       -0.1391936E-03
   maximum displ.:     0.2427593 α      in ANC's #5, #1, #2, ...

........................................................................
.............................. CYCLE   32 ..............................
........................................................................

 iter      E             dE          RMSdq      gap      omega  full diag
   1    -74.4969469 -0.744969E+02  0.124E-01    1.85       0.0  T
   2    -74.4969518 -0.494111E-05  0.713E-02    1.87       1.0  T
   3    -74.4969463  0.556942E-05  0.139E-02    1.87       1.1  T
   4    -74.4969529 -0.660668E-05  0.508E-03    1.87       2.9  T
   5    -74.4969534 -0.492779E-06  0.163E-03    1.87       9.0  T
   6    -74.4969534 -0.337794E-07  0.808E-04    1.87      18.1  T
   7    -74.4969534 -0.208156E-07  0.366E-04    1.87      39.8  T
     SCC iter.                  ...        0 min,  0.029 sec
     gradient                   ...        0 min,  0.007 sec
 * total energy  :   -73.4872411 Eh     change       -0.1071802E-03 Eh
   gradient norm :     0.0036506 Eh/α   predicted    -0.8292417E-04 ( -22.63%)
   displ. norm   :     0.4027149 α      lambda       -0.1131496E-03
   maximum displ.:     0.2165738 α      in ANC's #5, #1, #7, ...

........................................................................
.............................. CYCLE   33 ..............................
........................................................................

 iter      E             dE          RMSdq      gap      omega  full diag
   1    -74.4969271 -0.744969E+02  0.113E-01    1.87       0.0  T
   2    -74.4969311 -0.400898E-05  0.651E-02    1.88       1.0  T
   3    -74.4969259  0.513384E-05  0.129E-02    1.88       1.1  T
   4    -74.4969320 -0.606855E-05  0.455E-03    1.88       3.2  T
   5    -74.4969324 -0.392392E-06  0.136E-03    1.88      10.7  T
   6    -74.4969324 -0.208713E-07  0.636E-04    1.88      22.9  T
   7    -74.4969324 -0.116327E-07  0.296E-04    1.88      49.3  T
     SCC iter.                  ...        0 min,  0.039 sec
     gradient                   ...        0 min,  0.010 sec
 * total energy  :   -73.4873269 Eh     change       -0.8581508E-04 Eh
   gradient norm :     0.0035725 Eh/α   predicted    -0.6575125E-04 ( -23.38%)
   displ. norm   :     0.3449920 α      lambda       -0.9153395E-04
   maximum displ.:     0.1720951 α      in ANC's #5, #1, #2, ...

........................................................................
.............................. CYCLE   34 ..............................
........................................................................

 iter      E             dE          RMSdq      gap      omega  full diag
   1    -74.4977625 -0.744978E+02  0.944E-02    1.88       0.0  T
   2    -74.4977650 -0.253704E-05  0.545E-02    1.89       1.0  T
   3    -74.4977614  0.366460E-05  0.109E-02    1.89       1.3  T
   4    -74.4977657 -0.435299E-05  0.378E-03    1.89       3.9  T
   5    -74.4977659 -0.235605E-06  0.120E-03    1.89      12.1  T
   6    -74.4977660 -0.216909E-07  0.634E-04    1.89      23.0  T
   7    -74.4977660 -0.105948E-07  0.283E-04    1.89      51.5  T
     SCC iter.                  ...        0 min,  0.020 sec
     gradient                   ...        0 min,  0.008 sec
 * total energy  :   -73.4873961 Eh     change       -0.6917788E-04 Eh
   gradient norm :     0.0032651 Eh/α   predicted    -0.5121437E-04 ( -25.97%)
   displ. norm   :     0.4348339 α      lambda       -0.8549751E-04
   maximum displ.:     0.2206621 α      in ANC's #5, #1, #7, ...

........................................................................
.............................. CYCLE   35 ..............................
........................................................................

 iter      E             dE          RMSdq      gap      omega  full diag
   1    -74.4945349 -0.744945E+02  0.122E-01    1.89       0.0  T
   2    -74.4945397 -0.486901E-05  0.701E-02    1.90       1.0  T
   3    -74.4945327  0.702031E-05  0.156E-02    1.90       1.0  T
   4    -74.4945409 -0.820288E-05  0.572E-03    1.90       2.5  T
   5    -74.4945414 -0.503368E-06  0.199E-03    1.90       7.3  T
   6    -74.4945415 -0.104701E-06  0.883E-04    1.90      16.5  T
   7    -74.4945416 -0.197422E-07  0.392E-04    1.90      37.2  T
     SCC iter.                  ...        0 min,  0.020 sec
     gradient                   ...        0 min,  0.008 sec
 * total energy  :   -73.4874472 Eh     change       -0.5116395E-04 Eh
   gradient norm :     0.0038490 Eh/α   predicted    -0.5083348E-04 (  -0.65%)
   displ. norm   :     0.3279663 α      lambda       -0.1532796E-03
   maximum displ.:     0.1570416 α      in ANC's #1, #8, #15, ...

........................................................................
.............................. CYCLE   36 ..............................
........................................................................

 iter      E             dE          RMSdq      gap      omega  full diag
   1    -74.5011050 -0.745011E+02  0.793E-02    1.91       0.0  T
   2    -74.5011065 -0.149186E-05  0.464E-02    1.91       1.0  T
   3    -74.5011032  0.324973E-05  0.988E-03    1.91       1.5  T
   4    -74.5011071 -0.386391E-05  0.303E-03    1.91       4.8  T
   5    -74.5011072 -0.127998E-06  0.142E-03    1.91      10.3  T
   6    -74.5011072 -0.431877E-07  0.573E-04    1.91      25.4  T
   7    -74.5011072 -0.373726E-08  0.281E-04    1.91      51.9  T
     SCC iter.                  ...        0 min,  0.020 sec
     gradient                   ...        0 min,  0.008 sec
 * total energy  :   -73.4874854 Eh     change       -0.3816151E-04 Eh
   gradient norm :     0.0060158 Eh/α   predicted    -0.8489181E-04 ( 122.45%)
   displ. norm   :     0.1546645 α      lambda       -0.8053827E-04
   maximum displ.:     0.0788924 α      in ANC's #5, #1, #2, ...

........................................................................
.............................. CYCLE   37 ..............................
........................................................................

 iter      E             dE          RMSdq      gap      omega  full diag
   1    -74.4981472 -0.744981E+02  0.439E-02    1.91       0.0  T
   2    -74.4981480 -0.779278E-06  0.248E-02    1.91       1.0  T
   3    -74.4981474  0.581662E-06  0.522E-03    1.91       2.8  T
   4    -74.4981481 -0.716437E-06  0.228E-03    1.91       6.4  T
   5    -74.4981482 -0.873795E-07  0.745E-04    1.91      19.6  T
   6    -74.4981483 -0.148674E-07  0.333E-04    1.91      43.8  T
     SCC iter.                  ...        0 min,  0.017 sec
     gradient                   ...        0 min,  0.006 sec
 * total energy  :   -73.4875398 Eh     change       -0.5438706E-04 Eh
   gradient norm :     0.0030993 Eh/α   predicted    -0.4123275E-04 ( -24.19%)
   displ. norm   :     0.1098940 α      lambda       -0.6015615E-04
   maximum displ.:     0.0543716 α      in ANC's #1, #3, #7, ...

........................................................................
.............................. CYCLE   38 ..............................
........................................................................

 iter      E             dE          RMSdq      gap      omega  full diag
   1    -74.4969969 -0.744970E+02  0.268E-02    1.91       0.0  T
   2    -74.4969975 -0.581510E-06  0.150E-02    1.91       1.0  T
   3    -74.4969970  0.515477E-06  0.467E-03    1.91       3.1  T
   4    -74.4969976 -0.618240E-06  0.178E-03    1.91       8.2  T
   5    -74.4969977 -0.489668E-07  0.726E-04    1.91      20.1  T
   6    -74.4969977 -0.152348E-07  0.233E-04    1.91      62.5  T
     SCC iter.                  ...        0 min,  0.016 sec
     gradient                   ...        0 min,  0.006 sec
 * total energy  :   -73.4875794 Eh     change       -0.3962415E-04 Eh
   gradient norm :     0.0025723 Eh/α   predicted    -0.3044187E-04 ( -23.17%)
   displ. norm   :     0.2140985 α      lambda       -0.6122898E-04
   maximum displ.:     0.1141071 α      in ANC's #1, #3, #2, ...

........................................................................
.............................. CYCLE   39 ..............................
........................................................................

 iter      E             dE          RMSdq      gap      omega  full diag
   1    -74.4972099 -0.744972E+02  0.466E-02    1.91       0.0  T
   2    -74.4972107 -0.811904E-06  0.268E-02    1.91       1.0  T
   3    -74.4972098  0.917312E-06  0.588E-03    1.91       2.5  T
   4    -74.4972109 -0.106571E-05  0.251E-03    1.91       5.8  T
   5    -74.4972110 -0.128225E-06  0.946E-04    1.91      15.4  T
   6    -74.4972110 -0.218825E-07  0.346E-04    1.91      42.1  T
     SCC iter.                  ...        0 min,  0.017 sec
     gradient                   ...        0 min,  0.006 sec
 * total energy  :   -73.4876226 Eh     change       -0.4318465E-04 Eh
   gradient norm :     0.0029579 Eh/α   predicted    -0.3201794E-04 ( -25.86%)
   displ. norm   :     0.2224200 α      lambda       -0.5703891E-04
   maximum displ.:     0.1179203 α      in ANC's #1, #3, #15, ...

........................................................................
.............................. CYCLE   40 ..............................
........................................................................

 iter      E             dE          RMSdq      gap      omega  full diag
   1    -74.4977800 -0.744978E+02  0.471E-02    1.91       0.0  T
   2    -74.4977807 -0.667186E-06  0.271E-02    1.91       1.0  T
   3    -74.4977799  0.746301E-06  0.536E-03    1.91       2.7  T
   4    -74.4977808 -0.884703E-06  0.227E-03    1.91       6.4  T
   5    -74.4977809 -0.789906E-07  0.904E-04    1.91      16.1  T
   6    -74.4977809 -0.280538E-07  0.300E-04    1.91      48.6  T
     SCC iter.                  ...        0 min,  0.020 sec
     gradient                   ...        0 min,  0.008 sec
 * total energy  :   -73.4876644 Eh     change       -0.4178842E-04 Eh
   gradient norm :     0.0030675 Eh/α   predicted    -0.2993056E-04 ( -28.38%)
   displ. norm   :     0.1907116 α      lambda       -0.4708168E-04
   maximum displ.:     0.1053591 α      in ANC's #1, #3, #15, ...

........................................................................
.............................. CYCLE   41 ..............................
........................................................................

 iter      E             dE          RMSdq      gap      omega  full diag
   1    -74.4987798 -0.744988E+02  0.400E-02    1.91       0.0  T
   2    -74.4987802 -0.379702E-06  0.231E-02    1.92       1.0  T
   3    -74.4987799  0.267653E-06  0.342E-03    1.92       4.3  T
   4    -74.4987803 -0.358625E-06  0.156E-03    1.92       9.3  T
   5    -74.4987803 -0.473240E-07  0.440E-04    1.92      33.1  T
   6    -74.4987803 -0.437619E-08  0.202E-04    1.92      72.2  T
     SCC iter.                  ...        0 min,  0.020 sec
     gradient                   ...        0 min,  0.007 sec
 * total energy  :   -73.4877012 Eh     change       -0.3680535E-04 Eh
   gradient norm :     0.0028691 Eh/α   predicted    -0.2440145E-04 ( -33.70%)
   displ. norm   :     0.2096706 α      lambda       -0.5603235E-04
   maximum displ.:     0.1234127 α      in ANC's #1, #3, #15, ...

........................................................................
.............................. CYCLE   42 ..............................
........................................................................

 iter      E             dE          RMSdq      gap      omega  full diag
   1    -74.4991983 -0.744992E+02  0.471E-02    1.91       0.0  T
   2    -74.4991989 -0.658056E-06  0.269E-02    1.92       1.0  T
   3    -74.4991981  0.804536E-06  0.505E-03    1.92       2.9  T
   4    -74.4991991 -0.973134E-06  0.205E-03    1.92       7.1  T
   5    -74.4991992 -0.774643E-07  0.590E-04    1.92      24.7  T
   6    -74.4991992 -0.856423E-08  0.235E-04    1.92      62.0  T
     SCC iter.                  ...        0 min,  0.038 sec
     gradient                   ...        0 min,  0.008 sec
 * total energy  :   -73.4877451 Eh     change       -0.4392826E-04 Eh
   gradient norm :     0.0025288 Eh/α   predicted    -0.2925252E-04 ( -33.41%)
   displ. norm   :     0.2362156 α      lambda       -0.5309243E-04
   maximum displ.:     0.1441822 α      in ANC's #1, #3, #2, ...
 * RMSD in coord.:     0.7599769 α      energy gain  -0.2082160E-02 Eh

generating ANC from exact Hessian ...
Using Lindh-Hessian (1995)
 Shifting diagonal of input Hessian by   9.909005575189079E-003
 Lowest  eigenvalues of input Hessian
    0.000000    0.000000    0.000000    0.000000    0.000000    0.000000
    0.010000    0.010100    0.010362    0.010517    0.010913    0.011261
    0.011442    0.011926    0.012094    0.012685    0.012916    0.014797
 Highest eigenvalues
    1.924483    1.988898    2.011927    2.026259    2.090167    2.185954
 

........................................................................
.............................. CYCLE   43 ..............................
........................................................................

 iter      E             dE          RMSdq      gap      omega  full diag
   1    -74.4990367 -0.744990E+02  0.533E-02    1.92       0.0  T
   2    -74.4990376 -0.899415E-06  0.304E-02    1.92       1.0  T
   3    -74.4990367  0.885896E-06  0.553E-03    1.92       2.6  T
   4    -74.4990377 -0.105242E-05  0.244E-03    1.92       6.0  T
   5    -74.4990379 -0.127846E-06  0.775E-04    1.92      18.8  T
   6    -74.4990379 -0.161239E-07  0.310E-04    1.92      47.0  T
     SCC iter.                  ...        0 min,  0.033 sec
     gradient                   ...        0 min,  0.008 sec
 * total energy  :   -73.4877864 Eh     change       -0.4129432E-04 Eh
   gradient norm :     0.0025434 Eh/α   predicted     0.0000000E+00 (-100.00%)
   displ. norm   :     0.0288082 α      lambda       -0.1477229E-04
   maximum displ.:     0.0126012 α      in ANC's #1, #3, #2, ...

........................................................................
.............................. CYCLE   44 ..............................
........................................................................

 iter      E             dE          RMSdq      gap      omega  full diag
   1    -74.4987256 -0.744987E+02  0.103E-02    1.92       0.0  T
   2    -74.4987257 -0.743540E-07  0.611E-03    1.92       2.4  T
   3    -74.4987255  0.153985E-06  0.199E-03    1.92       7.3  T
   4    -74.4987257 -0.168716E-06  0.486E-04    1.92      30.0  T
   5    -74.4987257 -0.851108E-08  0.178E-04    1.92      81.9  T
     SCC iter.                  ...        0 min,  0.025 sec
     gradient                   ...        0 min,  0.010 sec
 * total energy  :   -73.4878017 Eh     change       -0.1529862E-04 Eh
   gradient norm :     0.0012032 Eh/α   predicted    -0.9414861E-05 ( -38.46%)
   displ. norm   :     0.1237897 α      lambda       -0.2878002E-04
   maximum displ.:     0.0560069 α      in ANC's #1, #3, #2, ...

........................................................................
.............................. CYCLE   45 ..............................
........................................................................

 iter      E             dE          RMSdq      gap      omega  full diag
   1    -74.4980606 -0.744981E+02  0.390E-02    1.91       0.0  T
   2    -74.4980611 -0.531646E-06  0.230E-02    1.91       1.0  T
   3    -74.4980603  0.844543E-06  0.483E-03    1.91       3.0  T
   4    -74.4980612 -0.937106E-06  0.138E-03    1.91      10.6  T
   5    -74.4980613 -0.630833E-07  0.577E-04    1.91      25.3  T
   6    -74.4980613 -0.156948E-08  0.314E-04    1.91      46.4  T
     SCC iter.                  ...        0 min,  0.033 sec
     gradient                   ...        0 min,  0.007 sec
 * total energy  :   -73.4878257 Eh     change       -0.2403313E-04 Eh
   gradient norm :     0.0025790 Eh/α   predicted    -0.1589469E-04 ( -33.86%)
   displ. norm   :     0.0405302 α      lambda       -0.1096720E-04
   maximum displ.:     0.0203799 α      in ANC's #1, #2, #3, ...

........................................................................
.............................. CYCLE   46 ..............................
........................................................................

 iter      E             dE          RMSdq      gap      omega  full diag
   1    -74.4982096 -0.744982E+02  0.112E-02    1.91       0.0  T
   2    -74.4982096 -0.201709E-07  0.658E-03    1.91       2.2  T
   3    -74.4982096  0.309575E-07  0.917E-04    1.91      15.9  T
   4    -74.4982096 -0.366136E-07  0.302E-04    1.91      48.3  T
     SCC iter.                  ...        0 min,  0.024 sec
     gradient                   ...        0 min,  0.008 sec
 * total energy  :   -73.4878366 Eh     change       -0.1084719E-04 Eh
   gradient norm :     0.0021337 Eh/α   predicted    -0.5820989E-05 ( -46.34%)
   displ. norm   :     0.1662046 α      lambda       -0.4604438E-04
   maximum displ.:     0.0828651 α      in ANC's #1, #2, #3, ...

........................................................................
.............................. CYCLE   47 ..............................
........................................................................

 iter      E             dE          RMSdq      gap      omega  full diag
   1    -74.4985147 -0.744985E+02  0.452E-02    1.91       0.0  T
   2    -74.4985150 -0.357044E-06  0.265E-02    1.91       1.0  T
   3    -74.4985142  0.815589E-06  0.464E-03    1.91       3.1  T
   4    -74.4985151 -0.921346E-06  0.137E-03    1.91      10.7  T
   5    -74.4985152 -0.392218E-07  0.540E-04    1.91      27.0  T
   6    -74.4985152 -0.558875E-08  0.236E-04    1.91      61.8  T
     SCC iter.                  ...        0 min,  0.034 sec
     gradient                   ...        0 min,  0.008 sec
 * total energy  :   -73.4878721 Eh     change       -0.3553829E-04 Eh
   gradient norm :     0.0012085 Eh/α   predicted    -0.2366889E-04 ( -33.40%)
   displ. norm   :     0.3253987 α      lambda       -0.3777988E-04
   maximum displ.:     0.1642930 α      in ANC's #1, #2, #3, ...

........................................................................
.............................. CYCLE   48 ..............................
........................................................................

 iter      E             dE          RMSdq      gap      omega  full diag
   1    -74.4978857 -0.744979E+02  0.873E-02    1.91       0.0  T
   2    -74.4978866 -0.895644E-06  0.511E-02    1.91       1.0  T
   3    -74.4978858  0.764033E-06  0.548E-03    1.91       2.7  T
   4    -74.4978868 -0.977292E-06  0.243E-03    1.91       6.0  T
   5    -74.4978869 -0.108429E-06  0.926E-04    1.91      15.7  T
   6    -74.4978869 -0.239964E-07  0.376E-04    1.91      38.8  T
     SCC iter.                  ...        0 min,  0.018 sec
     gradient                   ...        0 min,  0.006 sec
 * total energy  :   -73.4879074 Eh     change       -0.3527342E-04 Eh
   gradient norm :     0.0033633 Eh/α   predicted    -0.1978437E-04 ( -43.91%)
   displ. norm   :     0.1168617 α      lambda       -0.2384636E-04
   maximum displ.:     0.0614020 α      in ANC's #1, #2, #5, ...

........................................................................
.............................. CYCLE   49 ..............................
........................................................................

 iter      E             dE          RMSdq      gap      omega  full diag
   1    -74.4981719 -0.744982E+02  0.312E-02    1.91       0.0  T
   2    -74.4981720 -0.997430E-07  0.182E-02    1.91       1.0  T
   3    -74.4981720  0.262404E-07  0.159E-03    1.91       9.2  T
   4    -74.4981720 -0.454698E-07  0.862E-04    1.91      16.9  T
   5    -74.4981721 -0.199158E-07  0.230E-04    1.91      63.3  T
     SCC iter.                  ...        0 min,  0.014 sec
     gradient                   ...        0 min,  0.006 sec
 * total energy  :   -73.4879292 Eh     change       -0.2179049E-04 Eh
   gradient norm :     0.0028014 Eh/α   predicted    -0.1208658E-04 ( -44.53%)
   displ. norm   :     0.2761251 α      lambda       -0.6202231E-04
   maximum displ.:     0.1463450 α      in ANC's #1, #2, #5, ...

........................................................................
.............................. CYCLE   50 ..............................
........................................................................

 iter      E             dE          RMSdq      gap      omega  full diag
   1    -74.4984527 -0.744985E+02  0.736E-02    1.90       0.0  T
   2    -74.4984534 -0.673671E-06  0.428E-02    1.90       1.0  T
   3    -74.4984523  0.103890E-05  0.574E-03    1.90       2.5  T
   4    -74.4984535 -0.121873E-05  0.239E-03    1.90       6.1  T
   5    -74.4984537 -0.103279E-06  0.894E-04    1.90      16.3  T
   6    -74.4984537 -0.264896E-07  0.296E-04    1.90      49.3  T
     SCC iter.                  ...        0 min,  0.017 sec
     gradient                   ...        0 min,  0.006 sec
 * total energy  :   -73.4879791 Eh     change       -0.4989264E-04 Eh
   gradient norm :     0.0012052 Eh/α   predicted    -0.3337589E-04 ( -33.10%)
   displ. norm   :     0.5594131 α      lambda       -0.5513853E-04
   maximum displ.:     0.2992284 α      in ANC's #1, #2, #5, ...

........................................................................
.............................. CYCLE   51 ..............................
........................................................................

 iter      E             dE          RMSdq      gap      omega  full diag
   1    -74.4963351 -0.744963E+02  0.147E-01    1.90       0.0  T
   2    -74.4963377 -0.264987E-05  0.856E-02    1.90       1.0  T
   3    -74.4963337  0.396617E-05  0.113E-02    1.90       1.3  T
   4    -74.4963384 -0.467852E-05  0.459E-03    1.90       3.2  T
   5    -74.4963388 -0.366615E-06  0.184E-03    1.90       7.9  T
   6    -74.4963389 -0.112314E-06  0.598E-04    1.90      24.4  T
   7    -74.4963389 -0.533286E-08  0.333E-04    1.90      43.8  T
     SCC iter.                  ...        0 min,  0.019 sec
     gradient                   ...        0 min,  0.006 sec
 * total energy  :   -73.4880298 Eh     change       -0.5070390E-04 Eh
   gradient norm :     0.0029653 Eh/α   predicted    -0.3140533E-04 ( -38.06%)
   displ. norm   :     0.1343358 α      lambda       -0.2610660E-04
   maximum displ.:     0.0767464 α      in ANC's #2, #1, #3, ...

........................................................................
.............................. CYCLE   52 ..............................
........................................................................

 iter      E             dE          RMSdq      gap      omega  full diag
   1    -74.4977399 -0.744977E+02  0.321E-02    1.90       0.0  T
   2    -74.4977401 -0.168514E-06  0.186E-02    1.90       1.0  T
   3    -74.4977399  0.228528E-06  0.273E-03    1.90       5.3  T
   4    -74.4977401 -0.269909E-06  0.118E-03    1.90      12.4  T
   5    -74.4977401 -0.262029E-07  0.488E-04    1.90      29.9  T
   6    -74.4977402 -0.655636E-08  0.164E-04    1.90      88.9  T
     SCC iter.                  ...        0 min,  0.017 sec
     gradient                   ...        0 min,  0.006 sec
 * total energy  :   -73.4880506 Eh     change       -0.2083559E-04 Eh
   gradient norm :     0.0024576 Eh/α   predicted    -0.1329042E-04 ( -36.21%)
   displ. norm   :     0.2128356 α      lambda       -0.3292897E-04
   maximum displ.:     0.1243694 α      in ANC's #1, #2, #3, ...

........................................................................
.............................. CYCLE   53 ..............................
........................................................................

 iter      E             dE          RMSdq      gap      omega  full diag
   1    -74.4991095 -0.744991E+02  0.494E-02    1.90       0.0  T
   2    -74.4991099 -0.317890E-06  0.289E-02    1.90       1.0  T
   3    -74.4991097  0.178004E-06  0.301E-03    1.90       4.8  T
   4    -74.4991100 -0.271251E-06  0.133E-03    1.90      11.0  T
   5    -74.4991100 -0.235335E-07  0.574E-04    1.90      25.4  T
   6    -74.4991100 -0.104602E-07  0.240E-04    1.90      60.7  T
     SCC iter.                  ...        0 min,  0.017 sec
     gradient                   ...        0 min,  0.006 sec
 * total energy  :   -73.4880776 Eh     change       -0.2697048E-04 Eh
   gradient norm :     0.0013593 Eh/α   predicted    -0.1721094E-04 ( -36.19%)
   displ. norm   :     0.3611940 α      lambda       -0.2950234E-04
   maximum displ.:     0.2139451 α      in ANC's #2, #1, #3, ...

........................................................................
.............................. CYCLE   54 ..............................
........................................................................

 iter      E             dE          RMSdq      gap      omega  full diag
   1    -74.4993127 -0.744993E+02  0.839E-02    1.90       0.0  T
   2    -74.4993135 -0.836006E-06  0.491E-02    1.89       1.0  T
   3    -74.4993130  0.467108E-06  0.474E-03    1.89       3.1  T
   4    -74.4993138 -0.740551E-06  0.200E-03    1.89       7.3  T
   5    -74.4993138 -0.592553E-07  0.667E-04    1.89      21.9  T
   6    -74.4993138 -0.644542E-08  0.374E-04    1.89      39.0  T
     SCC iter.                  ...        0 min,  0.017 sec
     gradient                   ...        0 min,  0.006 sec
 * total energy  :   -73.4881128 Eh     change       -0.3523438E-04 Eh
   gradient norm :     0.0015789 Eh/α   predicted    -0.1560791E-04 ( -55.70%)
   displ. norm   :     0.2355295 α      lambda       -0.1982179E-04
   maximum displ.:     0.1467202 α      in ANC's #2, #1, #3, ...

........................................................................
.............................. CYCLE   55 ..............................
........................................................................

 iter      E             dE          RMSdq      gap      omega  full diag
   1    -74.4993539 -0.744994E+02  0.517E-02    1.89       0.0  T
   2    -74.4993542 -0.309177E-06  0.303E-02    1.89       1.0  T
   3    -74.4993540  0.177118E-06  0.284E-03    1.89       5.1  T
   4    -74.4993543 -0.277524E-06  0.125E-03    1.89      11.6  T
   5    -74.4993543 -0.255453E-07  0.448E-04    1.89      32.5  T
   6    -74.4993543 -0.211575E-08  0.246E-04    1.89      59.3  T
     SCC iter.                  ...        0 min,  0.016 sec
     gradient                   ...        0 min,  0.006 sec
 * total energy  :   -73.4881401 Eh     change       -0.2730389E-04 Eh
   gradient norm :     0.0016101 Eh/α   predicted    -0.1015592E-04 ( -62.80%)
   displ. norm   :     0.2368967 α      lambda       -0.2517054E-04
   maximum displ.:     0.1526808 α      in ANC's #2, #1, #3, ...

........................................................................
.............................. CYCLE   56 ..............................
........................................................................

 iter      E             dE          RMSdq      gap      omega  full diag
   1    -74.4993579 -0.744994E+02  0.477E-02    1.89       0.0  T
   2    -74.4993582 -0.262214E-06  0.280E-02    1.89       1.0  T
   3    -74.4993581  0.785949E-07  0.238E-03    1.89       6.1  T
   4    -74.4993582 -0.162997E-06  0.116E-03    1.89      12.5  T
   5    -74.4993583 -0.213114E-07  0.419E-04    1.89      34.8  T
   6    -74.4993583 -0.155059E-08  0.212E-04    1.89      68.9  T
     SCC iter.                  ...        0 min,  0.016 sec
     gradient                   ...        0 min,  0.009 sec
 * total energy  :   -73.4881744 Eh     change       -0.3424242E-04 Eh
   gradient norm :     0.0011787 Eh/α   predicted    -0.1290274E-04 ( -62.32%)
   displ. norm   :     0.3054742 α      lambda       -0.3273079E-04
   maximum displ.:     0.2004577 α      in ANC's #2, #1, #3, ...

........................................................................
.............................. CYCLE   57 ..............................
........................................................................

 iter      E             dE          RMSdq      gap      omega  full diag
   1    -74.4989967 -0.744990E+02  0.564E-02    1.89       0.0  T
   2    -74.4989971 -0.404381E-06  0.331E-02    1.89       1.0  T
   3    -74.4989970  0.109248E-06  0.294E-03    1.89       5.0  T
   4    -74.4989972 -0.243662E-06  0.146E-03    1.89      10.0  T
   5    -74.4989973 -0.292397E-07  0.603E-04    1.89      24.2  T
   6    -74.4989973 -0.502028E-08  0.320E-04    1.89      45.6  T
     SCC iter.                  ...        0 min,  0.029 sec
     gradient                   ...        0 min,  0.006 sec
 * total energy  :   -73.4882171 Eh     change       -0.4276546E-04 Eh
[...]
H32-C7-C6-H31=  0.90          C9-C8-C7-C6=179.53            C9-C8-C7-H32=  0.41           C24-C8-C7-C6=  0.35           
C24-C8-C7-H32=181.23          C10-C9-C8-C7=  0.38           C10-C9-C8-C24=179.55          H33-C9-C8-C7=180.55           
H33-C9-C8-C24=359.73          C11-C10-C9-C8=181.58          C11-C10-C9-H33=  1.41         H34-C10-C9-C8=359.61          
H34-C10-C9-H33=179.44         
           -------------------------------------------------
          |                Final Singlepoint                |
           -------------------------------------------------

          ...................................................
          :                      SETUP                      :
          :.................................................:
          :  # basis functions                 128          :
          :  # atomic orbitals                 127          :
          :  # shells                           73          :
          :  # electrons                       132          :
          :  max. iterations                   250          :
          :  Hamiltonian                  GFN2-xTB          :
          :  restarted?                      false          :
          :  GBSA solvation                  false          :
          :  PC potential                    false          :
          :  electronic temp.          300.0000000     K    :
          :  accuracy                    1.0000000          :
          :  -> integral cutoff          0.2500000E+02      :
          :  -> integral neglect         0.1000000E-07      :
          :  -> SCF convergence          0.1000000E-05 Eh   :
          :  -> wf. convergence          0.1000000E-03 e    :
          :  Broyden damping             0.4000000          :
          :  net charge                          0          :
          :  unpaired electrons                  0          :
          ...................................................

 iter      E             dE          RMSdq      gap      omega  full diag
   1    -74.4996838 -0.744997E+02  0.631E-05    1.90       0.0  T
   2    -74.4996838 -0.388809E-10  0.430E-05    1.90     339.6  T
   3    -74.4996838 -0.453326E-10  0.265E-05    1.90     549.7  T

   *** convergence criteria satisfied after 3 iterations ***

         #    Occupation            Energy/Eh            Energy/eV
      -------------------------------------------------------------
         1        2.0000           -0.7222768             -19.6542
       ...           ...                  ...                  ...
        60        2.0000           -0.4174170             -11.3585
        61        2.0000           -0.4091978             -11.1348
        62        2.0000           -0.4085092             -11.1161
        63        2.0000           -0.4065561             -11.0630
        64        2.0000           -0.4055740             -11.0362
        65        2.0000           -0.3780738             -10.2879
        66        2.0000           -0.3691564             -10.0453 (HOMO)
        67                         -0.2991495              -8.1403 (LUMO)
        68                         -0.2400137              -6.5311
        69                         -0.2376330              -6.4663
        70                         -0.2248685              -6.1190
        71                         -0.2217032              -6.0329
       ...                                ...                  ...
       127                          0.6935708              18.8730
      -------------------------------------------------------------
                  HL-Gap            0.0700069 Eh            1.9050 eV
             Fermi-level           -0.3341529 Eh           -9.0928 eV

 SCC (total)                   0 d,  0 h,  0 min,  0.020 sec
 SCC setup                      ...        0 min,  0.001 sec (  5.716%)
 Dispersion                     ...        0 min,  0.000 sec (  1.262%)
 classical contributions        ...        0 min,  0.000 sec (  0.813%)
 integral evaluation            ...        0 min,  0.001 sec (  7.052%)
 iterations                     ...        0 min,  0.010 sec ( 47.064%)
 molecular gradient             ...        0 min,  0.006 sec ( 27.439%)
 printout                       ...        0 min,  0.002 sec ( 10.527%)

         :::::::::::::::::::::::::::::::::::::::::::::::::::::
         ::                     SUMMARY                     ::
         :::::::::::::::::::::::::::::::::::::::::::::::::::::
         :: total energy             -73.488533614478 Eh    ::
         :: gradient norm              0.000500161553 Eh/a0 ::
         :: HOMO-LUMO gap              1.904985466793 eV    ::
         ::.................................................::
         :: SCC energy               -74.499389560775 Eh    ::
         :: -> isotropic ES            0.092146459901 Eh    ::
         :: -> anisotropic ES          0.002128912280 Eh    ::
         :: -> anisotropic XC          0.026231877984 Eh    ::
         :: -> dispersion             -0.051056744206 Eh    ::
         :: repulsion energy           1.010855946297 Eh    ::
         :: add. restraining           0.000000000000 Eh    ::
         :: total charge              -0.000000000000 e     ::
         :::::::::::::::::::::::::::::::::::::::::::::::::::::

           -------------------------------------------------
          |                Property Printout                |
           -------------------------------------------------

    * Orbital Energies and Occupations

         #    Occupation            Energy/Eh            Energy/eV
      -------------------------------------------------------------
         1        2.0000           -0.7222768             -19.6542
       ...           ...                  ...                  ...
        54        2.0000           -0.4412505             -12.0070
        55        2.0000           -0.4362992             -11.8723
        56        2.0000           -0.4341710             -11.8144
        57        2.0000           -0.4298540             -11.6969
        58        2.0000           -0.4242606             -11.5447
        59        2.0000           -0.4219722             -11.4824
        60        2.0000           -0.4174170             -11.3585
        61        2.0000           -0.4091978             -11.1348
        62        2.0000           -0.4085092             -11.1161
        63        2.0000           -0.4065561             -11.0630
        64        2.0000           -0.4055740             -11.0362
        65        2.0000           -0.3780738             -10.2879
        66        2.0000           -0.3691564             -10.0453 (HOMO)
        67                         -0.2991495              -8.1403 (LUMO)
        68                         -0.2400137              -6.5311
        69                         -0.2376330              -6.4663
        70                         -0.2248685              -6.1190
        71                         -0.2217032              -6.0329
        72                         -0.2002424              -5.4489
        73                         -0.1659712              -4.5163
        74                         -0.1469596              -3.9990
        75                         -0.0975525              -2.6545
        76                         -0.0933232              -2.5395
        77                         -0.0178335              -0.4853
       ...                                ...                  ...
       127                          0.6935708              18.8730
      -------------------------------------------------------------
                  HL-Gap            0.0700069 Eh            1.9050 eV
             Fermi-level           -0.3341529 Eh           -9.0928 eV

     #   Z          covCN         q      C6AA      α(0)
     1   8 O        1.656    -0.432    21.476     6.256
     2   6 C        3.700     0.084    19.329     6.287
     3   6 C        3.793    -0.023    20.984     6.523
     4  16 S        2.053    -0.157   147.697    20.455
     5   6 C        2.967     0.063    26.585     8.457
     6   6 C        2.945    -0.035    28.875     8.813
     7   6 C        2.924    -0.030    28.738     8.791
     8   6 C        2.970     0.014    27.686     8.631
     9   6 C        2.909    -0.007    28.205     8.708
    10   6 C        2.892    -0.064    29.598     8.920
    11   6 C        2.836     0.212    23.522     7.948
    12   6 C        3.701     0.252    16.861     5.872
    13   8 O        1.700    -0.342    19.747     6.000
    14   6 C        3.645     0.047    20.118     6.446
    15   8 O        1.701    -0.320    19.341     5.938
    16   6 C        3.645     0.045    20.158     6.453
    17   6 C        2.987    -0.007    28.176     8.707
    18   6 C        2.922    -0.035    28.872     8.812
    19   6 C        2.920    -0.030    28.751     8.793
    20   6 C        2.920    -0.030    28.738     8.791
    21   6 C        2.921    -0.027    28.665     8.780
    22   6 C        2.921    -0.026    28.642     8.776
    23   8 O        0.857    -0.365    20.997     6.144
    24   6 C        2.928    -0.026    28.649     8.778
    25   6 C        2.969    -0.031    28.772     8.798
    26   1 H        0.805     0.289     0.755     1.365
    27   1 H        0.923     0.023     2.688     2.564
    28   1 H        0.924     0.064     2.151     2.294
    29   1 H        0.925     0.048     2.349     2.397
    30   1 H        0.925     0.058     2.227     2.334
    31   1 H        0.926     0.034     2.528     2.486
    32   1 H        0.926     0.044     2.395     2.420
    33   1 H        0.925     0.071     2.071     2.250
    34   1 H        0.926     0.063     2.164     2.300
    35   1 H        0.924     0.032     2.559     2.502
    36   1 H        0.924     0.044     2.391     2.418
    37   1 H        0.925     0.055     2.263     2.352
    38   1 H        0.924     0.045     2.388     2.417
    39   1 H        0.925     0.057     2.239     2.340
    40   1 H        0.924     0.035     2.513     2.479
    41   1 H        0.926     0.036     2.498     2.471
    42   1 H        0.926     0.034     2.531     2.488
    43   1 H        0.926     0.036     2.507     2.476
    44   1 H        0.926     0.039     2.459     2.452
    45   1 H        0.926     0.061     2.192     2.315
    46   1 H        0.926     0.049     2.337     2.390
    47   1 H        0.926     0.052     2.290     2.367

 Mol. C6AA /au·bohr⁶  :      27107.307490
 Mol. C8AA /au·bohr⁸  :     682724.856911
 Mol. α(0) /au        :        258.754551


Wiberg/Mayer (AO) data.
largest (>0.10) Wiberg bond orders for each atom

 ---------------------------------------------------------------------------
     #   Z sym  total        # sym  WBO       # sym  WBO       # sym  WBO
 ---------------------------------------------------------------------------
     1   8 O    1.975 --     2 C    1.009    26 H    0.900
     2   6 C    3.957 --     1 O    1.009     3 C    1.000    28 H    0.969
                            27 H    0.962
     3   6 C    3.977 --     2 C    1.000     4 S    0.981    30 H    0.971
                            29 H    0.969
     4  16 S    2.203 --     5 C    1.040     3 C    0.981
     5   6 C    3.956 --    25 C    1.379     6 C    1.377     4 S    1.040
     6   6 C    3.991 --     7 C    1.481     5 C    1.377    31 H    0.964
     7   6 C    3.991 --     6 C    1.481     8 C    1.344    32 H    0.964
     8   6 C    3.986 --    24 C    1.348     7 C    1.344     9 C    1.135
     9   6 C    3.973 --    10 C    1.728     8 C    1.135    33 H    0.957
    10   6 C    3.974 --     9 C    1.728    11 C    1.086    34 H    0.957
    11   6 C    3.924 --    23 O    1.788    10 C    1.086    12 C    0.903
    12   6 C    3.924 --    15 O    0.979    13 O    0.955    17 C    0.942
                            11 C    0.903
    13   8 O    2.074 --    14 C    0.981    12 C    0.955
    14   6 C    3.946 --    37 H    0.981    13 O    0.981    36 H    0.979
                            35 H    0.978
    15   8 O    2.093 --    12 C    0.979    16 C    0.979
    16   6 C    3.945 --    39 H    0.981    40 H    0.980    15 O    0.979
                            38 H    0.978
    17   6 C    3.982 --    22 C    1.409    18 C    1.406    12 C    0.942
                            20 C    0.107
    18   6 C    3.991 --    19 C    1.446    17 C    1.406    41 H    0.967
                            21 C    0.110
    19   6 C    3.992 --    18 C    1.446    20 C    1.436    42 H    0.971
                            22 C    0.111
    20   6 C    3.991 --    21 C    1.438    19 C    1.436    43 H    0.971
                            17 C    0.107
    21   6 C    3.991 --    22 C    1.444    20 C    1.438    44 H    0.970
                            18 C    0.110
    22   6 C    3.988 --    21 C    1.444    17 C    1.409    45 H    0.965
                            19 C    0.111
    23   8 O    2.056 --    11 C    1.788
    24   6 C    3.989 --    25 C    1.477     8 C    1.348    46 H    0.966
    25   6 C    3.990 --    24 C    1.477     5 C    1.379    47 H    0.967
    26   1 H    0.917 --     1 O    0.900
    27   1 H    0.999 --     2 C    0.962
    28   1 H    0.996 --     2 C    0.969
    29   1 H    0.998 --     3 C    0.969
    30   1 H    0.996 --     3 C    0.971
    31   1 H    0.998 --     6 C    0.964
    32   1 H    0.998 --     7 C    0.964
    33   1 H    0.994 --     9 C    0.957
    34   1 H    0.996 --    10 C    0.957
    35   1 H    0.999 --    14 C    0.978
    36   1 H    0.998 --    14 C    0.979
    37   1 H    0.996 --    14 C    0.981
    38   1 H    0.998 --    16 C    0.978
    39   1 H    0.996 --    16 C    0.981
    40   1 H    0.999 --    16 C    0.980
    41   1 H    0.999 --    18 C    0.967
    42   1 H    0.998 --    19 C    0.971
    43   1 H    0.998 --    20 C    0.971
    44   1 H    0.998 --    21 C    0.970
    45   1 H    0.996 --    22 C    0.965
    46   1 H    0.997 --    24 C    0.966
    47   1 H    0.997 --    25 C    0.967
 ---------------------------------------------------------------------------

Topologies differ in total number of bonds
Writing topology from bond orders to xtbtopo.mol

molecular dipole:
                 x           y           z       tot (Debye)
 q only:        1.119       0.953       1.034
   full:        0.978       1.319       1.500       5.652
molecular quadrupole (traceless):
                xx          xy          yy          xz          yz          zz
 q only:        4.920       2.406      -1.187       0.125       0.262      -3.733
  q+dip:        2.085       9.633      -1.339       3.964       2.826      -0.747
   full:        0.594       9.020       0.856       2.605       1.107      -1.450

           -------------------------------------------------
          |                Geometry Summary                 |
           -------------------------------------------------

      molecular mass/u    :      358.4518216
   center of mass at/Å    :        0.2587974      -0.1904472      -0.1200648
  moments of inertia/u·Å² :        0.1303607E+04   0.6293691E+04   0.6804452E+04
rotational constants/cm⁻¹ :        0.1293153E-01   0.2678497E-02   0.2477442E-02

 * 42 selected distances

     #   Z          #   Z                                           value/Å
     1   8 O        2   6 C                                       1.4019234
     2   6 C        3   6 C                                       1.5264654 (max)
     5   6 C        6   6 C                                       1.3906227
     6   6 C        7   6 C                                       1.3771274
     7   6 C        8   6 C                                       1.3995600
     9   6 C       10   6 C                                       1.3447409
    12   6 C       13   8 O                                       1.4149225
    13   8 O       14   6 C                                       1.4144921
    12   6 C       15   8 O                                       1.4010164
    15   8 O       16   6 C                                       1.4154921
    17   6 C       18   6 C                                       1.3895877
    18   6 C       19   6 C                                       1.3830200
    19   6 C       20   6 C                                       1.3846678
    20   6 C       21   6 C                                       1.3846849
    17   6 C       22   6 C                                       1.3874239
    21   6 C       22   6 C                                       1.3835117
    11   6 C       23   8 O                                       1.2134056
     8   6 C       24   6 C                                       1.4001255
     5   6 C       25   6 C                                       1.3906373
    24   6 C       25   6 C                                       1.3770763
     1   8 O       26   1 H                                       0.9640786 (min)
     2   6 C       27   1 H                                       1.1015620
     2   6 C       28   1 H                                       1.0925103
     3   6 C       29   1 H                                       1.0898514
     3   6 C       30   1 H                                       1.0887973
     6   6 C       31   1 H                                       1.0804759
     7   6 C       32   1 H                                       1.0789771
     9   6 C       33   1 H                                       1.0842472
    10   6 C       34   1 H                                       1.0763899
    14   6 C       35   1 H                                       1.0946554
    14   6 C       36   1 H                                       1.0929324
    14   6 C       37   1 H                                       1.0883046
    16   6 C       38   1 H                                       1.0930879
    16   6 C       39   1 H                                       1.0883800
    16   6 C       40   1 H                                       1.0942656
    18   6 C       41   1 H                                       1.0800345
    19   6 C       42   1 H                                       1.0802611
    20   6 C       43   1 H                                       1.0801477
    21   6 C       44   1 H                                       1.0799257
    22   6 C       45   1 H                                       1.0775217
    24   6 C       46   1 H                                       1.0800462
    25   6 C       47   1 H                                       1.0790252

 * 4 distinct bonds (by element types)

   Z      Z             #   av. dist./Å        max./Å        min./Å
   1 H    6 C          21     1.0857809     1.1015620     1.0763899
   6 C    6 C          14     1.3942323     1.5264654     1.3447409
   1 H    8 O           1     0.9640786     0.9640786     0.9640786
   6 C    8 O           6     1.3768753     1.4154921     1.2134056


optimized geometry written to: xtbopt.xyz


           -------------------------------------------------
          | TOTAL ENERGY              -73.488533614478 Eh   |
          | GRADIENT NORM               0.000500161553 Eh/α |
          | HOMO-LUMO GAP               1.904985466793 eV   |
           -------------------------------------------------

------------------------------------------------------------------------
 * finished run on 2025/12/01 at 14:18:55.423     
------------------------------------------------------------------------
 total:
 * wall-time:     0 d,  0 h,  0 min,  2.643 sec
 *  cpu-time:     0 d,  0 h,  1 min,  0.391 sec
 * ratio c/w:    22.846 speedup
 SCF:
 * wall-time:     0 d,  0 h,  0 min,  0.057 sec
 *  cpu-time:     0 d,  0 h,  0 min,  1.302 sec
 * ratio c/w:    22.668 speedup
 ANC optimizer:
 * wall-time:     0 d,  0 h,  0 min,  2.576 sec
 *  cpu-time:     0 d,  0 h,  0 min, 58.902 sec
 * ratio c/w:    22.866 speedup

normal termination of xtb
