      -----------------------------------------------------------      
     |                   =====================                   |     
     |                           x T B                           |     
     |                   =====================                   |     
     |                         S. Grimme                         |     
     |          Mulliken Center for Theoretical Chemistry        |     
     |                    University of Bonn                     |     
      -----------------------------------------------------------      

   * xtb version 6.7.1 (edcfbbe) compiled by 'albert@albert-system' on 2024-07-22

   xtb is free software: you can redistribute it and/or modify it under
   the terms of the GNU Lesser General Public License as published by
   the Free Software Foundation, either version 3 of the License, or
   (at your option) any later version.
   
   xtb is distributed in the hope that it will be useful,
   but WITHOUT ANY WARRANTY; without even the implied warranty of
   MERCHANTABILITY or FITNESS FOR A PARTICULAR PURPOSE.  See the
   GNU Lesser General Public License for more details.
   
   Cite this work as:
   * C. Bannwarth, E. Caldeweyher, S. Ehlert, A. Hansen, P. Pracht,
     J. Seibert, S. Spicher, S. Grimme, WIREs Comput. Mol. Sci., 2020, 11,
     e01493. DOI: 10.1002/wcms.1493
   
   for GFN2-xTB:
   * C. Bannwarth, S. Ehlert and S. Grimme., J. Chem. Theory Comput., 2019,
     15, 1652-1671. DOI: 10.1021/acs.jctc.8b01176
   for GFN1-xTB:
   * S. Grimme, C. Bannwarth, P. Shushkov, J. Chem. Theory Comput., 2017,
     13, 1989-2009. DOI: 10.1021/acs.jctc.7b00118
   for GFN0-xTB:
   * P. Pracht, E. Caldeweyher, S. Ehlert, S. Grimme, ChemRxiv, 2019, preprint.
     DOI: 10.26434/chemrxiv.8326202.v1
   for GFN-FF:
   * S. Spicher and S. Grimme, Angew. Chem. Int. Ed., 2020, 59, 15665-15673.
     DOI: 10.1002/anie.202004239
   
   for ALPB and GBSA implicit solvation:
   * S. Ehlert, M. Stahn, S. Spicher, S. Grimme, J. Chem. Theory Comput.,
     2021, 17, 4250-4261. DOI: 10.1021/acs.jctc.1c00471
   
   for ddCOSMO and CPCM-X implicit solvation:
   * M. Stahn, S. Ehlert, S. Grimme, J. Phys. Chem. A,
     2023, XX, XXXX-XXXX. DOI: 10.1021/acs.jpca.3c04382
   
   for DFT-D4:
   * E. Caldeweyher, C. Bannwarth and S. Grimme, J. Chem. Phys., 2017,
     147, 034112. DOI: 10.1063/1.4993215
   * E. Caldeweyher, S. Ehlert, A. Hansen, H. Neugebauer, S. Spicher,
     C. Bannwarth and S. Grimme, J. Chem. Phys., 2019, 150, 154122.
     DOI: 10.1063/1.5090222
   * E. Caldeweyher, J.-M. Mewes, S. Ehlert and S. Grimme, Phys. Chem. Chem. Phys.
     2020, 22, 8499-8512. DOI: 10.1039/D0CP00502A
   
   for sTDA-xTB:
   * S. Grimme and C. Bannwarth, J. Chem. Phys., 2016, 145, 054103.
     DOI: 10.1063/1.4959605
   
   in the mass-spec context:
   * V. Asgeirsson, C. Bauer and S. Grimme, Chem. Sci., 2017, 8, 4879.
     DOI: 10.1039/c7sc00601b
   * J. Koopman and S. Grimme, ACS Omega 2019, 4, 12, 15120-15133.
     DOI: 10.1021/acsomega.9b02011
   
   for metadynamics refer to:
   * S. Grimme, J. Chem. Theory Comput., 2019, 155, 2847-2862
     DOI: 10.1021/acs.jctc.9b00143
   
   for SPH calculations refer to:
   * S. Spicher and S. Grimme, J. Chem. Theory Comput., 2021, 17, 1701-1714
     DOI: 10.1021/acs.jctc.0c01306
   
   for ONIOM refer to:
   * C. Plett, A. Katbashev, S. Ehlert, S. Grimme, M. Bursch,
     Phys. Chem. Chem. Phys., 2023, 25, 17860-17868. DOI: 10.1039/D3CP02178E
   
   for DIPRO refer to:
   * J. Kohn, N. Gildemeister, S. Grimme, D. Fazzi, A. Hansen,
     J. Chem. Phys., 2023, just accepted.
   
   for PTB refer to:
   * S. Grimme, M. Mueller, A. Hansen, J. Chem. Phys., 2023, 158, 124111.
     DOI: 10.1063/5.0137838
   
   with help from (in alphabetical order)
   P. Atkinson, C. Bannwarth, F. Bohle, G. Brandenburg, E. Caldeweyher
   M. Checinski, S. Dohm, S. Ehlert, S. Ehrlich, I. Gerasimov, C. Hölzer
   A. Katbashev, J. Kohn, J. Koopman, C. Lavigne, S. Lehtola, F. März, M. Müller,
   F. Musil, H. Neugebauer, J. Pisarek, C. Plett, P. Pracht, F. Pultar,
   J. Seibert, P. Shushkov, S. Spicher, M. Stahn, M. Steiner, T. Strunk,
   J. Stückrath, T. Rose, and J. Unsleber
   
 * started run on 2025/12/01 at 14:18:47.705     
   ID    Z sym.   atoms
    1    8 O      1, 13, 15, 23
    2    6 C      2, 3, 5-12, 14, 16-22, 24, 25
    3   16 S      4
    4    1 H      26-47

           -------------------------------------------------
          |                Calculation Setup                |
           -------------------------------------------------

          program call               : xtb pipeline_data/3_conformer_xyz/acrylates/rdkit/PUUAYUBAIZMECZ-JLHYYAGUSA-N_conf89.xyz --opt --gfn 2-xTB --iterations 250
          coordinate file            : pipeline_data/3_conformer_xyz/acrylates/rdkit/PUUAYUBAIZMECZ-JLHYYAGUSA-N_conf89.xyz
          omp threads                :                    24

########################################################################
[WARNING] Please study the warnings concerning your input carefully
-1- readin_getIntValue: could not parse '2-xTB'
########################################################################

           -------------------------------------------------
          |                 G F N 2 - x T B                 |
           -------------------------------------------------

        Reference                      10.1021/acs.jctc.8b01176
      * Hamiltonian:
        H0-scaling (s, p, d)           1.850000    2.230000    2.230000
        zeta-weighting                 0.500000
      * Dispersion:
        s8                             2.700000
        a1                             0.520000
        a2                             5.000000
        s9                             5.000000
      * Repulsion:
        kExp                           1.500000    1.000000
        rExp                           1.000000
      * Coulomb:
        alpha                          2.000000
        third order                    shell-resolved
        anisotropic                    true
        a3                             3.000000
        a5                             4.000000
        cn-shift                       1.200000
        cn-exp                         4.000000
        max-rad                        5.000000

q/qsh data taken from xtbrestart
CAMM data taken from xtbrestart

          ...................................................
          :                      SETUP                      :
          :.................................................:
          :  # basis functions                 128          :
          :  # atomic orbitals                 127          :
          :  # shells                           73          :
          :  # electrons                       132          :
          :  max. iterations                   250          :
          :  Hamiltonian                  GFN2-xTB          :
          :  restarted?                       true          :
          :  GBSA solvation                  false          :
          :  PC potential                    false          :
          :  electronic temp.          300.0000000     K    :
          :  accuracy                    1.0000000          :
          :  -> integral cutoff          0.2500000E+02      :
          :  -> integral neglect         0.1000000E-07      :
          :  -> SCF convergence          0.1000000E-05 Eh   :
          :  -> wf. convergence          0.1000000E-03 e    :
          :  Broyden damping             0.4000000          :
          :  net charge                          0          :
          :  unpaired electrons                  0          :
          ...................................................

 iter      E             dE          RMSdq      gap      omega  full diag
   1    -74.4393431 -0.744393E+02  0.537E+00    2.03       0.0  T
   2    -74.4540112 -0.146681E-01  0.304E+00    1.86       1.0  T
   3    -74.4528844  0.112679E-02  0.590E-01    1.44       1.0  T
   4    -74.4563450 -0.346055E-02  0.311E-01    1.41       1.0  T
   5    -74.4583968 -0.205177E-02  0.101E-01    1.47       1.0  T
   6    -74.4585114 -0.114664E-03  0.476E-02    1.49       1.0  T
   7    -74.4585330 -0.215442E-04  0.187E-02    1.49       1.0  T
   8    -74.4585338 -0.850088E-06  0.790E-03    1.49       1.8  T
   9    -74.4585350 -0.115510E-05  0.356E-03    1.49       4.1  T
  10    -74.4585351 -0.137296E-06  0.142E-03    1.49      10.3  T
  11    -74.4585351 -0.360069E-07  0.626E-04    1.49      23.3  T
  12    -74.4585352 -0.461453E-08  0.251E-04    1.49      58.0  T

   *** convergence criteria satisfied after 12 iterations ***

         #    Occupation            Energy/Eh            Energy/eV
      -------------------------------------------------------------
         1        2.0000           -0.7303046             -19.8726
       ...           ...                  ...                  ...
        60        2.0000           -0.4237941             -11.5320
        61        2.0000           -0.4152720             -11.3001
        62        2.0000           -0.4131583             -11.2426
        63        2.0000           -0.4101163             -11.1598
        64        2.0000           -0.4095933             -11.1456
        65        2.0000           -0.3945624             -10.7366
        66        2.0000           -0.3663194              -9.9681 (HOMO)
        67                         -0.3116390              -8.4801 (LUMO)
        68                         -0.2497436              -6.7959
        69                         -0.2476400              -6.7386
        70                         -0.2343243              -6.3763
        71                         -0.2277030              -6.1961
       ...                                ...                  ...
       127                          0.7117746              19.3684
      -------------------------------------------------------------
                  HL-Gap            0.0546804 Eh            1.4879 eV
             Fermi-level           -0.3389792 Eh           -9.2241 eV

 SCC (total)                   0 d,  0 h,  0 min,  0.071 sec
 SCC setup                      ...        0 min,  0.000 sec (  0.696%)
 Dispersion                     ...        0 min,  0.001 sec (  2.100%)
 classical contributions        ...        0 min,  0.000 sec (  0.250%)
 integral evaluation            ...        0 min,  0.008 sec ( 11.791%)
 iterations                     ...        0 min,  0.054 sec ( 75.730%)
 molecular gradient             ...        0 min,  0.006 sec (  8.910%)
 printout                       ...        0 min,  0.000 sec (  0.455%)

         :::::::::::::::::::::::::::::::::::::::::::::::::::::
         ::                     SUMMARY                     ::
         :::::::::::::::::::::::::::::::::::::::::::::::::::::
         :: total energy             -73.454514147795 Eh    ::
         :: gradient norm              0.153566555893 Eh/a0 ::
         :: HOMO-LUMO gap              1.487929488037 eV    ::
         ::.................................................::
         :: SCC energy               -74.458475203211 Eh    ::
         :: -> isotropic ES            0.092433055948 Eh    ::
         :: -> anisotropic ES          0.000256822072 Eh    ::
         :: -> anisotropic XC          0.026366075555 Eh    ::
         :: -> dispersion             -0.050595055686 Eh    ::
         :: repulsion energy           1.003961055416 Eh    ::
         :: add. restraining           0.000000000000 Eh    ::
         :: total charge              -0.000000000000 e     ::
         :::::::::::::::::::::::::::::::::::::::::::::::::::::

      ----------------------------------------------------------- 
     |                   =====================                   |
     |                        A N C O P T                        |
     |                   =====================                   |
     |               Approximate Normal Coordinate               |
     |                Rational Function Optimizer                |
      ----------------------------------------------------------- 
      ----------------------------------------------------------- 
     |                   =====================                   |
     |                        A N C O P T                        |
     |                   =====================                   |
     |               Approximate Normal Coordinate               |
     |                Rational Function Optimizer                |
      ----------------------------------------------------------- 

          ...................................................
          :                      SETUP                      :
          :.................................................:
          :   optimization level            normal          :
          :   max. optcycles                   200          :
          :   ANC micro-cycles                  20          :
          :   degrees of freedom               135          :
          :.................................................:
          :   RF solver                   davidson          :
          :   write xtbopt.log                true          :
          :   linear?                        false          :
          :   energy convergence         0.5000000E-05 Eh   :
          :   grad. convergence          0.1000000E-02 Eh/α :
          :   maxmium RF displ.          1.0000000          :
          :   Hlow (freq-cutoff)         0.1000000E-01      :
          :   Hmax (freq-cutoff)         5.0000000          :
          :   S6 in model hess.         20.0000000          :
          ...................................................

generating ANC from exact Hessian ...
Using Lindh-Hessian (1995)
 Shifting diagonal of input Hessian by   9.894284297309864E-003
 Lowest  eigenvalues of input Hessian
    0.000000    0.000000    0.000000    0.000000    0.000000    0.000000
    0.010000    0.010102    0.010354    0.010554    0.010952    0.011190
    0.011543    0.011722    0.012338    0.012949    0.013317    0.014792
 Highest eigenvalues
    1.975617    2.015981    2.026041    2.033089    2.060779    2.154333
 

........................................................................
.............................. CYCLE    1 ..............................
........................................................................

 iter      E             dE          RMSdq      gap      omega  full diag
   1    -74.4585352 -0.744585E+02  0.110E-04    1.49       0.0  T
   2    -74.4585352 -0.710401E-10  0.632E-05    1.49     230.9  T
   3    -74.4585352 -0.378293E-10  0.444E-05    1.49     328.7  T
     SCC iter.                  ...        0 min,  0.013 sec
     gradient                   ...        0 min,  0.005 sec
 * total energy  :   -73.4545141 Eh     change       -0.1013831E-08 Eh
   gradient norm :     0.1535672 Eh/α   predicted     0.0000000E+00 (-100.00%)
   displ. norm   :     0.3785496 α      lambda       -0.2885020E-01
   maximum displ.:     0.1226124 α      in ANC's #31, #28, #27, ...

........................................................................
.............................. CYCLE    2 ..............................
........................................................................

 iter      E             dE          RMSdq      gap      omega  full diag
   1    -74.4800562 -0.744801E+02  0.261E-01    1.55       0.0  T
   2    -74.4804074 -0.351201E-03  0.160E-01    1.55       1.0  T
   3    -74.4803863  0.211145E-04  0.666E-02    1.56       1.0  T
   4    -74.4804393 -0.529806E-04  0.243E-02    1.56       1.0  T
   5    -74.4804570 -0.177452E-04  0.842E-03    1.56       1.7  T
   6    -74.4804579 -0.920884E-06  0.397E-03    1.56       3.7  T
   7    -74.4804581 -0.134251E-06  0.211E-03    1.56       6.9  T
   8    -74.4804581 -0.629715E-07  0.930E-04    1.56      15.7  T
   9    -74.4804581 -0.131044E-07  0.326E-04    1.56      44.8  T
     SCC iter.                  ...        0 min,  0.034 sec
     gradient                   ...        0 min,  0.007 sec
 * total energy  :   -73.4741024 Eh     change       -0.1958822E-01 Eh
   gradient norm :     0.0579009 Eh/α   predicted    -0.1651687E-01 ( -15.68%)
   displ. norm   :     0.3462735 α      lambda       -0.8142511E-02
   maximum displ.:     0.1243566 α      in ANC's #31, #10, #27, ...

........................................................................
.............................. CYCLE    3 ..............................
........................................................................

 iter      E             dE          RMSdq      gap      omega  full diag
   1    -74.4892837 -0.744893E+02  0.154E-01    1.58       0.0  T
   2    -74.4894296 -0.145896E-03  0.963E-02    1.58       1.0  T
   3    -74.4894217  0.793753E-05  0.410E-02    1.57       1.0  T
   4    -74.4894438 -0.221379E-04  0.145E-02    1.58       1.0  T
   5    -74.4894512 -0.740213E-05  0.486E-03    1.58       3.0  T
   6    -74.4894518 -0.561505E-06  0.218E-03    1.58       6.7  T
   7    -74.4894519 -0.670642E-07  0.117E-03    1.58      12.5  T
   8    -74.4894519 -0.161470E-07  0.487E-04    1.58      30.0  T
   9    -74.4894519 -0.342524E-08  0.181E-04    1.58      80.8  T
     SCC iter.                  ...        0 min,  0.034 sec
     gradient                   ...        0 min,  0.007 sec
 * total energy  :   -73.4791232 Eh     change       -0.5020789E-02 Eh
   gradient norm :     0.0170406 Eh/α   predicted    -0.4559422E-02 (  -9.19%)
   displ. norm   :     0.3035848 α      lambda       -0.1941406E-02
   maximum displ.:     0.1303068 α      in ANC's #10, #16, #17, ...

........................................................................
.............................. CYCLE    4 ..............................
........................................................................

 iter      E             dE          RMSdq      gap      omega  full diag
   1    -74.4867997 -0.744868E+02  0.893E-02    1.57       0.0  T
   2    -74.4868126 -0.128591E-04  0.532E-02    1.59       1.0  T
   3    -74.4867986  0.140398E-04  0.218E-02    1.58       1.0  T
   4    -74.4868162 -0.175963E-04  0.736E-03    1.59       2.0  T
   5    -74.4868171 -0.912195E-06  0.341E-03    1.59       4.3  T
   6    -74.4868173 -0.251991E-06  0.116E-03    1.59      12.6  T
   7    -74.4868173 -0.241663E-07  0.593E-04    1.59      24.6  T
   8    -74.4868174 -0.382509E-08  0.212E-04    1.59      68.9  T
     SCC iter.                  ...        0 min,  0.027 sec
     gradient                   ...        0 min,  0.008 sec
 * total energy  :   -73.4805536 Eh     change       -0.1430460E-02 Eh
   gradient norm :     0.0102592 Eh/α   predicted    -0.1060205E-02 ( -25.88%)
   displ. norm   :     0.3909712 α      lambda       -0.1376973E-02
   maximum displ.:     0.1841296 α      in ANC's #10, #16, #17, ...

........................................................................
.............................. CYCLE    5 ..............................
........................................................................

 iter      E             dE          RMSdq      gap      omega  full diag
   1    -74.4840687 -0.744841E+02  0.115E-01    1.59       0.0  T
   2    -74.4840772 -0.850120E-05  0.654E-02    1.60       1.0  T
   3    -74.4840647  0.125011E-04  0.209E-02    1.59       1.0  T
   4    -74.4840804 -0.157253E-04  0.766E-03    1.60       1.9  T
   5    -74.4840809 -0.409757E-06  0.321E-03    1.60       4.5  T
   6    -74.4840811 -0.269436E-06  0.951E-04    1.60      15.3  T
   7    -74.4840811 -0.981694E-08  0.565E-04    1.60      25.8  T
     SCC iter.                  ...        0 min,  0.024 sec
     gradient                   ...        0 min,  0.007 sec
 * total energy  :   -73.4815008 Eh     change       -0.9471878E-03 Eh
   gradient norm :     0.0127273 Eh/α   predicted    -0.7937278E-03 ( -16.20%)
   displ. norm   :     0.3299925 α      lambda       -0.7281814E-03
   maximum displ.:     0.1577643 α      in ANC's #10, #16, #17, ...

........................................................................
.............................. CYCLE    6 ..............................
........................................................................

 iter      E             dE          RMSdq      gap      omega  full diag
   1    -74.4845953 -0.744846E+02  0.928E-02    1.60       0.0  T
   2    -74.4845990 -0.370458E-05  0.515E-02    1.61       1.0  T
   3    -74.4845958  0.324881E-05  0.126E-02    1.61       1.2  T
   4    -74.4846001 -0.426515E-05  0.583E-03    1.61       2.5  T
   5    -74.4846004 -0.389372E-06  0.159E-03    1.61       9.2  T
   6    -74.4846005 -0.999782E-07  0.563E-04    1.61      25.9  T
   7    -74.4846006 -0.220409E-08  0.356E-04    1.61      41.0  T
     SCC iter.                  ...        0 min,  0.023 sec
     gradient                   ...        0 min,  0.007 sec
 * total energy  :   -73.4820566 Eh     change       -0.5557521E-03 Eh
   gradient norm :     0.0139352 Eh/α   predicted    -0.4037675E-03 ( -27.35%)
   displ. norm   :     0.3799751 α      lambda       -0.7802882E-03
   maximum displ.:     0.1685562 α      in ANC's #10, #16, #8, ...

........................................................................
.............................. CYCLE    7 ..............................
........................................................................

 iter      E             dE          RMSdq      gap      omega  full diag
   1    -74.4877376 -0.744877E+02  0.108E-01    1.62       0.0  T
   2    -74.4877435 -0.588919E-05  0.593E-02    1.62       1.0  T
   3    -74.4877401  0.340760E-05  0.138E-02    1.63       1.1  T
   4    -74.4877446 -0.446131E-05  0.679E-03    1.63       2.1  T
   5    -74.4877452 -0.671760E-06  0.248E-03    1.63       5.9  T
   6    -74.4877454 -0.207097E-06  0.774E-04    1.63      18.9  T
   7    -74.4877455 -0.117701E-07  0.403E-04    1.63      36.2  T
     SCC iter.                  ...        0 min,  0.022 sec
     gradient                   ...        0 min,  0.007 sec
 * total energy  :   -73.4826348 Eh     change       -0.5782486E-03 Eh
   gradient norm :     0.0103684 Eh/α   predicted    -0.4464760E-03 ( -22.79%)
   displ. norm   :     0.3754861 α      lambda       -0.5896232E-03
   maximum displ.:     0.1548691 α      in ANC's #8, #10, #16, ...

........................................................................
.............................. CYCLE    8 ..............................
........................................................................

 iter      E             dE          RMSdq      gap      omega  full diag
   1    -74.4893617 -0.744894E+02  0.109E-01    1.63       0.0  T
   2    -74.4893676 -0.590282E-05  0.606E-02    1.64       1.0  T
   3    -74.4893654  0.223960E-05  0.131E-02    1.64       1.1  T
   4    -74.4893687 -0.328217E-05  0.664E-03    1.64       2.2  T
   5    -74.4893694 -0.690200E-06  0.224E-03    1.64       6.5  T
   6    -74.4893695 -0.159291E-06  0.782E-04    1.64      18.6  T
   7    -74.4893695 -0.806155E-08  0.426E-04    1.64      34.2  T
     SCC iter.                  ...        0 min,  0.022 sec
     gradient                   ...        0 min,  0.009 sec
 * total energy  :   -73.4830546 Eh     change       -0.4197793E-03 Eh
   gradient norm :     0.0111853 Eh/α   predicted    -0.3363781E-03 ( -19.87%)
   displ. norm   :     0.3570673 α      lambda       -0.5519183E-03
   maximum displ.:     0.1596120 α      in ANC's #8, #3, #11, ...

........................................................................
.............................. CYCLE    9 ..............................
........................................................................

 iter      E             dE          RMSdq      gap      omega  full diag
   1    -74.4930934 -0.744931E+02  0.104E-01    1.64       0.0  T
   2    -74.4930985 -0.510224E-05  0.584E-02    1.64       1.0  T
   3    -74.4930968  0.175271E-05  0.119E-02    1.65       1.2  T
   4    -74.4930997 -0.290066E-05  0.533E-03    1.65       2.7  T
   5    -74.4931001 -0.413688E-06  0.143E-03    1.65      10.2  T
   6    -74.4931001 -0.565313E-07  0.638E-04    1.65      22.9  T
   7    -74.4931001 -0.176630E-08  0.364E-04    1.65      40.1  T
     SCC iter.                  ...        0 min,  0.049 sec
     gradient                   ...        0 min,  0.012 sec
 * total energy  :   -73.4833500 Eh     change       -0.2954241E-03 Eh
   gradient norm :     0.0089481 Eh/α   predicted    -0.3111604E-03 (   5.33%)
   displ. norm   :     0.3716373 α      lambda       -0.4451291E-03
   maximum displ.:     0.1750715 α      in ANC's #8, #14, #11, ...

........................................................................
.............................. CYCLE   10 ..............................
........................................................................

 iter      E             dE          RMSdq      gap      omega  full diag
   1    -74.4898492 -0.744898E+02  0.109E-01    1.65       0.0  T
   2    -74.4898543 -0.505641E-05  0.619E-02    1.65       1.0  T
   3    -74.4898518  0.248787E-05  0.131E-02    1.66       1.1  T
   4    -74.4898550 -0.319891E-05  0.737E-03    1.66       2.0  T
   5    -74.4898560 -0.979899E-06  0.218E-03    1.66       6.7  T
   6    -74.4898561 -0.174332E-06  0.798E-04    1.66      18.3  T
   7    -74.4898561 -0.509407E-08  0.406E-04    1.66      35.9  T
     SCC iter.                  ...        0 min,  0.027 sec
     gradient                   ...        0 min,  0.007 sec
 * total energy  :   -73.4835972 Eh     change       -0.2472380E-03 Eh
   gradient norm :     0.0116624 Eh/α   predicted    -0.2533049E-03 (   2.45%)
   displ. norm   :     0.1901814 α      lambda       -0.2869642E-03
   maximum displ.:     0.0910529 α      in ANC's #5, #8, #1, ...

........................................................................
.............................. CYCLE   11 ..............................
........................................................................

 iter      E             dE          RMSdq      gap      omega  full diag
   1    -74.4914521 -0.744915E+02  0.519E-02    1.66       0.0  T
   2    -74.4914534 -0.127012E-05  0.302E-02    1.66       1.0  T
   3    -74.4914501  0.332340E-05  0.960E-03    1.66       1.5  T
   4    -74.4914538 -0.373186E-05  0.292E-03    1.66       5.0  T
   5    -74.4914539 -0.139738E-06  0.104E-03    1.66      14.0  T
   6    -74.4914540 -0.326209E-07  0.350E-04    1.66      41.7  T
   7    -74.4914540 -0.237380E-08  0.183E-04    1.66      79.8  T
     SCC iter.                  ...        0 min,  0.026 sec
     gradient                   ...        0 min,  0.005 sec
 * total energy  :   -73.4838373 Eh     change       -0.2400659E-03 Eh
   gradient norm :     0.0086206 Eh/α   predicted    -0.1486724E-03 ( -38.07%)
   displ. norm   :     0.4725509 α      lambda       -0.5392709E-03
   maximum displ.:     0.2362969 α      in ANC's #5, #8, #1, ...

........................................................................
.............................. CYCLE   12 ..............................
........................................................................

 iter      E             dE          RMSdq      gap      omega  full diag
   1    -74.4897070 -0.744897E+02  0.125E-01    1.66       0.0  T
   2    -74.4897118 -0.484241E-05  0.724E-02    1.66       1.0  T
   3    -74.4896985  0.133069E-04  0.199E-02    1.67       1.0  T
   4    -74.4897137 -0.151420E-04  0.675E-03    1.67       2.2  T
   5    -74.4897143 -0.599177E-06  0.214E-03    1.67       6.8  T
   6    -74.4897144 -0.167025E-06  0.760E-04    1.67      19.2  T
   7    -74.4897144 -0.522290E-08  0.405E-04    1.67      36.0  T
     SCC iter.                  ...        0 min,  0.026 sec
     gradient                   ...        0 min,  0.005 sec
 * total energy  :   -73.4842137 Eh     change       -0.3763675E-03 Eh
   gradient norm :     0.0061860 Eh/α   predicted    -0.3298470E-03 ( -12.36%)
   displ. norm   :     0.4421214 α      lambda       -0.3658074E-03
   maximum displ.:     0.2364416 α      in ANC's #5, #8, #1, ...

........................................................................
.............................. CYCLE   13 ..............................
........................................................................

 iter      E             dE          RMSdq      gap      omega  full diag
   1    -74.4903951 -0.744904E+02  0.121E-01    1.67       0.0  T
   2    -74.4903988 -0.362339E-05  0.693E-02    1.68       1.0  T
   3    -74.4903926  0.610766E-05  0.150E-02    1.68       1.0  T
   4    -74.4903995 -0.686046E-05  0.649E-03    1.68       2.2  T
   5    -74.4904003 -0.750337E-06  0.168E-03    1.68       8.7  T
   6    -74.4904003 -0.845387E-07  0.668E-04    1.68      21.9  T
   7    -74.4904004 -0.106556E-07  0.329E-04    1.68      44.3  T
     SCC iter.                  ...        0 min,  0.024 sec
     gradient                   ...        0 min,  0.007 sec
 * total energy  :   -73.4844854 Eh     change       -0.2717110E-03 Eh
   gradient norm :     0.0070913 Eh/α   predicted    -0.2186576E-03 ( -19.53%)
   displ. norm   :     0.4866790 α      lambda       -0.3737320E-03
   maximum displ.:     0.2672994 α      in ANC's #5, #8, #1, ...

........................................................................
.............................. CYCLE   14 ..............................
........................................................................

 iter      E             dE          RMSdq      gap      omega  full diag
   1    -74.4901815 -0.744902E+02  0.133E-01    1.68       0.0  T
   2    -74.4901861 -0.461007E-05  0.763E-02    1.69       1.0  T
   3    -74.4901831  0.302713E-05  0.129E-02    1.70       1.1  T
   4    -74.4901867 -0.357202E-05  0.698E-03    1.70       2.1  T
   5    -74.4901877 -0.100718E-05  0.178E-03    1.70       8.2  T
   6    -74.4901878 -0.834175E-07  0.793E-04    1.70      18.4  T
   7    -74.4901878 -0.145015E-07  0.379E-04    1.70      38.4  T
     SCC iter.                  ...        0 min,  0.024 sec
     gradient                   ...        0 min,  0.007 sec
 * total energy  :   -73.4847887 Eh     change       -0.3033033E-03 Eh
   gradient norm :     0.0068252 Eh/α   predicted    -0.2311275E-03 ( -23.80%)
   displ. norm   :     0.4792642 α      lambda       -0.4380253E-03
   maximum displ.:     0.2846908 α      in ANC's #5, #8, #1, ...

........................................................................
.............................. CYCLE   15 ..............................
........................................................................

 iter      E             dE          RMSdq      gap      omega  full diag
   1    -74.4947673 -0.744948E+02  0.139E-01    1.71       0.0  T
   2    -74.4947737 -0.638808E-05  0.795E-02    1.72       1.0  T
   3    -74.4947701  0.363843E-05  0.133E-02    1.72       1.1  T
   4    -74.4947748 -0.466088E-05  0.652E-03    1.72       2.2  T
   5    -74.4947756 -0.874755E-06  0.167E-03    1.72       8.7  T
   6    -74.4947757 -0.520314E-07  0.742E-04    1.72      19.7  T
   7    -74.4947757 -0.940474E-08  0.413E-04    1.72      35.3  T
     SCC iter.                  ...        0 min,  0.024 sec
     gradient                   ...        0 min,  0.007 sec
 * total energy  :   -73.4850817 Eh     change       -0.2929679E-03 Eh
   gradient norm :     0.0082350 Eh/α   predicted    -0.2693238E-03 (  -8.07%)
   displ. norm   :     0.6447661 α      lambda       -0.4390800E-03
   maximum displ.:     0.3475546 α      in ANC's #5, #8, #1, ...

........................................................................
.............................. CYCLE   16 ..............................
........................................................................

 iter      E             dE          RMSdq      gap      omega  full diag
   1    -74.4867652 -0.744868E+02  0.191E-01    1.73       0.0  T
   2    -74.4867800 -0.147365E-04  0.108E-01    1.75       1.0  T
   3    -74.4867729  0.708153E-05  0.202E-02    1.76       1.0  T
   4    -74.4867816 -0.874839E-05  0.104E-02    1.76       1.4  T
   5    -74.4867838 -0.219680E-05  0.261E-03    1.76       5.6  T
   6    -74.4867840 -0.135644E-06  0.116E-03    1.76      12.6  T
   7    -74.4867840 -0.303662E-07  0.556E-04    1.76      26.2  T
   8    -74.4867840 -0.363002E-08  0.283E-04    1.76      51.6  T
     SCC iter.                  ...        0 min,  0.028 sec
     gradient                   ...        0 min,  0.007 sec
 * total energy  :   -73.4851981 Eh     change       -0.1164040E-03 Eh
   gradient norm :     0.0144794 Eh/α   predicted    -0.3108125E-03 ( 167.01%)
   displ. norm   :     0.1420764 α      lambda       -0.3925764E-03
   maximum displ.:     0.0636214 α      in ANC's #5, #12, #11, ...

........................................................................
.............................. CYCLE   17 ..............................
........................................................................

 iter      E             dE          RMSdq      gap      omega  full diag
   1    -74.4947009 -0.744947E+02  0.426E-02    1.76       0.0  T
   2    -74.4947025 -0.151674E-05  0.250E-02    1.76       1.0  T
   3    -74.4947025 -0.978594E-07  0.383E-03    1.76       3.8  T
   4    -74.4947028 -0.261193E-06  0.173E-03    1.76       8.4  T
   5    -74.4947029 -0.403962E-07  0.887E-04    1.76      16.4  T
   6    -74.4947029 -0.731903E-08  0.372E-04    1.76      39.2  T
     SCC iter.                  ...        0 min,  0.018 sec
     gradient                   ...        0 min,  0.008 sec
 * total energy  :   -73.4854115 Eh     change       -0.2134306E-03 Eh
   gradient norm :     0.0068681 Eh/α   predicted    -0.2002496E-03 (  -6.18%)
   displ. norm   :     0.2394312 α      lambda       -0.2746319E-03
   maximum displ.:     0.1424118 α      in ANC's #5, #1, #8, ...

........................................................................
.............................. CYCLE   18 ..............................
........................................................................

 iter      E             dE          RMSdq      gap      omega  full diag
   1    -74.4950218 -0.744950E+02  0.728E-02    1.76       0.0  T
   2    -74.4950246 -0.280043E-05  0.417E-02    1.76       1.0  T
   3    -74.4950230  0.153748E-05  0.830E-03    1.77       1.8  T
   4    -74.4950248 -0.177452E-05  0.425E-03    1.77       3.4  T
   5    -74.4950252 -0.437356E-06  0.139E-03    1.77      10.5  T
   6    -74.4950253 -0.200441E-07  0.674E-04    1.77      21.6  T
   7    -74.4950253 -0.122323E-07  0.283E-04    1.77      51.5  T
     SCC iter.                  ...        0 min,  0.022 sec
     gradient                   ...        0 min,  0.007 sec
 * total energy  :   -73.4855456 Eh     change       -0.1340594E-03 Eh
   gradient norm :     0.0086607 Eh/α   predicted    -0.1451914E-03 (   8.30%)
   displ. norm   :     0.3806954 α      lambda       -0.2226610E-03
   maximum displ.:     0.2282079 α      in ANC's #5, #8, #1, ...

........................................................................
.............................. CYCLE   19 ..............................
........................................................................

 iter      E             dE          RMSdq      gap      omega  full diag
   1    -74.4944997 -0.744945E+02  0.113E-01    1.77       0.0  T
   2    -74.4945037 -0.404903E-05  0.642E-02    1.78       1.0  T
   3    -74.4944995  0.426274E-05  0.132E-02    1.78       1.1  T
   4    -74.4945043 -0.484044E-05  0.626E-03    1.78       2.3  T
   5    -74.4945050 -0.716054E-06  0.175E-03    1.78       8.3  T
   6    -74.4945051 -0.774152E-07  0.743E-04    1.78      19.6  T
   7    -74.4945051 -0.147387E-07  0.301E-04    1.78      48.5  T
     SCC iter.                  ...        0 min,  0.023 sec
     gradient                   ...        0 min,  0.007 sec
 * total energy  :   -73.4857322 Eh     change       -0.1866234E-03 Eh
   gradient norm :     0.0052993 Eh/α   predicted    -0.1274678E-03 ( -31.70%)
   displ. norm   :     0.5745191 α      lambda       -0.3053801E-03
   maximum displ.:     0.3414073 α      in ANC's #5, #8, #1, ...

........................................................................
.............................. CYCLE   20 ..............................
........................................................................

 iter      E             dE          RMSdq      gap      omega  full diag
   1    -74.4928280 -0.744928E+02  0.171E-01    1.78       0.0  T
   2    -74.4928373 -0.936195E-05  0.971E-02    1.80       1.0  T
   3    -74.4928256  0.116839E-04  0.211E-02    1.81       1.0  T
   4    -74.4928389 -0.132718E-04  0.933E-03    1.81       1.6  T
   5    -74.4928404 -0.150548E-05  0.284E-03    1.81       5.1  T
   6    -74.4928406 -0.214444E-06  0.112E-03    1.81      13.0  T
   7    -74.4928407 -0.341250E-07  0.465E-04    1.81      31.4  T
   8    -74.4928407 -0.171657E-08  0.252E-04    1.81      57.9  T
     SCC iter.                  ...        0 min,  0.025 sec
     gradient                   ...        0 min,  0.007 sec
 * total energy  :   -73.4859452 Eh     change       -0.2129859E-03 Eh
   gradient norm :     0.0052287 Eh/α   predicted    -0.2030912E-03 (  -4.65%)
   displ. norm   :     0.4346906 α      lambda       -0.2001314E-03
   maximum displ.:     0.2626302 α      in ANC's #5, #1, #8, ...
 * RMSD in coord.:     0.8467048 α      energy gain  -0.3143101E-01 Eh

generating ANC from exact Hessian ...
Using Lindh-Hessian (1995)
 Shifting diagonal of input Hessian by   9.889301803452356E-003
 Lowest  eigenvalues of input Hessian
    0.000000    0.000000    0.000000    0.000000    0.000000    0.000000
    0.010000    0.010083    0.010299    0.010522    0.010921    0.011160
    0.011495    0.011598    0.012097    0.012589    0.012937    0.014594
 Highest eigenvalues
    1.917091    1.984855    2.008868    2.023302    2.079748    2.176898
 

........................................................................
.............................. CYCLE   21 ..............................
........................................................................

 iter      E             dE          RMSdq      gap      omega  full diag
   1    -74.4933603 -0.744934E+02  0.129E-01    1.81       0.0  T
   2    -74.4933656 -0.530452E-05  0.735E-02    1.82       1.0  T
   3    -74.4933582  0.735978E-05  0.164E-02    1.82       1.0  T
   4    -74.4933666 -0.842494E-05  0.700E-03    1.83       2.1  T
   5    -74.4933674 -0.793758E-06  0.221E-03    1.82       6.6  T
   6    -74.4933676 -0.145515E-06  0.837E-04    1.82      17.4  T
   7    -74.4933676 -0.161838E-07  0.374E-04    1.82      39.0  T
     SCC iter.                  ...        0 min,  0.026 sec
     gradient                   ...        0 min,  0.005 sec
 * total energy  :   -73.4860982 Eh     change       -0.1530390E-03 Eh
   gradient norm :     0.0067093 Eh/α   predicted     0.0000000E+00 (-100.00%)
   displ. norm   :     0.0698847 α      lambda       -0.1632767E-03
   maximum displ.:     0.0381580 α      in ANC's #5, #17, #31, ...

........................................................................
.............................. CYCLE   22 ..............................
........................................................................

 iter      E             dE          RMSdq      gap      omega  full diag
   1    -74.4955620 -0.744956E+02  0.246E-02    1.83       0.0  T
   2    -74.4955625 -0.493043E-06  0.147E-02    1.83       1.0  T
   3    -74.4955616  0.944051E-06  0.500E-03    1.83       2.9  T
   4    -74.4955627 -0.108781E-05  0.141E-03    1.83      10.3  T
   5    -74.4955627 -0.470968E-07  0.623E-04    1.83      23.4  T
   6    -74.4955627 -0.647562E-08  0.287E-04    1.83      50.8  T
     SCC iter.                  ...        0 min,  0.023 sec
     gradient                   ...        0 min,  0.005 sec
 * total energy  :   -73.4862282 Eh     change       -0.1300018E-03 Eh
   gradient norm :     0.0029150 Eh/α   predicted    -0.8243313E-04 ( -36.59%)
   displ. norm   :     0.1794011 α      lambda       -0.2322001E-03
   maximum displ.:     0.1092417 α      in ANC's #5, #17, #15, ...

........................................................................
.............................. CYCLE   23 ..............................
........................................................................

 iter      E             dE          RMSdq      gap      omega  full diag
   1    -74.4973993 -0.744974E+02  0.572E-02    1.83       0.0  T
   2    -74.4974010 -0.168774E-05  0.338E-02    1.84       1.0  T
   3    -74.4973994  0.160282E-05  0.737E-03    1.84       2.0  T
   4    -74.4974015 -0.201878E-05  0.282E-03    1.84       5.2  T
   5    -74.4974016 -0.168554E-06  0.132E-03    1.84      11.1  T
   6    -74.4974016 -0.277485E-07  0.592E-04    1.84      24.7  T
   7    -74.4974017 -0.678449E-08  0.262E-04    1.84      55.8  T
     SCC iter.                  ...        0 min,  0.039 sec
     gradient                   ...        0 min,  0.010 sec
 * total energy  :   -73.4863908 Eh     change       -0.1626142E-03 Eh
   gradient norm :     0.0036439 Eh/α   predicted    -0.1198389E-03 ( -26.30%)
   displ. norm   :     0.1905696 α      lambda       -0.1464263E-03
   maximum displ.:     0.1216956 α      in ANC's #5, #17, #2, ...

........................................................................
.............................. CYCLE   24 ..............................
........................................................................

 iter      E             dE          RMSdq      gap      omega  full diag
   1    -74.4970124 -0.744970E+02  0.590E-02    1.84       0.0  T
   2    -74.4970138 -0.140773E-05  0.346E-02    1.84       1.0  T
   3    -74.4970131  0.738538E-06  0.603E-03    1.84       2.4  T
   4    -74.4970141 -0.108508E-05  0.261E-03    1.84       5.6  T
   5    -74.4970143 -0.150127E-06  0.106E-03    1.84      13.7  T
   6    -74.4970143 -0.129929E-07  0.470E-04    1.84      31.0  T
   7    -74.4970143 -0.264065E-08  0.249E-04    1.84      58.6  T
     SCC iter.                  ...        0 min,  0.026 sec
     gradient                   ...        0 min,  0.005 sec
 * total energy  :   -73.4864999 Eh     change       -0.1090468E-03 Eh
   gradient norm :     0.0065479 Eh/α   predicted    -0.7620301E-04 ( -30.12%)
   displ. norm   :     0.2039349 α      lambda       -0.1470290E-03
   maximum displ.:     0.1336926 α      in ANC's #5, #17, #2, ...

........................................................................
.............................. CYCLE   25 ..............................
........................................................................

 iter      E             dE          RMSdq      gap      omega  full diag
   1    -74.4958549 -0.744959E+02  0.634E-02    1.84       0.0  T
   2    -74.4958563 -0.140998E-05  0.368E-02    1.85       1.0  T
   3    -74.4958550  0.129152E-05  0.714E-03    1.85       2.0  T
   4    -74.4958566 -0.158504E-05  0.312E-03    1.85       4.7  T
   5    -74.4958568 -0.201069E-06  0.117E-03    1.85      12.4  T
   6    -74.4958568 -0.258535E-07  0.536E-04    1.85      27.2  T
   7    -74.4958569 -0.516506E-08  0.236E-04    1.85      61.7  T
     SCC iter.                  ...        0 min,  0.022 sec
     gradient                   ...        0 min,  0.007 sec
 * total energy  :   -73.4866149 Eh     change       -0.1149882E-03 Eh
   gradient norm :     0.0070522 Eh/α   predicted    -0.7657511E-04 ( -33.41%)
   displ. norm   :     0.2566901 α      lambda       -0.1994369E-03
   maximum displ.:     0.1681889 α      in ANC's #5, #2, #3, ...

........................................................................
.............................. CYCLE   26 ..............................
........................................................................

 iter      E             dE          RMSdq      gap      omega  full diag
   1    -74.4947252 -0.744947E+02  0.801E-02    1.84       0.0  T
   2    -74.4947275 -0.229725E-05  0.462E-02    1.85       1.0  T
   3    -74.4947246  0.287569E-05  0.101E-02    1.85       1.4  T
   4    -74.4947280 -0.338856E-05  0.403E-03    1.86       3.6  T
   5    -74.4947283 -0.293570E-06  0.142E-03    1.85      10.3  T
   6    -74.4947283 -0.456965E-07  0.663E-04    1.85      22.0  T
   7    -74.4947283 -0.857059E-08  0.282E-04    1.85      51.7  T
     SCC iter.                  ...        0 min,  0.022 sec
     gradient                   ...        0 min,  0.007 sec
 * total energy  :   -73.4867602 Eh     change       -0.1453334E-03 Eh
   gradient norm :     0.0034388 Eh/α   predicted    -0.1062892E-03 ( -26.87%)
   displ. norm   :     0.2992779 α      lambda       -0.1391140E-03
   maximum displ.:     0.1931230 α      in ANC's #5, #2, #3, ...

........................................................................
.............................. CYCLE   27 ..............................
........................................................................

 iter      E             dE          RMSdq      gap      omega  full diag
   1    -74.4937195 -0.744937E+02  0.896E-02    1.85       0.0  T
   2    -74.4937219 -0.234506E-05  0.515E-02    1.86       1.0  T
   3    -74.4937198  0.202552E-05  0.939E-03    1.86       1.6  T
   4    -74.4937222 -0.239836E-05  0.424E-03    1.87       3.4  T
   5    -74.4937226 -0.371898E-06  0.132E-03    1.86      11.0  T
   6    -74.4937226 -0.331578E-07  0.689E-04    1.86      21.2  T
   7    -74.4937227 -0.115790E-07  0.285E-04    1.86      51.2  T
     SCC iter.                  ...        0 min,  0.022 sec
     gradient                   ...        0 min,  0.005 sec
 * total energy  :   -73.4868692 Eh     change       -0.1089845E-03 Eh
   gradient norm :     0.0043264 Eh/α   predicted    -0.7578794E-04 ( -30.46%)
   displ. norm   :     0.3356202 α      lambda       -0.1630152E-03
   maximum displ.:     0.2127043 α      in ANC's #5, #2, #3, ...

........................................................................
.............................. CYCLE   28 ..............................
........................................................................

 iter      E             dE          RMSdq      gap      omega  full diag
   1    -74.4944779 -0.744945E+02  0.981E-02    1.87       0.0  T
   2    -74.4944808 -0.288856E-05  0.562E-02    1.88       1.0  T
   3    -74.4944792  0.158549E-05  0.938E-03    1.88       1.6  T
   4    -74.4944812 -0.203428E-05  0.437E-03    1.88       3.3  T
   5    -74.4944816 -0.410364E-06  0.122E-03    1.88      12.0  T
   6    -74.4944816 -0.184462E-07  0.660E-04    1.88      22.1  T
   7    -74.4944817 -0.949659E-08  0.324E-04    1.88      45.0  T
     SCC iter.                  ...        0 min,  0.020 sec
     gradient                   ...        0 min,  0.005 sec
 * total energy  :   -73.4869859 Eh     change       -0.1167373E-03 Eh
   gradient norm :     0.0047609 Eh/α   predicted    -0.9069333E-04 ( -22.31%)
   displ. norm   :     0.4710322 α      lambda       -0.1647233E-03
   maximum displ.:     0.3010607 α      in ANC's #5, #2, #3, ...

........................................................................
.............................. CYCLE   29 ..............................
........................................................................

 iter      E             dE          RMSdq      gap      omega  full diag
   1    -74.4926326 -0.744926E+02  0.135E-01    1.88       0.0  T
   2    -74.4926379 -0.530706E-05  0.775E-02    1.89       1.0  T
   3    -74.4926348  0.311627E-05  0.126E-02    1.89       1.2  T
   4    -74.4926385 -0.367311E-05  0.590E-03    1.89       2.5  T
   5    -74.4926393 -0.878882E-06  0.158E-03    1.89       9.3  T
   6    -74.4926394 -0.301570E-07  0.712E-04    1.89      20.5  T
   7    -74.4926394 -0.108709E-07  0.355E-04    1.89      41.1  T
     SCC iter.                  ...        0 min,  0.021 sec
     gradient                   ...        0 min,  0.005 sec
 * total energy  :   -73.4870830 Eh     change       -0.9708170E-04 Eh
   gradient norm :     0.0063580 Eh/α   predicted    -0.1006355E-03 (   3.66%)
   displ. norm   :     0.2695575 α      lambda       -0.1534100E-03
   maximum displ.:     0.1708168 α      in ANC's #5, #2, #3, ...

........................................................................
.............................. CYCLE   30 ..............................
........................................................................

 iter      E             dE          RMSdq      gap      omega  full diag
   1    -74.4957901 -0.744958E+02  0.746E-02    1.90       0.0  T
   2    -74.4957918 -0.164764E-05  0.428E-02    1.90       1.0  T
   3    -74.4957904  0.139493E-05  0.757E-03    1.90       1.9  T
   4    -74.4957921 -0.165278E-05  0.335E-03    1.90       4.4  T
   5    -74.4957923 -0.243588E-06  0.119E-03    1.90      12.2  T
   6    -74.4957923 -0.277275E-07  0.566E-04    1.90      25.8  T
   7    -74.4957923 -0.747428E-08  0.264E-04    1.90      55.2  T
     SCC iter.                  ...        0 min,  0.021 sec
     gradient                   ...        0 min,  0.005 sec
 * total energy  :   -73.4872024 Eh     change       -0.1193776E-03 Eh
   gradient norm :     0.0031090 Eh/α   predicted    -0.8227901E-04 ( -31.08%)
   displ. norm   :     0.5088931 α      lambda       -0.1841453E-03
   maximum displ.:     0.3337411 α      in ANC's #5, #2, #1, ...

........................................................................
.............................. CYCLE   31 ..............................
........................................................................

 iter      E             dE          RMSdq      gap      omega  full diag
   1    -74.4965369 -0.744965E+02  0.142E-01    1.91       0.0  T
   2    -74.4965426 -0.571781E-05  0.812E-02    1.92       1.0  T
   3    -74.4965387  0.387308E-05  0.134E-02    1.92       1.1  T
   4    -74.4965433 -0.459900E-05  0.609E-03    1.92       2.4  T
   5    -74.4965442 -0.866986E-06  0.170E-03    1.92       8.6  T
   6    -74.4965442 -0.394288E-07  0.729E-04    1.92      20.0  T
   7    -74.4965442 -0.107493E-07  0.377E-04    1.92      38.7  T
     SCC iter.                  ...        0 min,  0.021 sec
     gradient                   ...        0 min,  0.005 sec
 * total energy  :   -73.4873597 Eh     change       -0.1572891E-03 Eh
   gradient norm :     0.0037174 Eh/α   predicted    -0.1159445E-03 ( -26.29%)
   displ. norm   :     0.6051162 α      lambda       -0.2510905E-03
   maximum displ.:     0.3970768 α      in ANC's #5, #2, #1, ...

........................................................................
.............................. CYCLE   32 ..............................
........................................................................

 iter      E             dE          RMSdq      gap      omega  full diag
   1    -74.4981165 -0.744981E+02  0.165E-01    1.93       0.0  T
   2    -74.4981240 -0.759167E-05  0.947E-02    1.94       1.0  T
   3    -74.4981179  0.618922E-05  0.161E-02    1.94       1.0  T
   4    -74.4981251 -0.726365E-05  0.720E-03    1.94       2.0  T
   5    -74.4981263 -0.116280E-05  0.205E-03    1.94       7.1  T
   6    -74.4981263 -0.524117E-07  0.945E-04    1.94      15.4  T
   7    -74.4981264 -0.194685E-07  0.476E-04    1.94      30.7  T
     SCC iter.                  ...        0 min,  0.023 sec
     gradient                   ...        0 min,  0.007 sec
 * total energy  :   -73.4875715 Eh     change       -0.2118259E-03 Eh
   gradient norm :     0.0058236 Eh/α   predicted    -0.1715160E-03 ( -19.03%)
   displ. norm   :     0.7129837 α      lambda       -0.2696307E-03
   maximum displ.:     0.4691796 α      in ANC's #5, #2, #1, ...

........................................................................
.............................. CYCLE   33 ..............................
........................................................................

 iter      E             dE          RMSdq      gap      omega  full diag
   1    -74.4945541 -0.744946E+02  0.197E-01    1.94       0.0  T
   2    -74.4945649 -0.108308E-04  0.113E-01    1.96       1.0  T
   3    -74.4945529  0.119895E-04  0.213E-02    1.96       1.0  T
   4    -74.4945665 -0.135668E-04  0.927E-03    1.96       1.6  T
   5    -74.4945682 -0.177581E-05  0.282E-03    1.96       5.2  T
   6    -74.4945684 -0.151327E-06  0.130E-03    1.96      11.2  T
   7    -74.4945684 -0.458196E-07  0.542E-04    1.96      26.9  T
   8    -74.4945684 -0.224783E-08  0.301E-04    1.96      48.5  T
     SCC iter.                  ...        0 min,  0.023 sec
     gradient                   ...        0 min,  0.005 sec
 * total energy  :   -73.4877936 Eh     change       -0.2221386E-03 Eh
   gradient norm :     0.0064045 Eh/α   predicted    -0.2033515E-03 (  -8.46%)
   displ. norm   :     0.5786731 α      lambda       -0.4599071E-03
   maximum displ.:     0.3103898 α      in ANC's #5, #2, #1, ...

........................................................................
.............................. CYCLE   34 ..............................
........................................................................

 iter      E             dE          RMSdq      gap      omega  full diag
   1    -74.5042583 -0.745043E+02  0.154E-01    1.96       0.0  T
   2    -74.5042652 -0.690745E-05  0.884E-02    1.97       1.0  T
   3    -74.5042516  0.135956E-04  0.202E-02    1.97       1.0  T
   4    -74.5042673 -0.156892E-04  0.724E-03    1.97       2.0  T
   5    -74.5042681 -0.765694E-06  0.273E-03    1.97       5.3  T
   6    -74.5042683 -0.186780E-06  0.109E-03    1.97      13.4  T
   7    -74.5042683 -0.302581E-07  0.490E-04    1.97      29.7  T
   8    -74.5042683 -0.857824E-09  0.255E-04    1.97      57.2  T
     SCC iter.                  ...        0 min,  0.023 sec
     gradient                   ...        0 min,  0.005 sec
 * total energy  :   -73.4879408 Eh     change       -0.1471500E-03 Eh
   gradient norm :     0.0110733 Eh/α   predicted    -0.3069571E-03 ( 108.60%)
   displ. norm   :     0.5733665 α      lambda       -0.3955286E-03
   maximum displ.:     0.3771870 α      in ANC's #5, #2, #1, ...

........................................................................
.............................. CYCLE   35 ..............................
........................................................................

 iter      E             dE          RMSdq      gap      omega  full diag
   1    -74.4951479 -0.744951E+02  0.162E-01    1.97       0.0  T
   2    -74.4951554 -0.745155E-05  0.914E-02    1.99       1.0  T
   3    -74.4951487  0.668027E-05  0.174E-02    1.99       1.0  T
   4    -74.4951563 -0.763310E-05  0.820E-03    1.99       1.8  T
   5    -74.4951577 -0.134988E-05  0.221E-03    1.99       6.6  T
   6    -74.4951578 -0.117756E-06  0.967E-04    1.99      15.1  T
   7    -74.4951578 -0.257396E-07  0.419E-04    1.99      34.8  T
     SCC iter.                  ...        0 min,  0.029 sec
     gradient                   ...        0 min,  0.007 sec
 * total energy  :   -73.4881937 Eh     change       -0.2529145E-03 Eh
   gradient norm :     0.0071188 Eh/α   predicted    -0.2627857E-03 (   3.90%)
   displ. norm   :     0.2309733 α      lambda       -0.2049963E-03
   maximum displ.:     0.1313142 α      in ANC's #5, #2, #1, ...

........................................................................
.............................. CYCLE   36 ..............................
........................................................................

 iter      E             dE          RMSdq      gap      omega  full diag
   1    -74.4935284 -0.744935E+02  0.663E-02    1.99       0.0  T
   2    -74.4935307 -0.229467E-05  0.366E-02    1.99       1.0  T
   3    -74.4935286  0.210085E-05  0.993E-03    1.99       1.5  T
   4    -74.4935311 -0.249801E-05  0.414E-03    1.99       3.5  T
   5    -74.4935313 -0.233983E-06  0.151E-03    1.99       9.7  T
   6    -74.4935314 -0.629451E-07  0.519E-04    1.99      28.1  T
   7    -74.4935314 -0.817204E-08  0.223E-04    1.99      65.3  T
     SCC iter.                  ...        0 min,  0.026 sec
     gradient                   ...        0 min,  0.005 sec
 * total energy  :   -73.4883380 Eh     change       -0.1443590E-03 Eh
   gradient norm :     0.0056967 Eh/α   predicted    -0.1079676E-03 ( -25.21%)
   displ. norm   :     0.4490660 α      lambda       -0.2576296E-03
   maximum displ.:     0.2397180 α      in ANC's #5, #2, #1, ...

........................................................................
.............................. CYCLE   37 ..............................
........................................................................

 iter      E             dE          RMSdq      gap      omega  full diag
   1    -74.4952054 -0.744952E+02  0.116E-01    2.00       0.0  T
   2    -74.4952100 -0.457044E-05  0.643E-02    2.00       1.0  T
   3    -74.4952053  0.468728E-05  0.152E-02    2.00       1.0  T
   4    -74.4952109 -0.556582E-05  0.696E-03    2.00       2.1  T
   5    -74.4952115 -0.617552E-06  0.231E-03    2.00       6.3  T
   6    -74.4952117 -0.203071E-06  0.684E-04    2.00      21.3  T
   7    -74.4952117 -0.107087E-07  0.329E-04    2.00      44.4  T
     SCC iter.                  ...        0 min,  0.021 sec
     gradient                   ...        0 min,  0.005 sec
 * total energy  :   -73.4885269 Eh     change       -0.1888277E-03 Eh
   gradient norm :     0.0052194 Eh/α   predicted    -0.1548037E-03 ( -18.02%)
   displ. norm   :     0.3682527 α      lambda       -0.1927292E-03
   maximum displ.:     0.1779456 α      in ANC's #2, #5, #1, ...

........................................................................
.............................. CYCLE   38 ..............................
........................................................................

 iter      E             dE          RMSdq      gap      omega  full diag
   1    -74.4985314 -0.744985E+02  0.927E-02    2.00       0.0  T
   2    -74.4985346 -0.319602E-05  0.517E-02    2.01       1.0  T
   3    -74.4985307  0.383374E-05  0.129E-02    2.01       1.1  T
   4    -74.4985352 -0.440900E-05  0.567E-03    2.01       2.6  T
   5    -74.4985356 -0.479419E-06  0.194E-03    2.01       7.5  T
   6    -74.4985358 -0.119205E-06  0.631E-04    2.01      23.1  T
   7    -74.4985358 -0.955761E-08  0.282E-04    2.01      51.8  T
     SCC iter.                  ...        0 min,  0.028 sec
     gradient                   ...        0 min,  0.005 sec
 * total energy  :   -73.4886476 Eh     change       -0.1207740E-03 Eh
   gradient norm :     0.0044371 Eh/α   predicted    -0.1094346E-03 (  -9.39%)
   displ. norm   :     0.6149325 α      lambda       -0.1384450E-03
   maximum displ.:     0.3605380 α      in ANC's #5, #2, #1, ...

........................................................................
.............................. CYCLE   39 ..............................
........................................................................

 iter      E             dE          RMSdq      gap      omega  full diag
   1    -74.4923492 -0.744923E+02  0.164E-01    2.00       0.0  T
   2    -74.4923566 -0.746629E-05  0.923E-02    2.02       1.0  T
   3    -74.4923489  0.777013E-05  0.186E-02    2.02       1.0  T
   4    -74.4923574 -0.854319E-05  0.913E-03    2.02       1.6  T
   5    -74.4923590 -0.159356E-05  0.273E-03    2.02       5.3  T
   6    -74.4923592 -0.218116E-06  0.101E-03    2.02      14.4  T
   7    -74.4923593 -0.245798E-07  0.462E-04    2.02      31.6  T
   8    -74.4923593 -0.135880E-08  0.249E-04    2.02      58.7  T
     SCC iter.                  ...        0 min,  0.033 sec
     gradient                   ...        0 min,  0.008 sec
 * total energy  :   -73.4886590 Eh     change       -0.1130661E-04 Eh
   gradient norm :     0.0069211 Eh/α   predicted    -0.9539814E-04 ( 743.74%)
   displ. norm   :     0.1236369 α      lambda       -0.1877679E-03
   maximum displ.:     0.0870752 α      in ANC's #5, #6, #10, ...

........................................................................
.............................. CYCLE   40 ..............................
........................................................................

 iter      E             dE          RMSdq      gap      omega  full diag
   1    -74.5004587 -0.745005E+02  0.451E-02    2.03       0.0  T
   2    -74.5004599 -0.125002E-05  0.265E-02    2.02       1.0  T
   3    -74.5004578  0.209071E-05  0.759E-03    2.02       1.9  T
   4    -74.5004602 -0.234537E-05  0.216E-03    2.02       6.8  T
   5    -74.5004603 -0.131211E-06  0.951E-04    2.02      15.3  T
   6    -74.5004603 -0.127238E-07  0.462E-04    2.02      31.5  T
     SCC iter.                  ...        0 min,  0.019 sec
     gradient                   ...        0 min,  0.007 sec
 * total energy  :   -73.4887452 Eh     change       -0.8626224E-04 Eh
   gradient norm :     0.0030762 Eh/α   predicted    -0.9531795E-04 (  10.50%)
   displ. norm   :     0.0806791 α      lambda       -0.5018016E-04
   maximum displ.:     0.0372644 α      in ANC's #3, #5, #1, ...

........................................................................
.............................. CYCLE   41 ..............................
........................................................................

 iter      E             dE          RMSdq      gap      omega  full diag
   1    -74.4998372 -0.744998E+02  0.255E-02    2.02       0.0  T
   2    -74.4998377 -0.493679E-06  0.146E-02    2.02       1.0  T
   3    -74.4998372  0.458405E-06  0.426E-03    2.02       3.4  T
   4    -74.4998377 -0.510543E-06  0.156E-03    2.02       9.4  T
   5    -74.4998378 -0.582364E-07  0.593E-04    2.02      24.6  T
   6    -74.4998378 -0.711864E-08  0.218E-04    2.02      66.8  T
     SCC iter.                  ...        0 min,  0.019 sec
     gradient                   ...        0 min,  0.007 sec
 * total energy  :   -73.4887734 Eh     change       -0.2822662E-04 Eh
   gradient norm :     0.0023336 Eh/α   predicted    -0.2525591E-04 ( -10.52%)
   displ. norm   :     0.1808730 α      lambda       -0.3611751E-04
   maximum displ.:     0.0893175 α      in ANC's #2, #1, #5, ...

........................................................................
.............................. CYCLE   42 ..............................
........................................................................

 iter      E             dE          RMSdq      gap      omega  full diag
   1    -74.4993500 -0.744993E+02  0.462E-02    2.02       0.0  T
   2    -74.4993506 -0.663252E-06  0.255E-02    2.02       1.0  T
   3    -74.4993504  0.213570E-06  0.479E-03    2.02       3.0  T
   4    -74.4993506 -0.236711E-06  0.273E-03    2.02       5.4  T
   5    -74.4993508 -0.151129E-06  0.666E-04    2.02      21.9  T
   6    -74.4993508 -0.127808E-07  0.283E-04    2.02      51.6  T
     SCC iter.                  ...        0 min,  0.018 sec
     gradient                   ...        0 min,  0.006 sec
 * total energy  :   -73.4888020 Eh     change       -0.2851856E-04 Eh
   gradient norm :     0.0027629 Eh/α   predicted    -0.1865666E-04 ( -34.58%)
   displ. norm   :     0.2677009 α      lambda       -0.5384431E-04
   maximum displ.:     0.1347165 α      in ANC's #1, #2, #5, ...
 * RMSD in coord.:     0.9770908 α      energy gain  -0.2856797E-02 Eh

generating ANC from exact Hessian ...
Using Lindh-Hessian (1995)
 Shifting diagonal of input Hessian by   9.916790367322464E-003
 Lowest  eigenvalues of input Hessian
    0.000000    0.000000    0.000000    0.000000    0.000000    0.000000
    0.010000    0.010126    0.010363    0.010558    0.010966    0.011235
    0.011598    0.012019    0.012406    0.012694    0.012879    0.014604
 Highest eigenvalues
    1.923042    1.984631    2.009724    2.024163    2.088293    2.182690
 

........................................................................
.............................. CYCLE   43 ..............................
........................................................................

 iter      E             dE          RMSdq      gap      omega  full diag
   1    -74.4983184 -0.744983E+02  0.672E-02    2.02       0.0  T
   2    -74.4983198 -0.136711E-05  0.368E-02    2.03       1.0  T
   3    -74.4983195  0.265316E-06  0.677E-03    2.03       2.2  T
   4    -74.4983198 -0.286971E-06  0.393E-03    2.03       3.7  T
   5    -74.4983202 -0.360126E-06  0.770E-04    2.03      18.9  T
   6    -74.4983202 -0.130481E-07  0.372E-04    2.03      39.2  T
     SCC iter.                  ...        0 min,  0.018 sec
     gradient                   ...        0 min,  0.006 sec
 * total energy  :   -73.4888407 Eh     change       -0.3872396E-04 Eh
   gradient norm :     0.0030717 Eh/α   predicted     0.0000000E+00 (-100.00%)
   displ. norm   :     0.0348879 α      lambda       -0.3109476E-04
   maximum displ.:     0.0156425 α      in ANC's #9, #2, #3, ...

........................................................................
.............................. CYCLE   44 ..............................
........................................................................

 iter      E             dE          RMSdq      gap      omega  full diag
   1    -74.4995952 -0.744996E+02  0.113E-02    2.03       0.0  T
   2    -74.4995953 -0.107905E-06  0.667E-03    2.03       2.2  T
   3    -74.4995953  0.431378E-07  0.132E-03    2.03      11.0  T
   4    -74.4995953 -0.599731E-07  0.447E-04    2.03      32.7  T
   5    -74.4995954 -0.492709E-08  0.236E-04    2.03      61.8  T
     SCC iter.                  ...        0 min,  0.015 sec
     gradient                   ...        0 min,  0.006 sec
 * total energy  :   -73.4888657 Eh     change       -0.2503933E-04 Eh
   gradient norm :     0.0013269 Eh/α   predicted    -0.1572898E-04 ( -37.18%)
   displ. norm   :     0.1423854 α      lambda       -0.4699715E-04
   maximum displ.:     0.0635262 α      in ANC's #9, #2, #3, ...

........................................................................
.............................. CYCLE   45 ..............................
........................................................................

 iter      E             dE          RMSdq      gap      omega  full diag
   1    -74.5014619 -0.745015E+02  0.402E-02    2.03       0.0  T
   2    -74.5014625 -0.577159E-06  0.235E-02    2.03       1.0  T
   3    -74.5014622  0.346922E-06  0.374E-03    2.03       3.9  T
   4    -74.5014626 -0.458245E-06  0.157E-03    2.03       9.3  T
   5    -74.5014627 -0.550297E-07  0.719E-04    2.03      20.3  T
   6    -74.5014627 -0.800401E-08  0.321E-04    2.03      45.5  T
     SCC iter.                  ...        0 min,  0.018 sec
     gradient                   ...        0 min,  0.006 sec
 * total energy  :   -73.4889028 Eh     change       -0.3705456E-04 Eh
   gradient norm :     0.0029531 Eh/α   predicted    -0.2371077E-04 ( -36.01%)
   displ. norm   :     0.0537141 α      lambda       -0.1904586E-04
   maximum displ.:     0.0282544 α      in ANC's #2, #3, #9, ...

........................................................................
.............................. CYCLE   46 ..............................
........................................................................

 iter      E             dE          RMSdq      gap      omega  full diag
   1    -74.5009414 -0.745009E+02  0.148E-02    2.03       0.0  T
   2    -74.5009414 -0.432956E-07  0.843E-03    2.03       1.7  T
   3    -74.5009413  0.695491E-07  0.167E-03    2.03       8.8  T
   4    -74.5009414 -0.740744E-07  0.822E-04    2.03      17.7  T
   5    -74.5009414 -0.132482E-07  0.236E-04    2.03      61.8  T
     SCC iter.                  ...        0 min,  0.015 sec
     gradient                   ...        0 min,  0.006 sec
 * total energy  :   -73.4889201 Eh     change       -0.1734231E-04 Eh
   gradient norm :     0.0023710 Eh/α   predicted    -0.9550584E-05 ( -44.93%)
   displ. norm   :     0.1803731 α      lambda       -0.5755923E-04
   maximum displ.:     0.0967524 α      in ANC's #2, #3, #6, ...

........................................................................
.............................. CYCLE   47 ..............................
........................................................................

 iter      E             dE          RMSdq      gap      omega  full diag
   1    -74.4991737 -0.744992E+02  0.500E-02    2.03       0.0  T
   2    -74.4991742 -0.473960E-06  0.283E-02    2.03       1.0  T
   3    -74.4991739  0.272196E-06  0.462E-03    2.03       3.2  T
   4    -74.4991741 -0.235554E-06  0.268E-03    2.03       5.4  T
   5    -74.4991743 -0.185669E-06  0.765E-04    2.03      19.1  T
   6    -74.4991743 -0.201073E-07  0.247E-04    2.03      59.1  T
     SCC iter.                  ...        0 min,  0.020 sec
     gradient                   ...        0 min,  0.006 sec
 * total energy  :   -73.4889601 Eh     change       -0.3999773E-04 Eh
   gradient norm :     0.0012347 Eh/α   predicted    -0.2973085E-04 ( -25.67%)
   displ. norm   :     0.1914439 α      lambda       -0.2155680E-04
   maximum displ.:     0.1121201 α      in ANC's #2, #3, #6, ...

........................................................................
.............................. CYCLE   48 ..............................
........................................................................

 iter      E             dE          RMSdq      gap      omega  full diag
   1    -74.4981877 -0.744982E+02  0.521E-02    2.03       0.0  T
   2    -74.4981882 -0.523309E-06  0.292E-02    2.03       1.0  T
   3    -74.4981882 -0.153189E-07  0.438E-03    2.03       3.3  T
   4    -74.4981882  0.173094E-07  0.225E-03    2.03       6.5  T
   5    -74.4981884 -0.159839E-06  0.414E-04    2.03      35.2  T
   6    -74.4981884 -0.414433E-08  0.220E-04    2.03      66.3  T
     SCC iter.                  ...        0 min,  0.019 sec
     gradient                   ...        0 min,  0.018 sec
 * total energy  :   -73.4889804 Eh     change       -0.2030952E-04 Eh
   gradient norm :     0.0019175 Eh/α   predicted    -0.1095585E-04 ( -46.06%)
   displ. norm   :     0.0751159 α      lambda       -0.1282295E-04
   maximum displ.:     0.0526466 α      in ANC's #2, #3, #12, ...

........................................................................
.............................. CYCLE   49 ..............................
........................................................................

 iter      E             dE          RMSdq      gap      omega  full diag
   1    -74.4991161 -0.744991E+02  0.188E-02    2.03       0.0  T
   2    -74.4991162 -0.125852E-06  0.103E-02    2.03       1.4  T
   3    -74.4991162  0.260566E-07  0.205E-03    2.03       7.1  T
   4    -74.4991162 -0.943018E-08  0.131E-03    2.03      11.2  T
   5    -74.4991163 -0.475399E-07  0.346E-04    2.03      42.1  T
   6    -74.4991163 -0.356594E-08  0.110E-04    2.03     132.2  T
     SCC iter.                  ...        0 min,  0.038 sec
     gradient                   ...        0 min,  0.006 sec
 * total energy  :   -73.4889965 Eh     change       -0.1605140E-04 Eh
   gradient norm :     0.0011176 Eh/α   predicted    -0.6428941E-05 ( -59.95%)
   displ. norm   :     0.1067012 α      lambda       -0.1747947E-04
   maximum displ.:     0.0778153 α      in ANC's #2, #3, #12, ...

........................................................................
.............................. CYCLE   50 ..............................
........................................................................

 iter      E             dE          RMSdq      gap      omega  full diag
   1    -74.5001333 -0.745001E+02  0.238E-02    2.03       0.0  T
   2    -74.5001335 -0.218712E-06  0.130E-02    2.03       1.1  T
   3    -74.5001335  0.428839E-07  0.274E-03    2.03       5.3  T
   4    -74.5001335 -0.179740E-07  0.177E-03    2.03       8.2  T
   5    -74.5001336 -0.895807E-07  0.451E-04    2.03      32.3  T
   6    -74.5001336 -0.616123E-08  0.159E-04    2.03      91.6  T
     SCC iter.                  ...        0 min,  0.021 sec
     gradient                   ...        0 min,  0.006 sec
 * total energy  :   -73.4890174 Eh     change       -0.2091884E-04 Eh
   gradient norm :     0.0010184 Eh/α   predicted    -0.8786558E-05 ( -58.00%)
   displ. norm   :     0.1256244 α      lambda       -0.1594207E-04
   maximum displ.:     0.0928230 α      in ANC's #2, #3, #12, ...

........................................................................
.............................. CYCLE   51 ..............................
........................................................................

 iter      E             dE          RMSdq      gap      omega  full diag
   1    -74.5005871 -0.745006E+02  0.261E-02    2.03       0.0  T
   2    -74.5005874 -0.249304E-06  0.142E-02    2.03       1.0  T
   3    -74.5005874 -0.196399E-07  0.288E-03    2.03       5.1  T
   4    -74.5005874  0.187063E-08  0.168E-03    2.03       8.7  T
   5    -74.5005875 -0.588151E-07  0.363E-04    2.03      40.2  T
   6    -74.5005875 -0.386763E-08  0.165E-04    2.03      88.2  T
     SCC iter.                  ...        0 min,  0.022 sec
     gradient                   ...        0 min,  0.006 sec
 * total energy  :   -73.4890376 Eh     change       -0.2020663E-04 Eh
   gradient norm :     0.0013776 Eh/α   predicted    -0.8028266E-05 ( -60.27%)
   displ. norm   :     0.1314131 α      lambda       -0.1573542E-04
   maximum displ.:     0.0973211 α      in ANC's #2, #3, #5, ...

........................................................................
.............................. CYCLE   52 ..............................
........................................................................

 iter      E             dE          RMSdq      gap      omega  full diag
   1    -74.5004485 -0.745004E+02  0.270E-02    2.03       0.0  T
   2    -74.5004487 -0.264821E-06  0.146E-02    2.04       1.0  T
   3    -74.5004486  0.122432E-06  0.352E-03    2.04       4.1  T
   4    -74.5004487 -0.132949E-06  0.209E-03    2.04       7.0  T
   5    -74.5004488 -0.877861E-07  0.446E-04    2.04      32.7  T
   6    -74.5004488 -0.665256E-08  0.184E-04    2.04      79.1  T
     SCC iter.                  ...        0 min,  0.022 sec
     gradient                   ...        0 min,  0.007 sec
 * total energy  :   -73.4890579 Eh     change       -0.2025076E-04 Eh
   gradient norm :     0.0010705 Eh/α   predicted    -0.7930276E-05 ( -60.84%)
   displ. norm   :     0.1363841 α      lambda       -0.1570550E-04
   maximum displ.:     0.1018661 α      in ANC's #2, #3, #1, ...

........................................................................
.............................. CYCLE   53 ..............................
........................................................................

 iter      E             dE          RMSdq      gap      omega  full diag
   1    -74.4999380 -0.744999E+02  0.290E-02    2.03       0.0  T
   2    -74.4999383 -0.292952E-06  0.158E-02    2.04       1.0  T
   3    -74.4999379  0.471828E-06  0.462E-03    2.04       3.2  T
   4    -74.4999384 -0.555810E-06  0.218E-03    2.04       6.7  T
   5    -74.4999385 -0.654241E-07  0.499E-04    2.04      29.2  T
   6    -74.4999385 -0.827490E-08  0.206E-04    2.04      70.9  T
     SCC iter.                  ...        0 min,  0.028 sec
     gradient                   ...        0 min,  0.006 sec
 * total energy  :   -73.4890775 Eh     change       -0.1963536E-04 Eh
   gradient norm :     0.0007078 Eh/α   predicted    -0.7918376E-05 ( -59.67%)
   displ. norm   :     0.1171818 α      lambda       -0.1212767E-04
   maximum displ.:     0.0893649 α      in ANC's #2, #3, #1, ...

........................................................................
.............................. CYCLE   54 ..............................
........................................................................

 iter      E             dE          RMSdq      gap      omega  full diag
   1    -74.4996497 -0.744996E+02  0.258E-02    2.04       0.0  T
   2    -74.4996500 -0.227752E-06  0.140E-02    2.04       1.0  T
   3    -74.4996496  0.347336E-06  0.397E-03    2.04       3.7  T
   4    -74.4996500 -0.409429E-06  0.186E-03    2.04       7.8  T
   5    -74.4996501 -0.460149E-07  0.484E-04    2.04      30.1  T
   6    -74.4996501 -0.841538E-08  0.172E-04    2.04      85.0  T
     SCC iter.                  ...        0 min,  0.022 sec
     gradient                   ...        0 min,  0.006 sec
 * total energy  :   -73.4890933 Eh     change       -0.1585359E-04 Eh
   gradient norm :     0.0006595 Eh/α   predicted    -0.6105443E-05 ( -61.49%)
   displ. norm   :     0.1031222 α      lambda       -0.1036984E-04
   maximum displ.:     0.0793398 α      in ANC's #2, #3, #1, ...

........................................................................
.............................. CYCLE   55 ..............................
........................................................................

 iter      E             dE          RMSdq      gap      omega  full diag
   1    -74.4994653 -0.744995E+02  0.238E-02    2.04       0.0  T
   2    -74.4994654 -0.174838E-06  0.129E-02    2.04       1.1  T
   3    -74.4994652  0.217656E-06  0.330E-03    2.04       4.4  T
   4    -74.4994655 -0.251954E-06  0.169E-03    2.04       8.6  T
   5    -74.4994655 -0.453859E-07  0.379E-04    2.04      38.5  T
   6    -74.4994655 -0.558096E-08  0.145E-04    2.04     100.7  T
     SCC iter.                  ...        0 min,  0.022 sec
     gradient                   ...        0 min,  0.005 sec
 * total energy  :   -73.4891076 Eh     change       -0.1427468E-04 Eh
   gradient norm :     0.0007831 Eh/α   predicted    -0.5211701E-05 ( -63.49%)
   displ. norm   :     0.1018544 α      lambda       -0.1095598E-04
   maximum displ.:     0.0789858 α      in ANC's #2, #3, #1, ...

........................................................................
.............................. CYCLE   56 ..............................
........................................................................

 iter      E             dE          RMSdq      gap      omega  full diag
   1    -74.4995512 -0.744996E+02  0.249E-02    2.04       0.0  T
   2    -74.4995513 -0.172133E-06  0.135E-02    2.04       1.1  T
   3    -74.4995512  0.128721E-06  0.297E-03    2.04       4.9  T
   4    -74.4995513 -0.135465E-06  0.170E-03    2.04       8.6  T
   5    -74.4995514 -0.581413E-07  0.388E-04    2.04      37.6  T
   6    -74.4995514 -0.594410E-08  0.130E-04    2.04     112.0  T
     SCC iter.                  ...        0 min,  0.022 sec
     gradient                   ...        0 min,  0.005 sec
 * total energy  :   -73.4891229 Eh     change       -0.1525029E-04 Eh
   gradient norm :     0.0007686 Eh/α   predicted    -0.5505390E-05 ( -63.90%)
   displ. norm   :     0.1153786 α      lambda       -0.1224300E-04
   maximum displ.:     0.0901116 α      in ANC's #2, #3, #1, ...

........................................................................
.............................. CYCLE   57 ..............................
........................................................................

 iter      E             dE          RMSdq      gap      omega  full diag
   1    -74.4996254 -0.744996E+02  0.289E-02    2.04       0.0  T
   2    -74.4996256 -0.228332E-06  0.157E-02    2.04       1.0  T
   3    -74.4996256  0.652076E-07  0.304E-03    2.04       4.8  T
[...]
H32-C7-C6-H31=  0.15          C9-C8-C7-C6=179.13            C9-C8-C7-H32=359.45           C24-C8-C7-C6=359.57           
C24-C8-C7-H32=179.89          C10-C9-C8-C7=188.95           C10-C9-C8-C24=  8.47          H33-C9-C8-C7=  7.56           
H33-C9-C8-C24=187.09          C11-C10-C9-C8=177.46          C11-C10-C9-H33=358.85         H34-C10-C9-C8=  1.09          
H34-C10-C9-H33=182.49         
           -------------------------------------------------
          |                Final Singlepoint                |
           -------------------------------------------------

          ...................................................
          :                      SETUP                      :
          :.................................................:
          :  # basis functions                 128          :
          :  # atomic orbitals                 127          :
          :  # shells                           73          :
          :  # electrons                       132          :
          :  max. iterations                   250          :
          :  Hamiltonian                  GFN2-xTB          :
          :  restarted?                      false          :
          :  GBSA solvation                  false          :
          :  PC potential                    false          :
          :  electronic temp.          300.0000000     K    :
          :  accuracy                    1.0000000          :
          :  -> integral cutoff          0.2500000E+02      :
          :  -> integral neglect         0.1000000E-07      :
          :  -> SCF convergence          0.1000000E-05 Eh   :
          :  -> wf. convergence          0.1000000E-03 e    :
          :  Broyden damping             0.4000000          :
          :  net charge                          0          :
          :  unpaired electrons                  0          :
          ...................................................

 iter      E             dE          RMSdq      gap      omega  full diag
   1    -74.5001923 -0.745002E+02  0.974E-05    2.04       0.0  T
   2    -74.5001923 -0.393072E-10  0.815E-05    2.04     179.0  T
   3    -74.5001923 -0.267164E-09  0.276E-05    2.04     529.4  T

   *** convergence criteria satisfied after 3 iterations ***

         #    Occupation            Energy/Eh            Energy/eV
      -------------------------------------------------------------
         1        2.0000           -0.7293292             -19.8461
       ...           ...                  ...                  ...
        60        2.0000           -0.4175534             -11.3622
        61        2.0000           -0.4137604             -11.2590
        62        2.0000           -0.4085987             -11.1185
        63        2.0000           -0.4078757             -11.0989
        64        2.0000           -0.4058073             -11.0426
        65        2.0000           -0.3779072             -10.2834
        66        2.0000           -0.3736719             -10.1681 (HOMO)
        67                         -0.2987229              -8.1287 (LUMO)
        68                         -0.2399629              -6.5297
        69                         -0.2372142              -6.4549
        70                         -0.2247983              -6.1171
        71                         -0.2204469              -5.9987
       ...                                ...                  ...
       127                          0.6924055              18.8413
      -------------------------------------------------------------
                  HL-Gap            0.0749490 Eh            2.0395 eV
             Fermi-level           -0.3361974 Eh           -9.1484 eV

 SCC (total)                   0 d,  0 h,  0 min,  0.017 sec
 SCC setup                      ...        0 min,  0.001 sec (  5.851%)
 Dispersion                     ...        0 min,  0.000 sec (  1.391%)
 classical contributions        ...        0 min,  0.000 sec (  0.939%)
 integral evaluation            ...        0 min,  0.002 sec (  8.857%)
 iterations                     ...        0 min,  0.009 sec ( 50.311%)
 molecular gradient             ...        0 min,  0.005 sec ( 27.672%)
 printout                       ...        0 min,  0.001 sec (  4.827%)

         :::::::::::::::::::::::::::::::::::::::::::::::::::::
         ::                     SUMMARY                     ::
         :::::::::::::::::::::::::::::::::::::::::::::::::::::
         :: total energy             -73.489249623538 Eh    ::
         :: gradient norm              0.000174066936 Eh/a0 ::
         :: HOMO-LUMO gap              2.039465382151 eV    ::
         ::.................................................::
         :: SCC energy               -74.500017466903 Eh    ::
         :: -> isotropic ES            0.091846748295 Eh    ::
         :: -> anisotropic ES          0.001087621773 Eh    ::
         :: -> anisotropic XC          0.025995383605 Eh    ::
         :: -> dispersion             -0.050088180405 Eh    ::
         :: repulsion energy           1.010767843365 Eh    ::
         :: add. restraining           0.000000000000 Eh    ::
         :: total charge              -0.000000000000 e     ::
         :::::::::::::::::::::::::::::::::::::::::::::::::::::

           -------------------------------------------------
          |                Property Printout                |
           -------------------------------------------------

    * Orbital Energies and Occupations

         #    Occupation            Energy/Eh            Energy/eV
      -------------------------------------------------------------
         1        2.0000           -0.7293292             -19.8461
       ...           ...                  ...                  ...
        54        2.0000           -0.4429789             -12.0541
        55        2.0000           -0.4346239             -11.8267
        56        2.0000           -0.4339612             -11.8087
        57        2.0000           -0.4307713             -11.7219
        58        2.0000           -0.4243916             -11.5483
        59        2.0000           -0.4234871             -11.5237
        60        2.0000           -0.4175534             -11.3622
        61        2.0000           -0.4137604             -11.2590
        62        2.0000           -0.4085987             -11.1185
        63        2.0000           -0.4078757             -11.0989
        64        2.0000           -0.4058073             -11.0426
        65        2.0000           -0.3779072             -10.2834
        66        2.0000           -0.3736719             -10.1681 (HOMO)
        67                         -0.2987229              -8.1287 (LUMO)
        68                         -0.2399629              -6.5297
        69                         -0.2372142              -6.4549
        70                         -0.2247983              -6.1171
        71                         -0.2204469              -5.9987
        72                         -0.2059389              -5.6039
        73                         -0.1675903              -4.5604
        74                         -0.1538668              -4.1869
        75                         -0.0994940              -2.7074
        76                         -0.0946503              -2.5756
        77                         -0.0227320              -0.6186
       ...                                ...                  ...
       127                          0.6924055              18.8413
      -------------------------------------------------------------
                  HL-Gap            0.0749490 Eh            2.0395 eV
             Fermi-level           -0.3361974 Eh           -9.1484 eV

     #   Z          covCN         q      C6AA      α(0)
     1   8 O        1.656    -0.440    21.649     6.281
     2   6 C        3.706     0.091    19.204     6.265
     3   6 C        3.795    -0.012    20.794     6.493
     4  16 S        2.069    -0.147   147.246    20.423
     5   6 C        2.966     0.052    26.822     8.495
     6   6 C        2.984    -0.037    28.916     8.821
     7   6 C        2.928    -0.028    28.692     8.784
     8   6 C        2.969     0.012    27.750     8.641
     9   6 C        2.909    -0.008    28.220     8.711
    10   6 C        2.892    -0.064    29.594     8.919
    11   6 C        2.835     0.212    23.523     7.948
    12   6 C        3.701     0.252    16.860     5.872
    13   8 O        1.700    -0.342    19.740     5.999
    14   6 C        3.645     0.047    20.120     6.447
    15   8 O        1.701    -0.320    19.348     5.939
    16   6 C        3.644     0.045    20.157     6.453
    17   6 C        2.986    -0.007    28.176     8.707
    18   6 C        2.922    -0.035    28.867     8.811
    19   6 C        2.920    -0.030    28.758     8.794
    20   6 C        2.920    -0.030    28.744     8.792
    21   6 C        2.921    -0.027    28.666     8.780
    22   6 C        2.922    -0.026    28.642     8.776
    23   8 O        0.857    -0.366    21.019     6.147
    24   6 C        2.924    -0.028    28.707     8.787
    25   6 C        2.938    -0.042    29.048     8.839
    26   1 H        0.805     0.295     0.737     1.348
    27   1 H        0.923     0.028     2.620     2.531
    28   1 H        0.923     0.024     2.677     2.559
    29   1 H        0.925     0.066     2.134     2.284
    30   1 H        0.925     0.071     2.071     2.250
    31   1 H        0.926     0.050     2.318     2.381
    32   1 H        0.926     0.048     2.343     2.394
    33   1 H        0.925     0.071     2.076     2.253
    34   1 H        0.926     0.062     2.170     2.304
    35   1 H        0.925     0.055     2.256     2.349
    36   1 H        0.924     0.044     2.395     2.420
    37   1 H        0.924     0.032     2.552     2.498
    38   1 H        0.924     0.035     2.516     2.481
    39   1 H        0.925     0.056     2.241     2.341
    40   1 H        0.924     0.045     2.387     2.416
    41   1 H        0.926     0.037     2.487     2.466
    42   1 H        0.926     0.034     2.533     2.489
    43   1 H        0.926     0.035     2.513     2.479
    44   1 H        0.926     0.039     2.462     2.454
    45   1 H        0.926     0.061     2.192     2.315
    46   1 H        0.926     0.046     2.367     2.406
    47   1 H        0.926     0.043     2.410     2.427

 Mol. C6AA /au·bohr⁶  :      27110.180600
 Mol. C8AA /au·bohr⁸  :     682786.623573
 Mol. α(0) /au        :        258.768626


Wiberg/Mayer (AO) data.
largest (>0.10) Wiberg bond orders for each atom

 ---------------------------------------------------------------------------
     #   Z sym  total        # sym  WBO       # sym  WBO       # sym  WBO
 ---------------------------------------------------------------------------
     1   8 O    1.952 --     2 C    0.997    26 H    0.898
     2   6 C    3.958 --     3 C    1.005     1 O    0.997    27 H    0.972
                            28 H    0.968
     3   6 C    3.975 --     2 C    1.005     4 S    0.992    30 H    0.968
                            29 H    0.966
     4  16 S    2.265 --     5 C    1.062     3 C    0.992
     5   6 C    3.954 --    25 C    1.374     6 C    1.360     4 S    1.062
     6   6 C    3.989 --     7 C    1.491     5 C    1.360    31 H    0.967
     7   6 C    3.989 --     6 C    1.491     8 C    1.338    32 H    0.966
     8   6 C    3.988 --    24 C    1.350     7 C    1.338     9 C    1.136
     9   6 C    3.972 --    10 C    1.726     8 C    1.136    33 H    0.956
    10   6 C    3.972 --     9 C    1.726    11 C    1.088    34 H    0.958
    11   6 C    3.923 --    23 O    1.787    10 C    1.088    12 C    0.902
    12   6 C    3.924 --    15 O    0.978    13 O    0.957    17 C    0.942
                            11 C    0.902
    13   8 O    2.074 --    14 C    0.980    12 C    0.957
    14   6 C    3.946 --    35 H    0.981    13 O    0.980    36 H    0.979
                            37 H    0.978
    15   8 O    2.092 --    16 C    0.979    12 C    0.978
    16   6 C    3.945 --    39 H    0.981    38 H    0.980    15 O    0.979
                            40 H    0.978
    17   6 C    3.982 --    22 C    1.408    18 C    1.407    12 C    0.942
                            20 C    0.107
    18   6 C    3.991 --    19 C    1.445    17 C    1.407    41 H    0.967
                            21 C    0.110
    19   6 C    3.992 --    18 C    1.445    20 C    1.437    42 H    0.971
                            22 C    0.111
    20   6 C    3.991 --    21 C    1.438    19 C    1.437    43 H    0.971
                            17 C    0.107
    21   6 C    3.991 --    22 C    1.444    20 C    1.438    44 H    0.970
                            18 C    0.110
    22   6 C    3.988 --    21 C    1.444    17 C    1.408    45 H    0.965
                            19 C    0.111
    23   8 O    2.054 --    11 C    1.787
    24   6 C    3.990 --    25 C    1.475     8 C    1.350    46 H    0.964
    25   6 C    3.989 --    24 C    1.475     5 C    1.374    47 H    0.962
    26   1 H    0.913 --     1 O    0.898
    27   1 H    0.999 --     2 C    0.972
    28   1 H    0.999 --     2 C    0.968
    29   1 H    0.995 --     3 C    0.966
    30   1 H    0.995 --     3 C    0.968
    31   1 H    0.997 --     6 C    0.967
    32   1 H    0.997 --     7 C    0.966
    33   1 H    0.994 --     9 C    0.956
    34   1 H    0.996 --    10 C    0.958
    35   1 H    0.996 --    14 C    0.981
    36   1 H    0.998 --    14 C    0.979
    37   1 H    0.999 --    14 C    0.978
    38   1 H    0.999 --    16 C    0.980
    39   1 H    0.996 --    16 C    0.981
    40   1 H    0.998 --    16 C    0.978
    41   1 H    0.999 --    18 C    0.967
    42   1 H    0.998 --    19 C    0.971
    43   1 H    0.998 --    20 C    0.971
    44   1 H    0.998 --    21 C    0.970
    45   1 H    0.996 --    22 C    0.965
    46   1 H    0.998 --    24 C    0.964
    47   1 H    0.998 --    25 C    0.962
 ---------------------------------------------------------------------------

Topologies differ in total number of bonds
Writing topology from bond orders to xtbtopo.mol

molecular dipole:
                 x           y           z       tot (Debye)
 q only:        1.046       0.736      -0.450
   full:        0.920       1.100      -0.634       3.985
molecular quadrupole (traceless):
                xx          xy          yy          xz          yz          zz
 q only:       -0.198       1.999       4.846      11.759       4.004      -4.648
  q+dip:       -1.394       8.698       5.568      12.040       4.687      -4.174
   full:       -3.710       9.055       7.612      13.699       6.247      -3.902

           -------------------------------------------------
          |                Geometry Summary                 |
           -------------------------------------------------

      molecular mass/u    :      358.4518216
   center of mass at/Å    :        0.2687576      -0.1645527       0.0790039
  moments of inertia/u·Å² :        0.1392427E+04   0.6753999E+04   0.7331641E+04
rotational constants/cm⁻¹ :        0.1210665E-01   0.2495948E-02   0.2299299E-02

 * 42 selected distances

     #   Z          #   Z                                           value/Å
     1   8 O        2   6 C                                       1.4090529
     2   6 C        3   6 C                                       1.5221319 (max)
     5   6 C        6   6 C                                       1.3952847
     6   6 C        7   6 C                                       1.3749359
     7   6 C        8   6 C                                       1.4014631
     9   6 C       10   6 C                                       1.3450331
    12   6 C       13   8 O                                       1.4139239
    13   8 O       14   6 C                                       1.4148987
    12   6 C       15   8 O                                       1.4018416
    15   8 O       16   6 C                                       1.4154402
    17   6 C       18   6 C                                       1.3893845
    18   6 C       19   6 C                                       1.3831071
    19   6 C       20   6 C                                       1.3845713
    20   6 C       21   6 C                                       1.3847569
    17   6 C       22   6 C                                       1.3876405
    21   6 C       22   6 C                                       1.3833183
    11   6 C       23   8 O                                       1.2136482
     8   6 C       24   6 C                                       1.3984164
     5   6 C       25   6 C                                       1.3910815
    24   6 C       25   6 C                                       1.3789680
     1   8 O       26   1 H                                       0.9624772 (min)
     2   6 C       27   1 H                                       1.0989485
     2   6 C       28   1 H                                       1.1004863
     3   6 C       29   1 H                                       1.0885009
     3   6 C       30   1 H                                       1.0894498
     6   6 C       31   1 H                                       1.0792666
     7   6 C       32   1 H                                       1.0800080
     9   6 C       33   1 H                                       1.0844069
    10   6 C       34   1 H                                       1.0762615
    14   6 C       35   1 H                                       1.0881702
    14   6 C       36   1 H                                       1.0929630
    14   6 C       37   1 H                                       1.0945628
    16   6 C       38   1 H                                       1.0942874
    16   6 C       39   1 H                                       1.0884946
    16   6 C       40   1 H                                       1.0931120
    18   6 C       41   1 H                                       1.0800499
    19   6 C       42   1 H                                       1.0802890
    20   6 C       43   1 H                                       1.0801329
    21   6 C       44   1 H                                       1.0799354
    22   6 C       45   1 H                                       1.0775182
    24   6 C       46   1 H                                       1.0788038
    25   6 C       47   1 H                                       1.0786707

 * 4 distinct bonds (by element types)

   Z      Z             #   av. dist./Å        max./Å        min./Å
   1 H    6 C          21     1.0859199     1.1004863     1.0762615
   6 C    6 C          14     1.3942924     1.5221319     1.3450331
   1 H    8 O           1     0.9624772     0.9624772     0.9624772
   6 C    8 O           6     1.3781343     1.4154402     1.2136482


optimized geometry written to: xtbopt.xyz


           -------------------------------------------------
          | TOTAL ENERGY              -73.489249623538 Eh   |
          | GRADIENT NORM               0.000174066936 Eh/α |
          | HOMO-LUMO GAP               2.039465382151 eV   |
           -------------------------------------------------

------------------------------------------------------------------------
 * finished run on 2025/12/01 at 14:18:50.222     
------------------------------------------------------------------------
 total:
 * wall-time:     0 d,  0 h,  0 min,  2.516 sec
 *  cpu-time:     0 d,  0 h,  0 min, 56.706 sec
 * ratio c/w:    22.539 speedup
 SCF:
 * wall-time:     0 d,  0 h,  0 min,  0.071 sec
 *  cpu-time:     0 d,  0 h,  0 min,  1.616 sec
 * ratio c/w:    22.754 speedup
 ANC optimizer:
 * wall-time:     0 d,  0 h,  0 min,  2.410 sec
 *  cpu-time:     0 d,  0 h,  0 min, 54.733 sec
 * ratio c/w:    22.707 speedup

normal termination of xtb
