      -----------------------------------------------------------      
     |                   =====================                   |     
     |                           x T B                           |     
     |                   =====================                   |     
     |                         S. Grimme                         |     
     |          Mulliken Center for Theoretical Chemistry        |     
     |                    University of Bonn                     |     
      -----------------------------------------------------------      

   * xtb version 6.7.1 (edcfbbe) compiled by 'albert@albert-system' on 2024-07-22

   xtb is free software: you can redistribute it and/or modify it under
   the terms of the GNU Lesser General Public License as published by
   the Free Software Foundation, either version 3 of the License, or
   (at your option) any later version.
   
   xtb is distributed in the hope that it will be useful,
   but WITHOUT ANY WARRANTY; without even the implied warranty of
   MERCHANTABILITY or FITNESS FOR A PARTICULAR PURPOSE.  See the
   GNU Lesser General Public License for more details.
   
   Cite this work as:
   * C. Bannwarth, E. Caldeweyher, S. Ehlert, A. Hansen, P. Pracht,
     J. Seibert, S. Spicher, S. Grimme, WIREs Comput. Mol. Sci., 2020, 11,
     e01493. DOI: 10.1002/wcms.1493
   
   for GFN2-xTB:
   * C. Bannwarth, S. Ehlert and S. Grimme., J. Chem. Theory Comput., 2019,
     15, 1652-1671. DOI: 10.1021/acs.jctc.8b01176
   for GFN1-xTB:
   * S. Grimme, C. Bannwarth, P. Shushkov, J. Chem. Theory Comput., 2017,
     13, 1989-2009. DOI: 10.1021/acs.jctc.7b00118
   for GFN0-xTB:
   * P. Pracht, E. Caldeweyher, S. Ehlert, S. Grimme, ChemRxiv, 2019, preprint.
     DOI: 10.26434/chemrxiv.8326202.v1
   for GFN-FF:
   * S. Spicher and S. Grimme, Angew. Chem. Int. Ed., 2020, 59, 15665-15673.
     DOI: 10.1002/anie.202004239
   
   for ALPB and GBSA implicit solvation:
   * S. Ehlert, M. Stahn, S. Spicher, S. Grimme, J. Chem. Theory Comput.,
     2021, 17, 4250-4261. DOI: 10.1021/acs.jctc.1c00471
   
   for ddCOSMO and CPCM-X implicit solvation:
   * M. Stahn, S. Ehlert, S. Grimme, J. Phys. Chem. A,
     2023, XX, XXXX-XXXX. DOI: 10.1021/acs.jpca.3c04382
   
   for DFT-D4:
   * E. Caldeweyher, C. Bannwarth and S. Grimme, J. Chem. Phys., 2017,
     147, 034112. DOI: 10.1063/1.4993215
   * E. Caldeweyher, S. Ehlert, A. Hansen, H. Neugebauer, S. Spicher,
     C. Bannwarth and S. Grimme, J. Chem. Phys., 2019, 150, 154122.
     DOI: 10.1063/1.5090222
   * E. Caldeweyher, J.-M. Mewes, S. Ehlert and S. Grimme, Phys. Chem. Chem. Phys.
     2020, 22, 8499-8512. DOI: 10.1039/D0CP00502A
   
   for sTDA-xTB:
   * S. Grimme and C. Bannwarth, J. Chem. Phys., 2016, 145, 054103.
     DOI: 10.1063/1.4959605
   
   in the mass-spec context:
   * V. Asgeirsson, C. Bauer and S. Grimme, Chem. Sci., 2017, 8, 4879.
     DOI: 10.1039/c7sc00601b
   * J. Koopman and S. Grimme, ACS Omega 2019, 4, 12, 15120-15133.
     DOI: 10.1021/acsomega.9b02011
   
   for metadynamics refer to:
   * S. Grimme, J. Chem. Theory Comput., 2019, 155, 2847-2862
     DOI: 10.1021/acs.jctc.9b00143
   
   for SPH calculations refer to:
   * S. Spicher and S. Grimme, J. Chem. Theory Comput., 2021, 17, 1701-1714
     DOI: 10.1021/acs.jctc.0c01306
   
   for ONIOM refer to:
   * C. Plett, A. Katbashev, S. Ehlert, S. Grimme, M. Bursch,
     Phys. Chem. Chem. Phys., 2023, 25, 17860-17868. DOI: 10.1039/D3CP02178E
   
   for DIPRO refer to:
   * J. Kohn, N. Gildemeister, S. Grimme, D. Fazzi, A. Hansen,
     J. Chem. Phys., 2023, just accepted.
   
   for PTB refer to:
   * S. Grimme, M. Mueller, A. Hansen, J. Chem. Phys., 2023, 158, 124111.
     DOI: 10.1063/5.0137838
   
   with help from (in alphabetical order)
   P. Atkinson, C. Bannwarth, F. Bohle, G. Brandenburg, E. Caldeweyher
   M. Checinski, S. Dohm, S. Ehlert, S. Ehrlich, I. Gerasimov, C. Hölzer
   A. Katbashev, J. Kohn, J. Koopman, C. Lavigne, S. Lehtola, F. März, M. Müller,
   F. Musil, H. Neugebauer, J. Pisarek, C. Plett, P. Pracht, F. Pultar,
   J. Seibert, P. Shushkov, S. Spicher, M. Stahn, M. Steiner, T. Strunk,
   J. Stückrath, T. Rose, and J. Unsleber
   
 * started run on 2025/12/01 at 14:18:41.352     
   ID    Z sym.   atoms
    1    8 O      1, 13, 15, 23
    2    6 C      2, 3, 5-12, 14, 16-22, 24, 25
    3   16 S      4
    4    1 H      26-47

           -------------------------------------------------
          |                Calculation Setup                |
           -------------------------------------------------

          program call               : xtb pipeline_data/3_conformer_xyz/acrylates/rdkit/PUUAYUBAIZMECZ-JLHYYAGUSA-N_conf220.xyz --opt --gfn 2-xTB --iterations 250
          coordinate file            : pipeline_data/3_conformer_xyz/acrylates/rdkit/PUUAYUBAIZMECZ-JLHYYAGUSA-N_conf220.xyz
          omp threads                :                    24

########################################################################
[WARNING] Please study the warnings concerning your input carefully
-1- readin_getIntValue: could not parse '2-xTB'
########################################################################

           -------------------------------------------------
          |                 G F N 2 - x T B                 |
           -------------------------------------------------

        Reference                      10.1021/acs.jctc.8b01176
      * Hamiltonian:
        H0-scaling (s, p, d)           1.850000    2.230000    2.230000
        zeta-weighting                 0.500000
      * Dispersion:
        s8                             2.700000
        a1                             0.520000
        a2                             5.000000
        s9                             5.000000
      * Repulsion:
        kExp                           1.500000    1.000000
        rExp                           1.000000
      * Coulomb:
        alpha                          2.000000
        third order                    shell-resolved
        anisotropic                    true
        a3                             3.000000
        a5                             4.000000
        cn-shift                       1.200000
        cn-exp                         4.000000
        max-rad                        5.000000


          ...................................................
          :                      SETUP                      :
          :.................................................:
          :  # basis functions                 128          :
          :  # atomic orbitals                 127          :
          :  # shells                           73          :
          :  # electrons                       132          :
          :  max. iterations                   250          :
          :  Hamiltonian                  GFN2-xTB          :
          :  restarted?                      false          :
          :  GBSA solvation                  false          :
          :  PC potential                    false          :
          :  electronic temp.          300.0000000     K    :
          :  accuracy                    1.0000000          :
          :  -> integral cutoff          0.2500000E+02      :
          :  -> integral neglect         0.1000000E-07      :
          :  -> SCF convergence          0.1000000E-05 Eh   :
          :  -> wf. convergence          0.1000000E-03 e    :
          :  Broyden damping             0.4000000          :
          :  net charge                          0          :
          :  unpaired electrons                  0          :
          ...................................................

 iter      E             dE          RMSdq      gap      omega  full diag
   1    -74.3568976 -0.743569E+02  0.499E+00    2.70       0.0  T
   2    -74.4477761 -0.908785E-01  0.280E+00    1.85       1.0  T
   3    -74.4397017  0.807440E-02  0.121E+00    1.62       1.0  T
   4    -74.4573786 -0.176768E-01  0.288E-01    1.41       1.0  T
   5    -74.4585498 -0.117119E-02  0.126E-01    1.53       1.0  T
   6    -74.4586505 -0.100743E-03  0.548E-02    1.56       1.0  T
   7    -74.4587019 -0.514073E-04  0.223E-02    1.56       1.0  T
   8    -74.4587072 -0.523942E-05  0.995E-03    1.56       1.5  T
   9    -74.4587077 -0.585661E-06  0.445E-03    1.56       3.3  T
  10    -74.4587080 -0.242370E-06  0.201E-03    1.56       7.3  T
  11    -74.4587081 -0.139448E-06  0.739E-04    1.56      19.7  T
  12    -74.4587081 -0.259747E-08  0.400E-04    1.56      36.5  T

   *** convergence criteria satisfied after 12 iterations ***

         #    Occupation            Energy/Eh            Energy/eV
      -------------------------------------------------------------
         1        2.0000           -0.7287418             -19.8301
       ...           ...                  ...                  ...
        60        2.0000           -0.4258993             -11.5893
        61        2.0000           -0.4180991             -11.3771
        62        2.0000           -0.4168886             -11.3441
        63        2.0000           -0.4128050             -11.2330
        64        2.0000           -0.4098383             -11.1523
        65        2.0000           -0.3926373             -10.6842
        66        2.0000           -0.3674060              -9.9976 (HOMO)
        67                         -0.3101563              -8.4398 (LUMO)
        68                         -0.2510643              -6.8318
        69                         -0.2482695              -6.7558
        70                         -0.2424455              -6.5973
        71                         -0.2336963              -6.3592
       ...                                ...                  ...
       127                          0.6993501              19.0303
      -------------------------------------------------------------
                  HL-Gap            0.0572496 Eh            1.5578 eV
             Fermi-level           -0.3387812 Eh           -9.2187 eV

 SCC (total)                   0 d,  0 h,  0 min,  0.066 sec
 SCC setup                      ...        0 min,  0.000 sec (  0.470%)
 Dispersion                     ...        0 min,  0.001 sec (  1.226%)
 classical contributions        ...        0 min,  0.000 sec (  0.183%)
 integral evaluation            ...        0 min,  0.011 sec ( 16.624%)
 iterations                     ...        0 min,  0.048 sec ( 72.642%)
 molecular gradient             ...        0 min,  0.006 sec (  8.349%)
 printout                       ...        0 min,  0.000 sec (  0.447%)

         :::::::::::::::::::::::::::::::::::::::::::::::::::::
         ::                     SUMMARY                     ::
         :::::::::::::::::::::::::::::::::::::::::::::::::::::
         :: total energy             -73.454486971717 Eh    ::
         :: gradient norm              0.156232651504 Eh/a0 ::
         :: HOMO-LUMO gap              1.557841363451 eV    ::
         ::.................................................::
         :: SCC energy               -74.458402531860 Eh    ::
         :: -> isotropic ES            0.090730511653 Eh    ::
         :: -> anisotropic ES          0.002773837754 Eh    ::
         :: -> anisotropic XC          0.025879447730 Eh    ::
         :: -> dispersion             -0.049994737297 Eh    ::
         :: repulsion energy           1.003915560143 Eh    ::
         :: add. restraining           0.000000000000 Eh    ::
         :: total charge               0.000000000000 e     ::
         :::::::::::::::::::::::::::::::::::::::::::::::::::::

      ----------------------------------------------------------- 
     |                   =====================                   |
     |                        A N C O P T                        |
     |                   =====================                   |
     |               Approximate Normal Coordinate               |
     |                Rational Function Optimizer                |
      ----------------------------------------------------------- 
      ----------------------------------------------------------- 
     |                   =====================                   |
     |                        A N C O P T                        |
     |                   =====================                   |
     |               Approximate Normal Coordinate               |
     |                Rational Function Optimizer                |
      ----------------------------------------------------------- 

          ...................................................
          :                      SETUP                      :
          :.................................................:
          :   optimization level            normal          :
          :   max. optcycles                   200          :
          :   ANC micro-cycles                  20          :
          :   degrees of freedom               135          :
          :.................................................:
          :   RF solver                   davidson          :
          :   write xtbopt.log                true          :
          :   linear?                        false          :
          :   energy convergence         0.5000000E-05 Eh   :
          :   grad. convergence          0.1000000E-02 Eh/α :
          :   maxmium RF displ.          1.0000000          :
          :   Hlow (freq-cutoff)         0.1000000E-01      :
          :   Hmax (freq-cutoff)         5.0000000          :
          :   S6 in model hess.         20.0000000          :
          ...................................................

generating ANC from exact Hessian ...
Using Lindh-Hessian (1995)
 Shifting diagonal of input Hessian by   9.926057821782538E-003
 Lowest  eigenvalues of input Hessian
    0.000000    0.000000    0.000000    0.000000    0.000000    0.010000
    0.000000    0.010141    0.010371    0.010640    0.010994    0.011159
    0.011594    0.012046    0.012487    0.012952    0.013614    0.015183
 Highest eigenvalues
    1.957169    1.973695    2.012832    2.042955    2.070603    2.137834
 

........................................................................
.............................. CYCLE    1 ..............................
........................................................................

 iter      E             dE          RMSdq      gap      omega  full diag
   1    -74.4587081 -0.744587E+02  0.155E-04    1.56       0.0  T
   2    -74.4587081 -0.170616E-09  0.106E-04    1.56     137.5  T
   3    -74.4587081 -0.102673E-09  0.728E-05    1.56     200.5  T
     SCC iter.                  ...        0 min,  0.012 sec
     gradient                   ...        0 min,  0.009 sec
 * total energy  :   -73.4544870 Eh     change       -0.1366672E-08 Eh
   gradient norm :     0.1562334 Eh/α   predicted     0.0000000E+00 (-100.00%)
   displ. norm   :     0.3610445 α      lambda       -0.2910073E-01
   maximum displ.:     0.1003554 α      in ANC's #25, #73, #28, ...

........................................................................
.............................. CYCLE    2 ..............................
........................................................................

 iter      E             dE          RMSdq      gap      omega  full diag
   1    -74.4798030 -0.744798E+02  0.242E-01    1.61       0.0  T
   2    -74.4802194 -0.416414E-03  0.153E-01    1.61       1.0  T
   3    -74.4802154  0.404144E-05  0.667E-02    1.60       1.0  T
   4    -74.4802561 -0.407226E-04  0.250E-02    1.61       1.0  T
   5    -74.4802780 -0.218527E-04  0.852E-03    1.61       1.7  T
   6    -74.4802792 -0.121168E-05  0.450E-03    1.61       3.2  T
   7    -74.4802795 -0.343775E-06  0.227E-03    1.61       6.4  T
   8    -74.4802796 -0.525947E-07  0.870E-04    1.61      16.8  T
   9    -74.4802796 -0.638164E-08  0.279E-04    1.61      52.2  T
     SCC iter.                  ...        0 min,  0.035 sec
     gradient                   ...        0 min,  0.008 sec
 * total energy  :   -73.4745575 Eh     change       -0.2007048E-01 Eh
   gradient norm :     0.0610428 Eh/α   predicted    -0.1646676E-01 ( -17.96%)
   displ. norm   :     0.3462286 α      lambda       -0.9013197E-02
   maximum displ.:     0.1233396 α      in ANC's #25, #20, #15, ...

........................................................................
.............................. CYCLE    3 ..............................
........................................................................

 iter      E             dE          RMSdq      gap      omega  full diag
   1    -74.4884690 -0.744885E+02  0.162E-01    1.62       0.0  T
   2    -74.4886755 -0.206503E-03  0.997E-02    1.63       1.0  T
   3    -74.4886782 -0.260922E-05  0.459E-02    1.62       1.0  T
   4    -74.4886953 -0.171731E-04  0.192E-02    1.63       1.0  T
   5    -74.4887077 -0.123195E-04  0.645E-03    1.63       2.3  T
   6    -74.4887085 -0.802091E-06  0.293E-03    1.63       5.0  T
   7    -74.4887086 -0.177616E-06  0.134E-03    1.63      10.9  T
   8    -74.4887086 -0.180210E-07  0.589E-04    1.63      24.8  T
   9    -74.4887087 -0.368141E-08  0.225E-04    1.63      64.9  T
     SCC iter.                  ...        0 min,  0.044 sec
     gradient                   ...        0 min,  0.008 sec
 * total energy  :   -73.4800663 Eh     change       -0.5508847E-02 Eh
   gradient norm :     0.0161290 Eh/α   predicted    -0.5050734E-02 (  -8.32%)
   displ. norm   :     0.2684188 α      lambda       -0.1673628E-02
   maximum displ.:     0.1056230 α      in ANC's #18, #15, #25, ...

........................................................................
.............................. CYCLE    4 ..............................
........................................................................

 iter      E             dE          RMSdq      gap      omega  full diag
   1    -74.4872485 -0.744872E+02  0.790E-02    1.62       0.0  T
   2    -74.4872595 -0.109528E-04  0.460E-02    1.63       1.0  T
   3    -74.4872517  0.778297E-05  0.183E-02    1.62       1.0  T
   4    -74.4872619 -0.101382E-04  0.639E-03    1.63       2.3  T
   5    -74.4872627 -0.860698E-06  0.296E-03    1.63       4.9  T
   6    -74.4872629 -0.183760E-06  0.994E-04    1.63      14.7  T
   7    -74.4872629 -0.123522E-07  0.534E-04    1.63      27.3  T
     SCC iter.                  ...        0 min,  0.026 sec
     gradient                   ...        0 min,  0.008 sec
 * total energy  :   -73.4812363 Eh     change       -0.1170010E-02 Eh
   gradient norm :     0.0096844 Eh/α   predicted    -0.8971132E-03 ( -23.32%)
   displ. norm   :     0.2859540 α      lambda       -0.8475014E-03
   maximum displ.:     0.1188323 α      in ANC's #18, #7, #9, ...

........................................................................
.............................. CYCLE    5 ..............................
........................................................................

 iter      E             dE          RMSdq      gap      omega  full diag
   1    -74.4872547 -0.744873E+02  0.777E-02    1.63       0.0  T
   2    -74.4872581 -0.337849E-05  0.452E-02    1.64       1.0  T
   3    -74.4872534  0.464186E-05  0.126E-02    1.63       1.2  T
   4    -74.4872593 -0.584084E-05  0.347E-03    1.64       4.2  T
   5    -74.4872594 -0.118492E-06  0.164E-03    1.64       8.9  T
   6    -74.4872595 -0.736795E-07  0.549E-04    1.64      26.6  T
   7    -74.4872595 -0.243080E-08  0.300E-04    1.64      48.6  T
     SCC iter.                  ...        0 min,  0.034 sec
     gradient                   ...        0 min,  0.008 sec
 * total energy  :   -73.4818202 Eh     change       -0.5838403E-03 Eh
   gradient norm :     0.0066198 Eh/α   predicted    -0.4584099E-03 ( -21.48%)
   displ. norm   :     0.2606122 α      lambda       -0.4330718E-03
   maximum displ.:     0.1215808 α      in ANC's #7, #9, #18, ...

........................................................................
.............................. CYCLE    6 ..............................
........................................................................

 iter      E             dE          RMSdq      gap      omega  full diag
   1    -74.4886876 -0.744887E+02  0.697E-02    1.64       0.0  T
   2    -74.4886897 -0.205362E-05  0.413E-02    1.65       1.0  T
   3    -74.4886855  0.419533E-05  0.103E-02    1.65       1.4  T
   4    -74.4886904 -0.494534E-05  0.284E-03    1.65       5.1  T
   5    -74.4886906 -0.155336E-06  0.143E-03    1.65      10.2  T
   6    -74.4886906 -0.334872E-07  0.616E-04    1.65      23.7  T
   7    -74.4886906 -0.777696E-08  0.279E-04    1.65      52.4  T
     SCC iter.                  ...        0 min,  0.081 sec
     gradient                   ...        0 min,  0.009 sec
 * total energy  :   -73.4821367 Eh     change       -0.3165766E-03 Eh
   gradient norm :     0.0064338 Eh/α   predicted    -0.2312640E-03 ( -26.95%)
   displ. norm   :     0.2833945 α      lambda       -0.3460370E-03
   maximum displ.:     0.1459766 α      in ANC's #7, #9, #10, ...

........................................................................
.............................. CYCLE    7 ..............................
........................................................................

 iter      E             dE          RMSdq      gap      omega  full diag
   1    -74.4905812 -0.744906E+02  0.765E-02    1.65       0.0  T
   2    -74.4905833 -0.210223E-05  0.456E-02    1.65       1.0  T
   3    -74.4905794  0.397146E-05  0.964E-03    1.65       1.5  T
   4    -74.4905841 -0.470791E-05  0.277E-03    1.66       5.3  T
   5    -74.4905842 -0.153361E-06  0.139E-03    1.65      10.5  T
   6    -74.4905843 -0.281608E-07  0.628E-04    1.65      23.2  T
   7    -74.4905843 -0.628853E-08  0.288E-04    1.65      50.7  T
     SCC iter.                  ...        0 min,  0.023 sec
     gradient                   ...        0 min,  0.006 sec
 * total energy  :   -73.4823896 Eh     change       -0.2528305E-03 Eh
   gradient norm :     0.0067754 Eh/α   predicted    -0.1869189E-03 ( -26.07%)
   displ. norm   :     0.2665131 α      lambda       -0.2587406E-03
   maximum displ.:     0.1418543 α      in ANC's #7, #9, #10, ...

........................................................................
.............................. CYCLE    8 ..............................
........................................................................

 iter      E             dE          RMSdq      gap      omega  full diag
   1    -74.4921296 -0.744921E+02  0.734E-02    1.66       0.0  T
   2    -74.4921309 -0.131013E-05  0.435E-02    1.66       1.0  T
   3    -74.4921299  0.102761E-05  0.586E-03    1.66       2.5  T
   4    -74.4921314 -0.146083E-05  0.219E-03    1.66       6.7  T
   5    -74.4921314 -0.618508E-07  0.108E-03    1.66      13.5  T
   6    -74.4921314 -0.232796E-07  0.514E-04    1.66      28.4  T
   7    -74.4921314 -0.316189E-08  0.247E-04    1.66      59.2  T
     SCC iter.                  ...        0 min,  0.025 sec
     gradient                   ...        0 min,  0.005 sec
 * total energy  :   -73.4825820 Eh     change       -0.1923967E-03 Eh
   gradient norm :     0.0057316 Eh/α   predicted    -0.1385597E-03 ( -27.98%)
   displ. norm   :     0.2649354 α      lambda       -0.2065323E-03
   maximum displ.:     0.1415358 α      in ANC's #7, #9, #3, ...

........................................................................
.............................. CYCLE    9 ..............................
........................................................................

 iter      E             dE          RMSdq      gap      omega  full diag
   1    -74.4926918 -0.744927E+02  0.744E-02    1.66       0.0  T
   2    -74.4926929 -0.113404E-05  0.438E-02    1.66       1.0  T
   3    -74.4926921  0.824824E-06  0.627E-03    1.66       2.3  T
   4    -74.4926932 -0.115688E-05  0.248E-03    1.66       5.9  T
   5    -74.4926933 -0.794486E-07  0.113E-03    1.66      12.9  T
   6    -74.4926933 -0.318378E-07  0.452E-04    1.66      32.3  T
   7    -74.4926933 -0.246614E-08  0.220E-04    1.66      66.4  T
     SCC iter.                  ...        0 min,  0.025 sec
     gradient                   ...        0 min,  0.008 sec
 * total energy  :   -73.4827351 Eh     change       -0.1531138E-03 Eh
   gradient norm :     0.0042814 Eh/α   predicted    -0.1105151E-03 ( -27.82%)
   displ. norm   :     0.2671021 α      lambda       -0.1624440E-03
   maximum displ.:     0.1402300 α      in ANC's #7, #9, #3, ...

........................................................................
.............................. CYCLE   10 ..............................
........................................................................

 iter      E             dE          RMSdq      gap      omega  full diag
   1    -74.4923916 -0.744924E+02  0.748E-02    1.65       0.0  T
   2    -74.4923927 -0.106459E-05  0.439E-02    1.65       1.0  T
   3    -74.4923904  0.226575E-05  0.840E-03    1.66       1.7  T
   4    -74.4923930 -0.263496E-05  0.269E-03    1.66       5.4  T
   5    -74.4923932 -0.119475E-06  0.110E-03    1.66      13.2  T
   6    -74.4923932 -0.300052E-07  0.405E-04    1.66      36.0  T
   7    -74.4923932 -0.162220E-08  0.213E-04    1.66      68.5  T
     SCC iter.                  ...        0 min,  0.025 sec
     gradient                   ...        0 min,  0.005 sec
 * total energy  :   -73.4828576 Eh     change       -0.1224865E-03 Eh
   gradient norm :     0.0041041 Eh/α   predicted    -0.8705759E-04 ( -28.92%)
   displ. norm   :     0.2868708 α      lambda       -0.1474697E-03
   maximum displ.:     0.1443625 α      in ANC's #7, #2, #3, ...

........................................................................
.............................. CYCLE   11 ..............................
........................................................................

 iter      E             dE          RMSdq      gap      omega  full diag
   1    -74.4917298 -0.744917E+02  0.796E-02    1.65       0.0  T
   2    -74.4917309 -0.107249E-05  0.466E-02    1.65       1.0  T
   3    -74.4917277  0.318764E-05  0.941E-03    1.65       1.6  T
   4    -74.4917313 -0.362092E-05  0.277E-03    1.65       5.3  T
   5    -74.4917315 -0.129242E-06  0.115E-03    1.65      12.7  T
   6    -74.4917315 -0.357754E-07  0.404E-04    1.65      36.1  T
   7    -74.4917315 -0.169062E-08  0.211E-04    1.65      69.1  T
     SCC iter.                  ...        0 min,  0.045 sec
     gradient                   ...        0 min,  0.013 sec
 * total energy  :   -73.4829698 Eh     change       -0.1122051E-03 Eh
   gradient norm :     0.0047209 Eh/α   predicted    -0.7980347E-04 ( -28.88%)
   displ. norm   :     0.3136019 α      lambda       -0.1429866E-03
   maximum displ.:     0.1482860 α      in ANC's #7, #8, #2, ...

........................................................................
.............................. CYCLE   12 ..............................
........................................................................

 iter      E             dE          RMSdq      gap      omega  full diag
   1    -74.4910636 -0.744911E+02  0.867E-02    1.65       0.0  T
   2    -74.4910646 -0.107000E-05  0.507E-02    1.65       1.0  T
   3    -74.4910625  0.208456E-05  0.778E-03    1.65       1.9  T
   4    -74.4910650 -0.242618E-05  0.283E-03    1.65       5.2  T
   5    -74.4910651 -0.155151E-06  0.126E-03    1.65      11.6  T
   6    -74.4910652 -0.440014E-07  0.412E-04    1.65      35.4  T
   7    -74.4910652 -0.141934E-08  0.220E-04    1.65      66.2  T
     SCC iter.                  ...        0 min,  0.026 sec
     gradient                   ...        0 min,  0.007 sec
 * total energy  :   -73.4830781 Eh     change       -0.1083360E-03 Eh
   gradient norm :     0.0048839 Eh/α   predicted    -0.7852707E-04 ( -27.52%)
   displ. norm   :     0.3190050 α      lambda       -0.1386134E-03
   maximum displ.:     0.1357920 α      in ANC's #7, #8, #2, ...

........................................................................
.............................. CYCLE   13 ..............................
........................................................................

 iter      E             dE          RMSdq      gap      omega  full diag
   1    -74.4910032 -0.744910E+02  0.898E-02    1.66       0.0  T
   2    -74.4910045 -0.121775E-05  0.524E-02    1.66       1.0  T
   3    -74.4910033  0.115102E-05  0.627E-03    1.66       2.3  T
   4    -74.4910048 -0.151752E-05  0.248E-03    1.66       5.9  T
   5    -74.4910049 -0.103322E-06  0.116E-03    1.66      12.6  T
   6    -74.4910050 -0.326613E-07  0.417E-04    1.66      35.0  T
   7    -74.4910050 -0.224466E-08  0.240E-04    1.66      60.8  T
     SCC iter.                  ...        0 min,  0.026 sec
     gradient                   ...        0 min,  0.005 sec
 * total energy  :   -73.4831829 Eh     change       -0.1048001E-03 Eh
   gradient norm :     0.0044033 Eh/α   predicted    -0.7638315E-04 ( -27.12%)
   displ. norm   :     0.3316083 α      lambda       -0.1377134E-03
   maximum displ.:     0.1526327 α      in ANC's #8, #7, #2, ...

........................................................................
.............................. CYCLE   14 ..............................
........................................................................

 iter      E             dE          RMSdq      gap      omega  full diag
   1    -74.4908093 -0.744908E+02  0.961E-02    1.66       0.0  T
   2    -74.4908109 -0.158247E-05  0.558E-02    1.66       1.0  T
   3    -74.4908097  0.117159E-05  0.661E-03    1.66       2.2  T
   4    -74.4908113 -0.157538E-05  0.283E-03    1.66       5.2  T
   5    -74.4908115 -0.127992E-06  0.122E-03    1.66      12.0  T
   6    -74.4908115 -0.458181E-07  0.439E-04    1.66      33.2  T
   7    -74.4908115 -0.352836E-08  0.239E-04    1.66      61.0  T
     SCC iter.                  ...        0 min,  0.031 sec
     gradient                   ...        0 min,  0.006 sec
 * total energy  :   -73.4832886 Eh     change       -0.1057019E-03 Eh
   gradient norm :     0.0044843 Eh/α   predicted    -0.7643215E-04 ( -27.69%)
   displ. norm   :     0.3190453 α      lambda       -0.1781986E-03
   maximum displ.:     0.1730308 α      in ANC's #8, #4, #1, ...

........................................................................
.............................. CYCLE   15 ..............................
........................................................................

 iter      E             dE          RMSdq      gap      omega  full diag
   1    -74.4951275 -0.744951E+02  0.979E-02    1.67       0.0  T
   2    -74.4951302 -0.270256E-05  0.564E-02    1.68       1.0  T
   3    -74.4951279  0.231490E-05  0.916E-03    1.68       1.6  T
   4    -74.4951306 -0.267604E-05  0.423E-03    1.68       3.4  T
   5    -74.4951310 -0.393915E-06  0.169E-03    1.68       8.6  T
   6    -74.4951311 -0.674920E-07  0.516E-04    1.68      28.3  T
   7    -74.4951311 -0.584505E-08  0.249E-04    1.68      58.5  T
     SCC iter.                  ...        0 min,  0.021 sec
     gradient                   ...        0 min,  0.006 sec
 * total energy  :   -73.4833819 Eh     change       -0.9325281E-04 Eh
   gradient norm :     0.0072343 Eh/α   predicted    -0.9817290E-04 (   5.28%)
   displ. norm   :     0.4606845 α      lambda       -0.2249308E-03
   maximum displ.:     0.2061090 α      in ANC's #8, #7, #4, ...

........................................................................
.............................. CYCLE   16 ..............................
........................................................................

 iter      E             dE          RMSdq      gap      omega  full diag
   1    -74.4901748 -0.744902E+02  0.139E-01    1.68       0.0  T
   2    -74.4901791 -0.427665E-05  0.807E-02    1.68       1.0  T
   3    -74.4901771  0.197850E-05  0.994E-03    1.69       1.5  T
   4    -74.4901800 -0.287200E-05  0.462E-03    1.69       3.2  T
   5    -74.4901804 -0.354436E-06  0.153E-03    1.69       9.6  T
   6    -74.4901804 -0.673700E-07  0.535E-04    1.69      27.2  T
   7    -74.4901804 -0.305640E-08  0.326E-04    1.69      44.8  T
     SCC iter.                  ...        0 min,  0.021 sec
     gradient                   ...        0 min,  0.007 sec
 * total energy  :   -73.4835045 Eh     change       -0.1226280E-03 Eh
   gradient norm :     0.0077538 Eh/α   predicted    -0.1363359E-03 (  11.18%)
   displ. norm   :     0.1429602 α      lambda       -0.1300514E-03
   maximum displ.:     0.0659641 α      in ANC's #4, #8, #6, ...

........................................................................
.............................. CYCLE   17 ..............................
........................................................................

 iter      E             dE          RMSdq      gap      omega  full diag
   1    -74.4925341 -0.744925E+02  0.453E-02    1.69       0.0  T
   2    -74.4925347 -0.599650E-06  0.259E-02    1.69       1.0  T
   3    -74.4925344  0.349458E-06  0.431E-03    1.69       3.4  T
   4    -74.4925349 -0.498072E-06  0.186E-03    1.69       7.8  T
   5    -74.4925349 -0.363186E-07  0.634E-04    1.69      23.0  T
   6    -74.4925349 -0.149145E-07  0.189E-04    1.69      77.2  T
     SCC iter.                  ...        0 min,  0.038 sec
     gradient                   ...        0 min,  0.013 sec
 * total energy  :   -73.4836112 Eh     change       -0.1067479E-03 Eh
   gradient norm :     0.0054730 Eh/α   predicted    -0.6635776E-04 ( -37.84%)
   displ. norm   :     0.5152943 α      lambda       -0.2987131E-03
   maximum displ.:     0.2463642 α      in ANC's #8, #4, #2, ...

........................................................................
.............................. CYCLE   18 ..............................
........................................................................

 iter      E             dE          RMSdq      gap      omega  full diag
   1    -74.4916576 -0.744917E+02  0.162E-01    1.69       0.0  T
   2    -74.4916632 -0.566008E-05  0.931E-02    1.70       1.0  T
   3    -74.4916599  0.332604E-05  0.137E-02    1.70       1.1  T
   4    -74.4916641 -0.423058E-05  0.685E-03    1.70       2.1  T
   5    -74.4916649 -0.769262E-06  0.221E-03    1.70       6.6  T
   6    -74.4916651 -0.187948E-06  0.690E-04    1.70      21.1  T
   7    -74.4916651 -0.982460E-08  0.339E-04    1.70      43.1  T
     SCC iter.                  ...        0 min,  0.022 sec
     gradient                   ...        0 min,  0.005 sec
 * total energy  :   -73.4837950 Eh     change       -0.1837741E-03 Eh
   gradient norm :     0.0055300 Eh/α   predicted    -0.1890164E-03 (   2.85%)
   displ. norm   :     0.3265764 α      lambda       -0.1614526E-03
   maximum displ.:     0.1528241 α      in ANC's #4, #8, #6, ...

........................................................................
.............................. CYCLE   19 ..............................
........................................................................

 iter      E             dE          RMSdq      gap      omega  full diag
   1    -74.4927351 -0.744927E+02  0.102E-01    1.70       0.0  T
   2    -74.4927379 -0.278896E-05  0.577E-02    1.71       1.0  T
   3    -74.4927361  0.184572E-05  0.997E-03    1.71       1.5  T
   4    -74.4927383 -0.219684E-05  0.521E-03    1.71       2.8  T
   5    -74.4927388 -0.499513E-06  0.145E-03    1.71      10.1  T
   6    -74.4927388 -0.772689E-07  0.498E-04    1.71      29.3  T
   7    -74.4927389 -0.459343E-08  0.249E-04    1.71      58.5  T
     SCC iter.                  ...        0 min,  0.020 sec
     gradient                   ...        0 min,  0.005 sec
 * total energy  :   -73.4839092 Eh     change       -0.1141881E-03 Eh
   gradient norm :     0.0055309 Eh/α   predicted    -0.8934180E-04 ( -21.76%)
   displ. norm   :     0.4936067 α      lambda       -0.1850105E-03
   maximum displ.:     0.2201544 α      in ANC's #4, #8, #2, ...

........................................................................
.............................. CYCLE   20 ..............................
........................................................................

 iter      E             dE          RMSdq      gap      omega  full diag
   1    -74.4902201 -0.744902E+02  0.155E-01    1.71       0.0  T
   2    -74.4902256 -0.550337E-05  0.880E-02    1.73       1.0  T
   3    -74.4902210  0.463878E-05  0.145E-02    1.73       1.0  T
   4    -74.4902264 -0.544782E-05  0.752E-03    1.73       1.9  T
   5    -74.4902275 -0.109443E-05  0.177E-03    1.73       8.3  T
   6    -74.4902276 -0.109759E-06  0.714E-04    1.73      20.4  T
   7    -74.4902277 -0.122370E-07  0.330E-04    1.73      44.2  T
     SCC iter.                  ...        0 min,  0.033 sec
     gradient                   ...        0 min,  0.005 sec
 * total energy  :   -73.4840553 Eh     change       -0.1460848E-03 Eh
   gradient norm :     0.0058149 Eh/α   predicted    -0.1150445E-03 ( -21.25%)
   displ. norm   :     0.4656076 α      lambda       -0.3534445E-03
   maximum displ.:     0.2300464 α      in ANC's #6, #2, #4, ...
 * RMSD in coord.:     0.7039915 α      energy gain  -0.2956830E-01 Eh

generating ANC from exact Hessian ...
Using Lindh-Hessian (1995)
 Shifting diagonal of input Hessian by   9.933392140363342E-003
 Lowest  eigenvalues of input Hessian
    0.000000    0.000000    0.000000    0.000000    0.000000    0.010000
    0.000000    0.010174    0.010287    0.010643    0.011020    0.011228
    0.011447    0.011783    0.012169    0.012570    0.012796    0.014910
 Highest eigenvalues
    1.923787    1.992105    2.020379    2.033369    2.091036    2.206308
 

........................................................................
.............................. CYCLE   21 ..............................
........................................................................

 iter      E             dE          RMSdq      gap      omega  full diag
   1    -74.4975279 -0.744975E+02  0.150E-01    1.73       0.0  T
   2    -74.4975358 -0.791863E-05  0.843E-02    1.74       1.0  T
   3    -74.4975241  0.117797E-04  0.207E-02    1.75       1.0  T
   4    -74.4975379 -0.137909E-04  0.895E-03    1.75       1.6  T
   5    -74.4975389 -0.106682E-05  0.288E-03    1.75       5.1  T
   6    -74.4975392 -0.294765E-06  0.828E-04    1.75      17.6  T
   7    -74.4975392 -0.145821E-07  0.433E-04    1.75      33.7  T
     SCC iter.                  ...        0 min,  0.020 sec
     gradient                   ...        0 min,  0.005 sec
 * total energy  :   -73.4842054 Eh     change       -0.1501656E-03 Eh
   gradient norm :     0.0100690 Eh/α   predicted     0.0000000E+00 (-100.00%)
   displ. norm   :     0.0698855 α      lambda       -0.2185693E-03
   maximum displ.:     0.0273193 α      in ANC's #6, #4, #14, ...

........................................................................
.............................. CYCLE   22 ..............................
........................................................................

 iter      E             dE          RMSdq      gap      omega  full diag
   1    -74.4948918 -0.744949E+02  0.268E-02    1.75       0.0  T
   2    -74.4948927 -0.854291E-06  0.158E-02    1.75       1.0  T
   3    -74.4948917  0.957913E-06  0.535E-03    1.75       2.7  T
   4    -74.4948928 -0.106383E-05  0.187E-03    1.75       7.8  T
   5    -74.4948929 -0.105954E-06  0.688E-04    1.75      21.2  T
   6    -74.4948929 -0.722569E-08  0.252E-04    1.75      57.8  T
     SCC iter.                  ...        0 min,  0.035 sec
     gradient                   ...        0 min,  0.029 sec
 * total energy  :   -73.4843678 Eh     change       -0.1623747E-03 Eh
   gradient norm :     0.0040406 Eh/α   predicted    -0.1140685E-03 ( -29.75%)
   displ. norm   :     0.1248210 α      lambda       -0.1463496E-03
   maximum displ.:     0.0558102 α      in ANC's #6, #4, #14, ...

........................................................................
.............................. CYCLE   23 ..............................
........................................................................

 iter      E             dE          RMSdq      gap      omega  full diag
   1    -74.4934693 -0.744935E+02  0.395E-02    1.76       0.0  T
   2    -74.4934704 -0.112177E-05  0.226E-02    1.76       1.0  T
   3    -74.4934698  0.624645E-06  0.497E-03    1.76       2.9  T
   4    -74.4934705 -0.682266E-06  0.247E-03    1.76       5.9  T
   5    -74.4934706 -0.162057E-06  0.966E-04    1.76      15.1  T
   6    -74.4934706 -0.207843E-07  0.343E-04    1.76      42.5  T
     SCC iter.                  ...        0 min,  0.018 sec
     gradient                   ...        0 min,  0.006 sec
 * total energy  :   -73.4844714 Eh     change       -0.1035613E-03 Eh
   gradient norm :     0.0027439 Eh/α   predicted    -0.7431812E-04 ( -28.24%)
   displ. norm   :     0.1796576 α      lambda       -0.1205389E-03
   maximum displ.:     0.0865621 α      in ANC's #6, #4, #14, ...

........................................................................
.............................. CYCLE   24 ..............................
........................................................................

 iter      E             dE          RMSdq      gap      omega  full diag
   1    -74.4928775 -0.744929E+02  0.555E-02    1.76       0.0  T
   2    -74.4928791 -0.161105E-05  0.312E-02    1.77       1.0  T
   3    -74.4928786  0.511977E-06  0.593E-03    1.77       2.5  T
   4    -74.4928792 -0.638636E-06  0.309E-03    1.77       4.7  T
   5    -74.4928795 -0.216810E-06  0.800E-04    1.77      18.2  T
   6    -74.4928795 -0.109024E-07  0.380E-04    1.77      38.4  T
     SCC iter.                  ...        0 min,  0.019 sec
     gradient                   ...        0 min,  0.012 sec
 * total energy  :   -73.4845685 Eh     change       -0.9708670E-04 Eh
   gradient norm :     0.0051835 Eh/α   predicted    -0.6224664E-04 ( -35.89%)
   displ. norm   :     0.3031072 α      lambda       -0.1806809E-03
   maximum displ.:     0.1500648 α      in ANC's #6, #4, #14, ...

........................................................................
.............................. CYCLE   25 ..............................
........................................................................

 iter      E             dE          RMSdq      gap      omega  full diag
   1    -74.4924166 -0.744924E+02  0.943E-02    1.77       0.0  T
   2    -74.4924210 -0.436865E-05  0.526E-02    1.79       1.0  T
   3    -74.4924190  0.200292E-05  0.111E-02    1.79       1.3  T
   4    -74.4924214 -0.244768E-05  0.559E-03    1.79       2.6  T
   5    -74.4924220 -0.589089E-06  0.133E-03    1.79      11.0  T
   6    -74.4924221 -0.283345E-07  0.679E-04    1.79      21.5  T
   7    -74.4924221 -0.142103E-07  0.308E-04    1.79      47.3  T
     SCC iter.                  ...        0 min,  0.067 sec
     gradient                   ...        0 min,  0.013 sec
 * total energy  :   -73.4847164 Eh     change       -0.1479098E-03 Eh
   gradient norm :     0.0069252 Eh/α   predicted    -0.9873767E-04 ( -33.24%)
   displ. norm   :     0.3834658 α      lambda       -0.2181683E-03
   maximum displ.:     0.1946920 α      in ANC's #6, #4, #2, ...

........................................................................
.............................. CYCLE   26 ..............................
........................................................................

 iter      E             dE          RMSdq      gap      omega  full diag
   1    -74.4922002 -0.744922E+02  0.120E-01    1.79       0.0  T
   2    -74.4922073 -0.704672E-05  0.667E-02    1.80       1.0  T
   3    -74.4922027  0.455445E-05  0.155E-02    1.81       1.0  T
   4    -74.4922081 -0.538529E-05  0.751E-03    1.81       1.9  T
   5    -74.4922091 -0.955553E-06  0.190E-03    1.81       7.7  T
   6    -74.4922092 -0.829748E-07  0.944E-04    1.81      15.5  T
   7    -74.4922092 -0.310029E-07  0.366E-04    1.81      39.8  T
     SCC iter.                  ...        0 min,  0.040 sec
     gradient                   ...        0 min,  0.006 sec
 * total energy  :   -73.4848912 Eh     change       -0.1748101E-03 Eh
   gradient norm :     0.0073217 Eh/α   predicted    -0.1251250E-03 ( -28.42%)
   displ. norm   :     0.3836639 α      lambda       -0.2221209E-03
   maximum displ.:     0.1989775 α      in ANC's #6, #4, #2, ...

........................................................................
.............................. CYCLE   27 ..............................
........................................................................

 iter      E             dE          RMSdq      gap      omega  full diag
   1    -74.4932981 -0.744933E+02  0.122E-01    1.81       0.0  T
   2    -74.4933049 -0.676854E-05  0.670E-02    1.82       1.0  T
   3    -74.4932997  0.518272E-05  0.162E-02    1.83       1.0  T
   4    -74.4933058 -0.612163E-05  0.771E-03    1.83       1.9  T
   5    -74.4933068 -0.960698E-06  0.190E-03    1.83       7.7  T
   6    -74.4933069 -0.985444E-07  0.910E-04    1.83      16.0  T
   7    -74.4933069 -0.274423E-07  0.365E-04    1.83      40.0  T
     SCC iter.                  ...        0 min,  0.020 sec
     gradient                   ...        0 min,  0.006 sec
 * total energy  :   -73.4850689 Eh     change       -0.1777151E-03 Eh
   gradient norm :     0.0058063 Eh/α   predicted    -0.1274087E-03 ( -28.31%)
   displ. norm   :     0.3909127 α      lambda       -0.2188976E-03
   maximum displ.:     0.2130921 α      in ANC's #4, #6, #2, ...

........................................................................
.............................. CYCLE   28 ..............................
........................................................................

 iter      E             dE          RMSdq      gap      omega  full diag
   1    -74.4950401 -0.744950E+02  0.125E-01    1.83       0.0  T
   2    -74.4950472 -0.704887E-05  0.684E-02    1.84       1.0  T
   3    -74.4950418  0.541124E-05  0.165E-02    1.85       1.0  T
   4    -74.4950482 -0.641138E-05  0.799E-03    1.85       1.8  T
   5    -74.4950492 -0.104088E-05  0.200E-03    1.85       7.3  T
   6    -74.4950493 -0.109064E-06  0.921E-04    1.85      15.8  T
   7    -74.4950493 -0.257240E-07  0.401E-04    1.85      36.4  T
     SCC iter.                  ...        0 min,  0.020 sec
     gradient                   ...        0 min,  0.006 sec
 * total energy  :   -73.4852426 Eh     change       -0.1737499E-03 Eh
   gradient norm :     0.0041095 Eh/α   predicted    -0.1261831E-03 ( -27.38%)
   displ. norm   :     0.4324994 α      lambda       -0.1933610E-03
   maximum displ.:     0.2430544 α      in ANC's #4, #6, #2, ...

........................................................................
.............................. CYCLE   29 ..............................
........................................................................

 iter      E             dE          RMSdq      gap      omega  full diag
   1    -74.4945734 -0.744946E+02  0.138E-01    1.85       0.0  T
   2    -74.4945817 -0.829632E-05  0.760E-02    1.86       1.0  T
   3    -74.4945758  0.590823E-05  0.176E-02    1.87       1.0  T
   4    -74.4945827 -0.685550E-05  0.890E-03    1.87       1.6  T
   5    -74.4945841 -0.141734E-05  0.207E-03    1.87       7.0  T
   6    -74.4945842 -0.980464E-07  0.103E-03    1.87      14.2  T
   7    -74.4945842 -0.337679E-07  0.433E-04    1.87      33.7  T
   8    -74.4945842 -0.139717E-08  0.243E-04    1.87      60.0  T
     SCC iter.                  ...        0 min,  0.031 sec
     gradient                   ...        0 min,  0.006 sec
 * total energy  :   -73.4854011 Eh     change       -0.1584990E-03 Eh
   gradient norm :     0.0049129 Eh/α   predicted    -0.1147652E-03 ( -27.59%)
   displ. norm   :     0.4224990 α      lambda       -0.2052170E-03
   maximum displ.:     0.2477930 α      in ANC's #4, #6, #3, ...

........................................................................
.............................. CYCLE   30 ..............................
........................................................................

 iter      E             dE          RMSdq      gap      omega  full diag
   1    -74.4960932 -0.744961E+02  0.136E-01    1.87       0.0  T
   2    -74.4961008 -0.755211E-05  0.753E-02    1.89       1.0  T
   3    -74.4960965  0.431234E-05  0.159E-02    1.89       1.0  T
   4    -74.4961014 -0.494685E-05  0.843E-03    1.89       1.7  T
   5    -74.4961028 -0.144352E-05  0.188E-03    1.89       7.8  T
   6    -74.4961029 -0.601227E-07  0.867E-04    1.89      16.8  T
   7    -74.4961029 -0.200726E-07  0.438E-04    1.89      33.3  T
     SCC iter.                  ...        0 min,  0.026 sec
     gradient                   ...        0 min,  0.006 sec
 * total energy  :   -73.4855645 Eh     change       -0.1633494E-03 Eh
   gradient norm :     0.0068482 Eh/α   predicted    -0.1209262E-03 ( -25.97%)
   displ. norm   :     0.5310493 α      lambda       -0.2243392E-03
   maximum displ.:     0.3114018 α      in ANC's #4, #6, #3, ...

........................................................................
.............................. CYCLE   31 ..............................
........................................................................

 iter      E             dE          RMSdq      gap      omega  full diag
   1    -74.4921845 -0.744922E+02  0.174E-01    1.89       0.0  T
   2    -74.4921977 -0.131274E-04  0.956E-02    1.91       1.0  T
   3    -74.4921895  0.818445E-05  0.214E-02    1.91       1.0  T
   4    -74.4921986 -0.916248E-05  0.111E-02    1.92       1.3  T
   5    -74.4922011 -0.241870E-05  0.269E-03    1.91       5.4  T
   6    -74.4922012 -0.134095E-06  0.121E-03    1.91      12.1  T
   7    -74.4922012 -0.456223E-07  0.525E-04    1.91      27.8  T
   8    -74.4922013 -0.338056E-08  0.290E-04    1.91      50.3  T
     SCC iter.                  ...        0 min,  0.022 sec
     gradient                   ...        0 min,  0.006 sec
 * total energy  :   -73.4857395 Eh     change       -0.1750407E-03 Eh
   gradient norm :     0.0075034 Eh/α   predicted    -0.1438171E-03 ( -17.84%)
   displ. norm   :     0.5032968 α      lambda       -0.3284639E-03
   maximum displ.:     0.3113470 α      in ANC's #4, #6, #3, ...

........................................................................
.............................. CYCLE   32 ..............................
........................................................................

 iter      E             dE          RMSdq      gap      omega  full diag
   1    -74.4951911 -0.744952E+02  0.166E-01    1.92       0.0  T
   2    -74.4952009 -0.986360E-05  0.925E-02    1.93       1.0  T
   3    -74.4951963  0.463096E-05  0.174E-02    1.93       1.0  T
   4    -74.4952013 -0.496525E-05  0.958E-03    1.94       1.5  T
   5    -74.4952034 -0.212434E-05  0.218E-03    1.93       6.7  T
   6    -74.4952034 -0.628155E-07  0.857E-04    1.94      17.0  T
   7    -74.4952035 -0.148626E-07  0.498E-04    1.93      29.3  T
     SCC iter.                  ...        0 min,  0.020 sec
     gradient                   ...        0 min,  0.006 sec
 * total energy  :   -73.4859779 Eh     change       -0.2383823E-03 Eh
   gradient norm :     0.0076271 Eh/α   predicted    -0.2058379E-03 ( -13.65%)
   displ. norm   :     0.5454141 α      lambda       -0.2580532E-03
   maximum displ.:     0.3301439 α      in ANC's #4, #6, #3, ...

........................................................................
.............................. CYCLE   33 ..............................
........................................................................

 iter      E             dE          RMSdq      gap      omega  full diag
   1    -74.4915822 -0.744916E+02  0.184E-01    1.94       0.0  T
   2    -74.4915964 -0.142524E-04  0.101E-01    1.96       1.0  T
   3    -74.4915871  0.935477E-05  0.224E-02    1.96       1.0  T
   4    -74.4915973 -0.102179E-04  0.116E-02    1.96       1.3  T
   5    -74.4916001 -0.284542E-05  0.278E-03    1.96       5.2  T
   6    -74.4916002 -0.116371E-06  0.111E-03    1.96      13.1  T
   7    -74.4916003 -0.369386E-07  0.513E-04    1.96      28.4  T
   8    -74.4916003 -0.344990E-08  0.280E-04    1.96      52.0  T
     SCC iter.                  ...        0 min,  0.022 sec
     gradient                   ...        0 min,  0.005 sec
 * total energy  :   -73.4861707 Eh     change       -0.1927443E-03 Eh
   gradient norm :     0.0077556 Eh/α   predicted    -0.1674190E-03 ( -13.14%)
   displ. norm   :     0.3735515 α      lambda       -0.3663756E-03
   maximum displ.:     0.2171539 α      in ANC's #4, #6, #3, ...

........................................................................
.............................. CYCLE   34 ..............................
........................................................................

 iter      E             dE          RMSdq      gap      omega  full diag
   1    -74.4986964 -0.744987E+02  0.128E-01    1.96       0.0  T
   2    -74.4987045 -0.806297E-05  0.714E-02    1.97       1.0  T
   3    -74.4986977  0.678624E-05  0.178E-02    1.97       1.0  T
   4    -74.4987057 -0.796234E-05  0.782E-03    1.97       1.9  T
   5    -74.4987066 -0.964415E-06  0.256E-03    1.97       5.7  T
   6    -74.4987068 -0.160227E-06  0.953E-04    1.97      15.3  T
   7    -74.4987068 -0.213958E-07  0.444E-04    1.97      32.8  T
     SCC iter.                  ...        0 min,  0.020 sec
     gradient                   ...        0 min,  0.006 sec
 * total energy  :   -73.4863072 Eh     change       -0.1365022E-03 Eh
   gradient norm :     0.0074187 Eh/α   predicted    -0.2087498E-03 (  52.93%)
   displ. norm   :     0.4999681 α      lambda       -0.2420376E-03
   maximum displ.:     0.2902722 α      in ANC's #4, #6, #3, ...

........................................................................
.............................. CYCLE   35 ..............................
........................................................................

 iter      E             dE          RMSdq      gap      omega  full diag
   1    -74.4910734 -0.744911E+02  0.172E-01    1.97       0.0  T
   2    -74.4910852 -0.117885E-04  0.949E-02    1.99       1.0  T
   3    -74.4910744  0.108181E-04  0.225E-02    1.99       1.0  T
   4    -74.4910864 -0.120409E-04  0.110E-02    1.99       1.3  T
   5    -74.4910887 -0.230611E-05  0.296E-03    1.99       4.9  T
   6    -74.4910889 -0.183849E-06  0.116E-03    1.99      12.6  T
   7    -74.4910889 -0.403939E-07  0.525E-04    1.99      27.8  T
   8    -74.4910889 -0.365499E-08  0.274E-04    1.99      53.2  T
     SCC iter.                  ...        0 min,  0.033 sec
     gradient                   ...        0 min,  0.014 sec
 * total energy  :   -73.4864284 Eh     change       -0.1212522E-03 Eh
   gradient norm :     0.0092220 Eh/α   predicted    -0.1512800E-03 (  24.76%)
   displ. norm   :     0.0663161 α      lambda       -0.1202752E-03
   maximum displ.:     0.0260909 α      in ANC's #9, #2, #13, ...

........................................................................
.............................. CYCLE   36 ..............................
........................................................................

 iter      E             dE          RMSdq      gap      omega  full diag
   1    -74.4926785 -0.744927E+02  0.244E-02    1.99       0.0  T
   2    -74.4926791 -0.579669E-06  0.138E-02    1.99       1.1  T
   3    -74.4926787  0.438490E-06  0.442E-03    1.99       3.3  T
   4    -74.4926792 -0.580416E-06  0.138E-03    1.99      10.6  T
   5    -74.4926793 -0.190183E-07  0.643E-04    1.99      22.7  T
   6    -74.4926793 -0.118244E-07  0.218E-04    1.99      66.9  T
     SCC iter.                  ...        0 min,  0.020 sec
     gradient                   ...        0 min,  0.006 sec
 * total energy  :   -73.4865191 Eh     change       -0.9063981E-04 Eh
   gradient norm :     0.0054942 Eh/α   predicted    -0.6040381E-04 ( -33.36%)
   displ. norm   :     0.2998294 α      lambda       -0.2234655E-03
   maximum displ.:     0.1789601 α      in ANC's #6, #4, #3, ...

........................................................................
.............................. CYCLE   37 ..............................
........................................................................

 iter      E             dE          RMSdq      gap      omega  full diag
   1    -74.4967559 -0.744968E+02  0.108E-01    1.99       0.0  T
   2    -74.4967612 -0.531386E-05  0.593E-02    2.00       1.0  T
   3    -74.4967546  0.655763E-05  0.168E-02    2.00       1.0  T
   4    -74.4967623 -0.763858E-05  0.700E-03    2.00       2.1  T
   5    -74.4967629 -0.627729E-06  0.237E-03    2.00       6.2  T
   6    -74.4967631 -0.185670E-06  0.763E-04    2.00      19.1  T
   7    -74.4967631 -0.162607E-07  0.330E-04    2.00      44.2  T
     SCC iter.                  ...        0 min,  0.059 sec
     gradient                   ...        0 min,  0.006 sec
 * total energy  :   -73.4866764 Eh     change       -0.1573451E-03 Eh
   gradient norm :     0.0056047 Eh/α   predicted    -0.1217806E-03 ( -22.60%)
   displ. norm   :     0.5637882 α      lambda       -0.2282993E-03
   maximum displ.:     0.3359272 α      in ANC's #6, #4, #3, ...

........................................................................
.............................. CYCLE   38 ..............................
........................................................................

 iter      E             dE          RMSdq      gap      omega  full diag
   1    -74.4938361 -0.744938E+02  0.200E-01    2.00       0.0  T
   2    -74.4938507 -0.146008E-04  0.111E-01    2.01       1.0  T
   3    -74.4938386  0.120607E-04  0.247E-02    2.01       1.0  T
   4    -74.4938517 -0.130839E-04  0.124E-02    2.02       1.2  T
   5    -74.4938547 -0.295954E-05  0.311E-03    2.02       4.7  T
   6    -74.4938549 -0.229215E-06  0.130E-03    2.02      11.2  T
   7    -74.4938549 -0.605360E-07  0.508E-04    2.02      28.7  T
   8    -74.4938549 -0.253803E-08  0.283E-04    2.02      51.6  T
     SCC iter.                  ...        0 min,  0.021 sec
     gradient                   ...        0 min,  0.005 sec
 * total energy  :   -73.4868485 Eh     change       -0.1720545E-03 Eh
   gradient norm :     0.0085070 Eh/α   predicted    -0.1504374E-03 ( -12.56%)
   displ. norm   :     0.4741699 α      lambda       -0.3101313E-03
   maximum displ.:     0.3058914 α      in ANC's #6, #4, #3, ...

........................................................................
.............................. CYCLE   39 ..............................
........................................................................

 iter      E             dE          RMSdq      gap      omega  full diag
   1    -74.4969685 -0.744970E+02  0.169E-01    2.02       0.0  T
   2    -74.4969786 -0.100704E-04  0.940E-02    2.03       1.0  T
   3    -74.4969746  0.401250E-05  0.178E-02    2.03       1.0  T
   4    -74.4969792 -0.462364E-05  0.921E-03    2.03       1.6  T
   5    -74.4969809 -0.170769E-05  0.214E-03    2.03       6.8  T
   6    -74.4969810 -0.951163E-07  0.843E-04    2.03      17.3  T
   7    -74.4969810 -0.183168E-07  0.457E-04    2.03      31.9  T
     SCC iter.                  ...        0 min,  0.019 sec
     gradient                   ...        0 min,  0.006 sec
 * total energy  :   -73.4870742 Eh     change       -0.2257727E-03 Eh
   gradient norm :     0.0086620 Eh/α   predicted    -0.1899320E-03 ( -15.87%)
   displ. norm   :     0.5420188 α      lambda       -0.3343195E-03
   maximum displ.:     0.3359742 α      in ANC's #6, #4, #3, ...

........................................................................
.............................. CYCLE   40 ..............................
........................................................................

 iter      E             dE          RMSdq      gap      omega  full diag
   1    -74.4952602 -0.744953E+02  0.200E-01    2.04       0.0  T
   2    -74.4952717 -0.115190E-04  0.110E-01    2.05       1.0  T
   3    -74.4952693  0.244633E-05  0.184E-02    2.05       1.0  T
   4    -74.4952716 -0.228372E-05  0.102E-02    2.05       1.4  T
   5    -74.4952744 -0.278695E-05  0.209E-03    2.05       7.0  T
   6    -74.4952745 -0.123967E-06  0.719E-04    2.05      20.3  T
   7    -74.4952745 -0.112010E-07  0.419E-04    2.05      34.8  T
     SCC iter.                  ...        0 min,  0.018 sec
     gradient                   ...        0 min,  0.005 sec
 * total energy  :   -73.4872833 Eh     change       -0.2090388E-03 Eh
   gradient norm :     0.0078559 Eh/α   predicted    -0.2162725E-03 (   3.46%)
   displ. norm   :     0.2919776 α      lambda       -0.3794017E-03
   maximum displ.:     0.1535945 α      in ANC's #9, #6, #14, ...

........................................................................
.............................. CYCLE   41 ..............................
........................................................................

 iter      E             dE          RMSdq      gap      omega  full diag
   1    -74.5038148 -0.745038E+02  0.965E-02    2.06       0.0  T
   2    -74.5038193 -0.451413E-05  0.551E-02    2.06       1.0  T
   3    -74.5038148  0.449448E-05  0.130E-02    2.06       1.1  T
   4    -74.5038199 -0.510123E-05  0.506E-03    2.06       2.9  T
   5    -74.5038204 -0.561726E-06  0.208E-03    2.06       7.0  T
   6    -74.5038205 -0.802845E-07  0.669E-04    2.06      21.8  T
   7    -74.5038205 -0.105882E-07  0.320E-04    2.06      45.6  T
     SCC iter.                  ...        0 min,  0.019 sec
     gradient                   ...        0 min,  0.005 sec
 * total energy  :   -73.4873721 Eh     change       -0.8879863E-04 Eh
   gradient norm :     0.0106340 Eh/α   predicted    -0.2058747E-03 ( 131.84%)
   displ. norm   :     0.5294056 α      lambda       -0.4416240E-03
   maximum displ.:     0.3494988 α      in ANC's #6, #4, #3, ...

........................................................................
.............................. CYCLE   42 ..............................
........................................................................

 iter      E             dE          RMSdq      gap      omega  full diag
   1    -74.4922040 -0.744922E+02  0.192E-01    2.06       0.0  T
   2    -74.4922136 -0.960273E-05  0.107E-01    2.07       1.0  T
   3    -74.4922090  0.466523E-05  0.183E-02    2.07       1.0  T
   4    -74.4922140 -0.501243E-05  0.997E-03    2.07       1.5  T
   5    -74.4922164 -0.238271E-05  0.234E-03    2.07       6.2  T
   6    -74.4922165 -0.150797E-06  0.689E-04    2.07      21.2  T
   7    -74.4922165 -0.414070E-08  0.423E-04    2.07      34.5  T
     SCC iter.                  ...        0 min,  0.019 sec
     gradient                   ...        0 min,  0.006 sec
 * total energy  :   -73.4873721 Eh     change       -0.5945635E-07 Eh
   gradient norm :     0.0153851 Eh/α   predicted    -0.2827012E-03 (*******%)
   displ. norm   :     0.1830479 α      lambda       -0.4792896E-03
   maximum displ.:     0.1018114 α      in ANC's #6, #4, #3, ...
 * RMSD in coord.:     1.0342944 α      energy gain  -0.3316852E-02 Eh

generating ANC from exact Hessian ...
Using Lindh-Hessian (1995)
 Shifting diagonal of input Hessian by   9.922423035826270E-003
 Lowest  eigenvalues of input Hessian
    0.000000    0.000000    0.000000    0.000000    0.000000    0.000000
    0.010000    0.010208    0.010312    0.010646    0.011064    0.011359
    0.011469    0.011926    0.012276    0.012744    0.013064    0.014767
 Highest eigenvalues
    1.921228    1.982749    2.014121    2.029228    2.086429    2.208608
 

........................................................................
.............................. CYCLE   43 ..............................
........................................................................

 iter      E             dE          RMSdq      gap      omega  full diag
   1    -74.4973018 -0.744973E+02  0.666E-02    2.06       0.0  T
   2    -74.4973035 -0.164809E-05  0.387E-02    2.06       1.0  T
   3    -74.4973022  0.126244E-05  0.728E-03    2.06       2.0  T
   4    -74.4973037 -0.152055E-05  0.322E-03    2.06       4.5  T
   5    -74.4973039 -0.179548E-06  0.141E-03    2.06      10.3  T
   6    -74.4973040 -0.556041E-07  0.445E-04    2.06      32.8  T
   7    -74.4973040 -0.294307E-08  0.231E-04    2.06      63.2  T
     SCC iter.                  ...        0 min,  0.019 sec
     gradient                   ...        0 min,  0.006 sec
 * total energy  :   -73.4875812 Eh     change       -0.2090703E-03 Eh
   gradient norm :     0.0051521 Eh/α   predicted     0.0000000E+00 (-100.00%)
   displ. norm   :     0.0624420 α      lambda       -0.1105909E-03
   maximum displ.:     0.0412254 α      in ANC's #5, #12, #11, ...

........................................................................
.............................. CYCLE   44 ..............................
........................................................................

 iter      E             dE          RMSdq      gap      omega  full diag
   1    -74.4984786 -0.744985E+02  0.254E-02    2.06       0.0  T
   2    -74.4984789 -0.247559E-06  0.143E-02    2.06       1.0  T
   3    -74.4984786  0.248011E-06  0.338E-03    2.06       4.3  T
   4    -74.4984789 -0.319217E-06  0.139E-03    2.07      10.5  T
   5    -74.4984789 -0.127868E-07  0.622E-04    2.06      23.4  T
   6    -74.4984790 -0.118330E-07  0.187E-04    2.06      78.1  T
     SCC iter.                  ...        0 min,  0.017 sec
     gradient                   ...        0 min,  0.006 sec
 * total energy  :   -73.4876646 Eh     change       -0.8340909E-04 Eh
   gradient norm :     0.0018456 Eh/α   predicted    -0.5563651E-04 ( -33.30%)
   displ. norm   :     0.1931712 α      lambda       -0.1058616E-03
   maximum displ.:     0.1366673 α      in ANC's #5, #12, #4, ...

........................................................................
.............................. CYCLE   45 ..............................
........................................................................

 iter      E             dE          RMSdq      gap      omega  full diag
   1    -74.4995094 -0.744995E+02  0.678E-02    2.06       0.0  T
   2    -74.4995108 -0.143935E-05  0.375E-02    2.07       1.0  T
   3    -74.4995100  0.750041E-06  0.760E-03    2.07       1.9  T
   4    -74.4995109 -0.884726E-06  0.429E-03    2.07       3.4  T
   5    -74.4995113 -0.322152E-06  0.129E-03    2.07      11.3  T
   6    -74.4995113 -0.531152E-07  0.455E-04    2.07      32.0  T
   7    -74.4995113 -0.250628E-08  0.257E-04    2.07      56.8  T
     SCC iter.                  ...        0 min,  0.020 sec
     gradient                   ...        0 min,  0.005 sec
 * total energy  :   -73.4877583 Eh     change       -0.9373347E-04 Eh
   gradient norm :     0.0038442 Eh/α   predicted    -0.5381324E-04 ( -42.59%)
   displ. norm   :     0.0937277 α      lambda       -0.5516887E-04
   maximum displ.:     0.0678302 α      in ANC's #5, #6, #4, ...

........................................................................
.............................. CYCLE   46 ..............................
........................................................................

 iter      E             dE          RMSdq      gap      omega  full diag
   1    -74.4992134 -0.744992E+02  0.297E-02    2.07       0.0  T
   2    -74.4992137 -0.271798E-06  0.163E-02    2.07       1.0  T
   3    -74.4992135  0.196946E-06  0.364E-03    2.07       4.0  T
   4    -74.4992137 -0.216613E-06  0.208E-03    2.07       7.0  T
   5    -74.4992138 -0.803016E-07  0.535E-04    2.07      27.2  T
   6    -74.4992138 -0.987822E-08  0.177E-04    2.07      82.2  T
     SCC iter.                  ...        0 min,  0.022 sec
     gradient                   ...        0 min,  0.007 sec
 * total energy  :   -73.4878087 Eh     change       -0.5039248E-04 Eh
   gradient norm :     0.0032965 Eh/α   predicted    -0.2782942E-04 ( -44.77%)
   displ. norm   :     0.1853939 α      lambda       -0.1074173E-03
   maximum displ.:     0.1271480 α      in ANC's #5, #6, #4, ...

........................................................................
.............................. CYCLE   47 ..............................
........................................................................

 iter      E             dE          RMSdq      gap      omega  full diag
   1    -74.4984057 -0.744984E+02  0.566E-02    2.07       0.0  T
   2    -74.4984067 -0.982698E-06  0.312E-02    2.07       1.0  T
   3    -74.4984060  0.689841E-06  0.696E-03    2.07       2.1  T
   4    -74.4984067 -0.734562E-06  0.407E-03    2.07       3.6  T
   5    -74.4984071 -0.322402E-06  0.103E-03    2.07      14.1  T
   6    -74.4984071 -0.361268E-07  0.345E-04    2.07      42.2  T
   7    -74.4984071 -0.106358E-08  0.203E-04    2.07      71.9  T
     SCC iter.                  ...        0 min,  0.024 sec
     gradient                   ...        0 min,  0.008 sec
 * total energy  :   -73.4878934 Eh     change       -0.8466524E-04 Eh
   gradient norm :     0.0019880 Eh/α   predicted    -0.5555640E-04 ( -34.38%)
   displ. norm   :     0.2930542 α      lambda       -0.7518815E-04
   maximum displ.:     0.2025575 α      in ANC's #5, #6, #4, ...

........................................................................
.............................. CYCLE   48 ..............................
........................................................................

 iter      E             dE          RMSdq      gap      omega  full diag
   1    -74.4969097 -0.744969E+02  0.863E-02    2.07       0.0  T
   2    -74.4969118 -0.212106E-05  0.480E-02    2.07       1.0  T
   3    -74.4969102  0.164166E-05  0.106E-02    2.07       1.4  T
   4    -74.4969119 -0.171423E-05  0.613E-03    2.07       2.4  T
   5    -74.4969127 -0.760589E-06  0.146E-03    2.07      10.0  T
   6    -74.4969127 -0.694447E-07  0.549E-04    2.07      26.6  T
   7    -74.4969127 -0.310021E-08  0.317E-04    2.07      46.0  T
     SCC iter.                  ...        0 min,  0.022 sec
     gradient                   ...        0 min,  0.005 sec
 * total energy  :   -73.4879567 Eh     change       -0.6334811E-04 Eh
   gradient norm :     0.0044317 Eh/α   predicted    -0.3903137E-04 ( -38.39%)
   displ. norm   :     0.0678638 α      lambda       -0.4227362E-04
   maximum displ.:     0.0507593 α      in ANC's #5, #4, #1, ...

........................................................................
.............................. CYCLE   49 ..............................
........................................................................

 iter      E             dE          RMSdq      gap      omega  full diag
   1    -74.4977137 -0.744977E+02  0.174E-02    2.07       0.0  T
   2    -74.4977138 -0.910497E-07  0.997E-03    2.07       1.5  T
   3    -74.4977137  0.879389E-07  0.219E-03    2.07       6.7  T
   4    -74.4977138 -0.102434E-06  0.105E-03    2.07      13.9  T
   5    -74.4977138 -0.167542E-07  0.384E-04    2.07      38.0  T
   6    -74.4977138 -0.414860E-08  0.126E-04    2.07     116.2  T
     SCC iter.                  ...        0 min,  0.016 sec
     gradient                   ...        0 min,  0.005 sec
 * total energy  :   -73.4879928 Eh     change       -0.3608324E-04 Eh
   gradient norm :     0.0032191 Eh/α   predicted    -0.2123659E-04 ( -41.15%)
   displ. norm   :     0.2782608 α      lambda       -0.1145374E-03
   maximum displ.:     0.2035288 α      in ANC's #5, #4, #6, ...

........................................................................
.............................. CYCLE   50 ..............................
........................................................................

 iter      E             dE          RMSdq      gap      omega  full diag
   1    -74.4984938 -0.744985E+02  0.744E-02    2.07       0.0  T
   2    -74.4984949 -0.114316E-05  0.425E-02    2.07       1.0  T
   3    -74.4984942  0.709002E-06  0.762E-03    2.07       1.9  T
   4    -74.4984949 -0.706189E-06  0.447E-03    2.07       3.3  T
   5    -74.4984953 -0.424137E-06  0.120E-03    2.07      12.2  T
   6    -74.4984954 -0.485788E-07  0.447E-04    2.07      32.6  T
   7    -74.4984954 -0.194493E-08  0.230E-04    2.07      63.5  T
     SCC iter.                  ...        0 min,  0.019 sec
     gradient                   ...        0 min,  0.006 sec
 * total energy  :   -73.4880751 Eh     change       -0.8228191E-04 Eh
   gradient norm :     0.0021798 Eh/α   predicted    -0.6176090E-04 ( -24.94%)
   displ. norm   :     0.2412850 α      lambda       -0.6006884E-04
   maximum displ.:     0.1726893 α      in ANC's #5, #4, #6, ...

........................................................................
.............................. CYCLE   51 ..............................
........................................................................

 iter      E             dE          RMSdq      gap      omega  full diag
   1    -74.4983714 -0.744984E+02  0.670E-02    2.07       0.0  T
   2    -74.4983723 -0.894754E-06  0.380E-02    2.07       1.0  T
   3    -74.4983721  0.154258E-06  0.623E-03    2.07       2.3  T
   4    -74.4983722 -0.531715E-07  0.391E-03    2.07       3.7  T
   5    -74.4983726 -0.409755E-06  0.860E-04    2.07      17.0  T
   6    -74.4983726 -0.237432E-07  0.386E-04    2.07      37.8  T
     SCC iter.                  ...        0 min,  0.016 sec
     gradient                   ...        0 min,  0.006 sec
 * total energy  :   -73.4881152 Eh     change       -0.4004942E-04 Eh
   gradient norm :     0.0029892 Eh/α   predicted    -0.3178400E-04 ( -20.64%)
   displ. norm   :     0.1357080 α      lambda       -0.4362334E-04
   maximum displ.:     0.0853624 α      in ANC's #5, #4, #1, ...

........................................................................
.............................. CYCLE   52 ..............................
........................................................................

 iter      E             dE          RMSdq      gap      omega  full diag
   1    -74.4996403 -0.744996E+02  0.397E-02    2.07       0.0  T
   2    -74.4996408 -0.414432E-06  0.225E-02    2.07       1.0  T
   3    -74.4996408  0.845198E-08  0.341E-03    2.07       4.3  T
   4    -74.4996408 -0.759141E-07  0.165E-03    2.07       8.8  T
   5    -74.4996409 -0.320631E-07  0.551E-04    2.07      26.5  T
   6    -74.4996409 -0.102031E-07  0.215E-04    2.07      67.8  T
     SCC iter.                  ...        0 min,  0.017 sec
     gradient                   ...        0 min,  0.007 sec
 * total energy  :   -73.4881403 Eh     change       -0.2512432E-04 Eh
   gradient norm :     0.0017725 Eh/α   predicted    -0.2221356E-04 ( -11.59%)
   displ. norm   :     0.3264988 α      lambda       -0.3164967E-04
   maximum displ.:     0.2148456 α      in ANC's #5, #4, #1, ...

........................................................................
.............................. CYCLE   53 ..............................
........................................................................

 iter      E             dE          RMSdq      gap      omega  full diag
   1    -74.4975424 -0.744975E+02  0.101E-01    2.07       0.0  T
   2    -74.4975447 -0.228532E-05  0.564E-02    2.07       1.0  T
   3    -74.4975449 -0.248477E-06  0.915E-03    2.07       1.6  T
   4    -74.4975444  0.581782E-06  0.561E-03    2.07       2.6  T
   5    -74.4975454 -0.104004E-05  0.103E-03    2.07      14.1  T
   6    -74.4975454 -0.274995E-07  0.509E-04    2.07      28.7  T
   7    -74.4975454 -0.221267E-08  0.255E-04    2.07      57.1  T
     SCC iter.                  ...        0 min,  0.019 sec
     gradient                   ...        0 min,  0.006 sec
 * total energy  :   -73.4881431 Eh     change       -0.2780689E-05 Eh
   gradient norm :     0.0046556 Eh/α   predicted    -0.1658639E-04 ( 496.48%)
   displ. norm   :     0.0801716 α      lambda       -0.4752270E-04
   maximum displ.:     0.0608139 α      in ANC's #5, #6, #4, ...

........................................................................
.............................. CYCLE   54 ..............................
........................................................................

 iter      E             dE          RMSdq      gap      omega  full diag
   1    -74.4989321 -0.744989E+02  0.228E-02    2.07       0.0  T
   2    -74.4989323 -0.125656E-06  0.133E-02    2.07       1.1  T
   3    -74.4989322  0.702578E-07  0.205E-03    2.07       7.1  T
   4    -74.4989323 -0.828813E-07  0.103E-03    2.07      14.1  T
   5    -74.4989323 -0.185440E-07  0.462E-04    2.07      31.6  T
   6    -74.4989323 -0.650252E-08  0.137E-04    2.07     106.7  T
     SCC iter.                  ...        0 min,  0.017 sec
     gradient                   ...        0 min,  0.005 sec
 * total energy  :   -73.4881726 Eh     change       -0.2952340E-04 Eh
   gradient norm :     0.0014313 Eh/α   predicted    -0.2391815E-04 ( -18.99%)
   displ. norm   :     0.0756272 α      lambda       -0.1687459E-04
   maximum displ.:     0.0376540 α      in ANC's #7, #4, #3, ...

........................................................................
.............................. CYCLE   55 ..............................
........................................................................

 iter      E             dE          RMSdq      gap      omega  full diag
   1    -74.4996517 -0.744997E+02  0.304E-02    2.07       0.0  T
   2    -74.4996519 -0.201670E-06  0.172E-02    2.07       1.0  T
   3    -74.4996518  0.780114E-07  0.265E-03    2.07       5.5  T
   4    -74.4996519 -0.939502E-07  0.136E-03    2.07      10.7  T
   5    -74.4996519 -0.387532E-07  0.454E-04    2.07      32.1  T
   6    -74.4996519 -0.780261E-08  0.171E-04    2.07      85.1  T
     SCC iter.                  ...        0 min,  0.016 sec
     gradient                   ...        0 min,  0.006 sec
 * total energy  :   -73.4881865 Eh     change       -0.1387955E-04 Eh
   gradient norm :     0.0013663 Eh/α   predicted    -0.8459092E-05 ( -39.05%)
   displ. norm   :     0.1044365 α      lambda       -0.1199065E-04
   maximum displ.:     0.0618154 α      in ANC's #4, #7, #1, ...

........................................................................
.............................. CYCLE   56 ..............................
........................................................................

 iter      E             dE          RMSdq      gap      omega  full diag
   1    -74.4995107 -0.744995E+02  0.408E-02    2.07       0.0  T
   2    -74.4995110 -0.353423E-06  0.226E-02    2.07       1.0  T
   3    -74.4995110  0.394115E-08  0.350E-03    2.07       4.2  T
   4    -74.4995110  0.726757E-07  0.211E-03    2.07       6.9  T
   5    -74.4995112 -0.185699E-06  0.416E-04    2.07      35.0  T
   6    -74.4995112 -0.406793E-08  0.209E-04    2.07      69.8  T
     SCC iter.                  ...        0 min,  0.017 sec
     gradient                   ...        0 min,  0.006 sec
 * total energy  :   -73.4882005 Eh     change       -0.1401676E-04 Eh
   gradient norm :     0.0015235 Eh/α   predicted    -0.6028794E-05 ( -56.99%)
   displ. norm   :     0.2781109 α      lambda       -0.2590566E-04
   maximum displ.:     0.1662489 α      in ANC's #4, #7, #1, ...

........................................................................
.............................. CYCLE   57 ..............................
[...]
H33-C9-C8-C24=355.54          C11-C10-C9-C8=178.94          C11-C10-C9-H33=358.78         H34-C10-C9-C8=359.38          
H34-C10-C9-H33=179.23         
           -------------------------------------------------
          |                Final Singlepoint                |
           -------------------------------------------------

          ...................................................
          :                      SETUP                      :
          :.................................................:
          :  # basis functions                 128          :
          :  # atomic orbitals                 127          :
          :  # shells                           73          :
          :  # electrons                       132          :
          :  max. iterations                   250          :
          :  Hamiltonian                  GFN2-xTB          :
          :  restarted?                      false          :
          :  GBSA solvation                  false          :
          :  PC potential                    false          :
          :  electronic temp.          300.0000000     K    :
          :  accuracy                    1.0000000          :
          :  -> integral cutoff          0.2500000E+02      :
          :  -> integral neglect         0.1000000E-07      :
          :  -> SCF convergence          0.1000000E-05 Eh   :
          :  -> wf. convergence          0.1000000E-03 e    :
          :  Broyden damping             0.4000000          :
          :  net charge                          0          :
          :  unpaired electrons                  0          :
          ...................................................

 iter      E             dE          RMSdq      gap      omega  full diag
   1    -74.4992645 -0.744993E+02  0.599E-05    2.07       0.0  T
   2    -74.4992645 -0.234763E-10  0.406E-05    2.07     359.3  T
   3    -74.4992645 -0.179341E-10  0.267E-05    2.07     545.9  T

   *** convergence criteria satisfied after 3 iterations ***

         #    Occupation            Energy/Eh            Energy/eV
      -------------------------------------------------------------
         1        2.0000           -0.7324737             -19.9316
       ...           ...                  ...                  ...
        60        2.0000           -0.4223715             -11.4933
        61        2.0000           -0.4156580             -11.3106
        62        2.0000           -0.4108010             -11.1785
        63        2.0000           -0.4089601             -11.1284
        64        2.0000           -0.4063437             -11.0572
        65        2.0000           -0.3791543             -10.3173
        66        2.0000           -0.3748532             -10.2003 (HOMO)
        67                         -0.2986351              -8.1263 (LUMO)
        68                         -0.2413258              -6.5668
        69                         -0.2371047              -6.4519
        70                         -0.2274440              -6.1891
        71                         -0.2223992              -6.0518
       ...                                ...                  ...
       127                          0.6979762              18.9929
      -------------------------------------------------------------
                  HL-Gap            0.0762181 Eh            2.0740 eV
             Fermi-level           -0.3367442 Eh           -9.1633 eV

 SCC (total)                   0 d,  0 h,  0 min,  0.029 sec
 SCC setup                      ...        0 min,  0.001 sec (  3.500%)
 Dispersion                     ...        0 min,  0.000 sec (  1.258%)
 classical contributions        ...        0 min,  0.000 sec (  0.147%)
 integral evaluation            ...        0 min,  0.005 sec ( 16.938%)
 iterations                     ...        0 min,  0.014 sec ( 46.803%)
 molecular gradient             ...        0 min,  0.008 sec ( 27.400%)
 printout                       ...        0 min,  0.001 sec (  3.856%)

         :::::::::::::::::::::::::::::::::::::::::::::::::::::
         ::                     SUMMARY                     ::
         :::::::::::::::::::::::::::::::::::::::::::::::::::::
         :: total energy             -73.488423333983 Eh    ::
         :: gradient norm              0.000608294682 Eh/a0 ::
         :: HOMO-LUMO gap              2.073999507257 eV    ::
         ::.................................................::
         :: SCC energy               -74.499024261095 Eh    ::
         :: -> isotropic ES            0.089920603250 Eh    ::
         :: -> anisotropic ES          0.002800237032 Eh    ::
         :: -> anisotropic XC          0.026371170962 Eh    ::
         :: -> dispersion             -0.049775333147 Eh    ::
         :: repulsion energy           1.010600927113 Eh    ::
         :: add. restraining           0.000000000000 Eh    ::
         :: total charge              -0.000000000000 e     ::
         :::::::::::::::::::::::::::::::::::::::::::::::::::::

           -------------------------------------------------
          |                Property Printout                |
           -------------------------------------------------

    * Orbital Energies and Occupations

         #    Occupation            Energy/Eh            Energy/eV
      -------------------------------------------------------------
         1        2.0000           -0.7324737             -19.9316
       ...           ...                  ...                  ...
        54        2.0000           -0.4459778             -12.1357
        55        2.0000           -0.4362241             -11.8703
        56        2.0000           -0.4346543             -11.8275
        57        2.0000           -0.4338471             -11.8056
        58        2.0000           -0.4299150             -11.6986
        59        2.0000           -0.4255208             -11.5790
        60        2.0000           -0.4223715             -11.4933
        61        2.0000           -0.4156580             -11.3106
        62        2.0000           -0.4108010             -11.1785
        63        2.0000           -0.4089601             -11.1284
        64        2.0000           -0.4063437             -11.0572
        65        2.0000           -0.3791543             -10.3173
        66        2.0000           -0.3748532             -10.2003 (HOMO)
        67                         -0.2986351              -8.1263 (LUMO)
        68                         -0.2413258              -6.5668
        69                         -0.2371047              -6.4519
        70                         -0.2274440              -6.1891
        71                         -0.2223992              -6.0518
        72                         -0.2117506              -5.7620
        73                         -0.1693345              -4.6078
        74                         -0.1591839              -4.3316
        75                         -0.1004986              -2.7347
        76                         -0.0980870              -2.6691
        77                         -0.0289089              -0.7866
       ...                                ...                  ...
       127                          0.6979762              18.9929
      -------------------------------------------------------------
                  HL-Gap            0.0762181 Eh            2.0740 eV
             Fermi-level           -0.3367442 Eh           -9.1633 eV

     #   Z          covCN         q      C6AA      α(0)
     1   8 O        1.656    -0.430    21.449     6.252
     2   6 C        3.720     0.083    19.310     6.276
     3   6 C        3.792    -0.020    20.941     6.517
     4  16 S        2.082    -0.148   147.274    20.425
     5   6 C        2.966     0.055    26.762     8.486
     6   6 C        2.939    -0.043    29.071     8.843
     7   6 C        2.924    -0.028    28.710     8.787
     8   6 C        2.969     0.011    27.766     8.643
     9   6 C        2.908    -0.010    28.276     8.719
    10   6 C        2.893    -0.067    29.676     8.931
    11   6 C        2.834     0.211    23.542     7.951
    12   6 C        3.706     0.250    16.873     5.872
    13   8 O        1.701    -0.317    19.298     5.931
    14   6 C        3.647     0.046    20.133     6.448
    15   8 O        1.700    -0.337    19.643     5.984
    16   6 C        3.647     0.046    20.134     6.448
    17   6 C        2.987    -0.010    28.261     8.720
    18   6 C        2.920    -0.031    28.786     8.798
    19   6 C        2.921    -0.029    28.724     8.789
    20   6 C        2.920    -0.030    28.740     8.791
    21   6 C        2.920    -0.028    28.704     8.786
    22   6 C        2.923    -0.031    28.785     8.798
    23   8 O        0.857    -0.350    20.703     6.100
    24   6 C        2.927    -0.027    28.688     8.784
    25   6 C        2.984    -0.037    28.909     8.820
    26   1 H        0.805     0.291     0.748     1.358
    27   1 H        0.923     0.031     2.578     2.511
    28   1 H        0.924     0.062     2.175     2.307
    29   1 H        0.924     0.048     2.348     2.396
    30   1 H        0.925     0.059     2.208     2.324
    31   1 H        0.926     0.038     2.474     2.460
    32   1 H        0.926     0.046     2.376     2.410
    33   1 H        0.925     0.071     2.077     2.254
    34   1 H        0.926     0.054     2.266     2.354
    35   1 H        0.925     0.060     2.203     2.321
    36   1 H        0.924     0.039     2.460     2.453
    37   1 H        0.924     0.032     2.563     2.503
    38   1 H        0.924     0.027     2.627     2.535
    39   1 H        0.924     0.048     2.349     2.397
    40   1 H        0.925     0.056     2.243     2.342
    41   1 H        0.926     0.049     2.332     2.388
    42   1 H        0.926     0.036     2.500     2.473
    43   1 H        0.926     0.036     2.503     2.474
    44   1 H        0.926     0.038     2.469     2.457
    45   1 H        0.926     0.054     2.275     2.359
    46   1 H        0.926     0.049     2.332     2.388
    47   1 H        0.926     0.050     2.316     2.380

 Mol. C6AA /au·bohr⁶  :      27104.014817
 Mol. C8AA /au·bohr⁸  :     682733.228868
 Mol. α(0) /au        :        258.742541


Wiberg/Mayer (AO) data.
largest (>0.10) Wiberg bond orders for each atom

 ---------------------------------------------------------------------------
     #   Z sym  total        # sym  WBO       # sym  WBO       # sym  WBO
 ---------------------------------------------------------------------------
     1   8 O    1.973 --     2 C    1.006    26 H    0.901
     2   6 C    3.956 --     1 O    1.006     3 C    0.995    28 H    0.971
                            27 H    0.970
     3   6 C    3.978 --     2 C    0.995     4 S    0.985    29 H    0.973
                            30 H    0.973
     4  16 S    2.266 --     5 C    1.068     3 C    0.985
     5   6 C    3.953 --     6 C    1.373    25 C    1.355     4 S    1.068
     6   6 C    3.989 --     7 C    1.473     5 C    1.373    31 H    0.965
     7   6 C    3.990 --     6 C    1.473     8 C    1.352    32 H    0.964
     8   6 C    3.989 --     7 C    1.352    24 C    1.336     9 C    1.136
     9   6 C    3.974 --    10 C    1.731     8 C    1.136    33 H    0.957
    10   6 C    3.972 --     9 C    1.731    11 C    1.080    34 H    0.960
    11   6 C    3.926 --    23 O    1.805    10 C    1.080    12 C    0.900
    12   6 C    3.923 --    13 O    0.975    15 O    0.959    17 C    0.942
                            11 C    0.900
    13   8 O    2.094 --    14 C    0.982    12 C    0.975
    14   6 C    3.947 --    13 O    0.982    35 H    0.980    36 H    0.980
                            37 H    0.978
    15   8 O    2.078 --    16 C    0.983    12 C    0.959
    16   6 C    3.946 --    15 O    0.983    40 H    0.981    39 H    0.978
                            38 H    0.976
    17   6 C    3.982 --    18 C    1.413    22 C    1.403    12 C    0.942
                            20 C    0.107
    18   6 C    3.990 --    19 C    1.440    17 C    1.413    41 H    0.966
                            21 C    0.110
    19   6 C    3.991 --    20 C    1.441    18 C    1.440    42 H    0.970
                            22 C    0.111
    20   6 C    3.987 --    19 C    1.441    21 C    1.434    43 H    0.971
                            17 C    0.107
    21   6 C    3.991 --    22 C    1.450    20 C    1.434    44 H    0.970
                            18 C    0.110
    22   6 C    3.989 --    21 C    1.450    17 C    1.403    45 H    0.967
                            19 C    0.111
    23   8 O    2.066 --    11 C    1.805
    24   6 C    3.988 --    25 C    1.494     8 C    1.336    46 H    0.966
    25   6 C    3.988 --    24 C    1.494     5 C    1.355    47 H    0.966
    26   1 H    0.915 --     1 O    0.901
    27   1 H    0.999 --     2 C    0.970
    28   1 H    0.996 --     2 C    0.971
    29   1 H    0.997 --     3 C    0.973
    30   1 H    0.996 --     3 C    0.973
    31   1 H    0.998 --     6 C    0.965
    32   1 H    0.998 --     7 C    0.964
    33   1 H    0.994 --     9 C    0.957
    34   1 H    0.997 --    10 C    0.960
    35   1 H    0.996 --    14 C    0.980
    36   1 H    0.998 --    14 C    0.980
    37   1 H    0.999 --    14 C    0.978
    38   1 H    0.999 --    16 C    0.976
    39   1 H    0.998 --    16 C    0.978
    40   1 H    0.996 --    16 C    0.981
    41   1 H    0.998 --    18 C    0.966
    42   1 H    0.998 --    19 C    0.970
    43   1 H    0.998 --    20 C    0.971
    44   1 H    0.998 --    21 C    0.970
    45   1 H    0.997 --    22 C    0.967
    46   1 H    0.997 --    24 C    0.966
    47   1 H    0.997 --    25 C    0.966
 ---------------------------------------------------------------------------

Topologies differ in total number of bonds
Writing topology from bond orders to xtbtopo.mol

molecular dipole:
                 x           y           z       tot (Debye)
 q only:        0.919      -0.465      -0.836
   full:        0.743      -0.912      -1.022       3.963
molecular quadrupole (traceless):
                xx          xy          yy          xz          yz          zz
 q only:        2.294      -6.632       7.907      16.195       0.482     -10.202
  q+dip:       -2.642     -12.680      10.743      17.387       1.244      -8.101
   full:       -2.305     -12.528      12.495      18.268      -0.151     -10.191

           -------------------------------------------------
          |                Geometry Summary                 |
           -------------------------------------------------

      molecular mass/u    :      358.4518216
   center of mass at/Å    :        0.2378448       0.1803691       0.1115953
  moments of inertia/u·Å² :        0.1298497E+04   0.7350264E+04   0.7533684E+04
rotational constants/cm⁻¹ :        0.1298242E-01   0.2293473E-02   0.2237634E-02

 * 42 selected distances

     #   Z          #   Z                                           value/Å
     1   8 O        2   6 C                                       1.4031367
     2   6 C        3   6 C                                       1.5284079 (max)
     5   6 C        6   6 C                                       1.3910786
     6   6 C        7   6 C                                       1.3791945
     7   6 C        8   6 C                                       1.3979498
     9   6 C       10   6 C                                       1.3440636
    12   6 C       13   8 O                                       1.4025325
    13   8 O       14   6 C                                       1.4129726
    12   6 C       15   8 O                                       1.4121364
    15   8 O       16   6 C                                       1.4138377
    17   6 C       18   6 C                                       1.3867972
    18   6 C       19   6 C                                       1.3843688
    19   6 C       20   6 C                                       1.3842851
    20   6 C       21   6 C                                       1.3856137
    17   6 C       22   6 C                                       1.3904411
    21   6 C       22   6 C                                       1.3822227
    11   6 C       23   8 O                                       1.2095938
     8   6 C       24   6 C                                       1.4019173
     5   6 C       25   6 C                                       1.3960085
    24   6 C       25   6 C                                       1.3744022
     1   8 O       26   1 H                                       0.9641187 (min)
     2   6 C       27   1 H                                       1.0988582
     2   6 C       28   1 H                                       1.0923098
     3   6 C       29   1 H                                       1.0922159
     3   6 C       30   1 H                                       1.0903186
     6   6 C       31   1 H                                       1.0783640
     7   6 C       32   1 H                                       1.0788290
     9   6 C       33   1 H                                       1.0842249
    10   6 C       34   1 H                                       1.0785608
    14   6 C       35   1 H                                       1.0879503
    14   6 C       36   1 H                                       1.0942415
    14   6 C       37   1 H                                       1.0949010
    16   6 C       38   1 H                                       1.0957772
    16   6 C       39   1 H                                       1.0927621
    16   6 C       40   1 H                                       1.0884073
    18   6 C       41   1 H                                       1.0783916
    19   6 C       42   1 H                                       1.0802183
    20   6 C       43   1 H                                       1.0801117
    21   6 C       44   1 H                                       1.0798915
    22   6 C       45   1 H                                       1.0800404
    24   6 C       46   1 H                                       1.0799638
    25   6 C       47   1 H                                       1.0793070

 * 4 distinct bonds (by element types)

   Z      Z             #   av. dist./Å        max./Å        min./Å
   1 H    6 C          21     1.0859831     1.0988582     1.0783640
   6 C    6 C          14     1.3947679     1.5284079     1.3440636
   1 H    8 O           1     0.9641187     0.9641187     0.9641187
   6 C    8 O           6     1.3757016     1.4138377     1.2095938


optimized geometry written to: xtbopt.xyz


           -------------------------------------------------
          | TOTAL ENERGY              -73.488423333983 Eh   |
          | GRADIENT NORM               0.000608294682 Eh/α |
          | HOMO-LUMO GAP               2.073999507257 eV   |
           -------------------------------------------------
########################################################################
[WARNING] Runtime exception occurred
-2- restart_readRestart: Dimension missmatch in restart file.
-1- restart_readRestart: Number of electron missmatch in restart file.
########################################################################

------------------------------------------------------------------------
 * finished run on 2025/12/01 at 14:18:44.260     
------------------------------------------------------------------------
 total:
 * wall-time:     0 d,  0 h,  0 min,  2.908 sec
 *  cpu-time:     0 d,  0 h,  1 min,  5.313 sec
 * ratio c/w:    22.460 speedup
 SCF:
 * wall-time:     0 d,  0 h,  0 min,  0.066 sec
 *  cpu-time:     0 d,  0 h,  0 min,  1.503 sec
 * ratio c/w:    22.640 speedup
 ANC optimizer:
 * wall-time:     0 d,  0 h,  0 min,  2.806 sec
 *  cpu-time:     0 d,  0 h,  1 min,  3.497 sec
 * ratio c/w:    22.626 speedup

normal termination of xtb
