      -----------------------------------------------------------      
     |                   =====================                   |     
     |                           x T B                           |     
     |                   =====================                   |     
     |                         S. Grimme                         |     
     |          Mulliken Center for Theoretical Chemistry        |     
     |                    University of Bonn                     |     
      -----------------------------------------------------------      

   * xtb version 6.7.1 (edcfbbe) compiled by 'albert@albert-system' on 2024-07-22

   xtb is free software: you can redistribute it and/or modify it under
   the terms of the GNU Lesser General Public License as published by
   the Free Software Foundation, either version 3 of the License, or
   (at your option) any later version.
   
   xtb is distributed in the hope that it will be useful,
   but WITHOUT ANY WARRANTY; without even the implied warranty of
   MERCHANTABILITY or FITNESS FOR A PARTICULAR PURPOSE.  See the
   GNU Lesser General Public License for more details.
   
   Cite this work as:
   * C. Bannwarth, E. Caldeweyher, S. Ehlert, A. Hansen, P. Pracht,
     J. Seibert, S. Spicher, S. Grimme, WIREs Comput. Mol. Sci., 2020, 11,
     e01493. DOI: 10.1002/wcms.1493
   
   for GFN2-xTB:
   * C. Bannwarth, S. Ehlert and S. Grimme., J. Chem. Theory Comput., 2019,
     15, 1652-1671. DOI: 10.1021/acs.jctc.8b01176
   for GFN1-xTB:
   * S. Grimme, C. Bannwarth, P. Shushkov, J. Chem. Theory Comput., 2017,
     13, 1989-2009. DOI: 10.1021/acs.jctc.7b00118
   for GFN0-xTB:
   * P. Pracht, E. Caldeweyher, S. Ehlert, S. Grimme, ChemRxiv, 2019, preprint.
     DOI: 10.26434/chemrxiv.8326202.v1
   for GFN-FF:
   * S. Spicher and S. Grimme, Angew. Chem. Int. Ed., 2020, 59, 15665-15673.
     DOI: 10.1002/anie.202004239
   
   for ALPB and GBSA implicit solvation:
   * S. Ehlert, M. Stahn, S. Spicher, S. Grimme, J. Chem. Theory Comput.,
     2021, 17, 4250-4261. DOI: 10.1021/acs.jctc.1c00471
   
   for ddCOSMO and CPCM-X implicit solvation:
   * M. Stahn, S. Ehlert, S. Grimme, J. Phys. Chem. A,
     2023, XX, XXXX-XXXX. DOI: 10.1021/acs.jpca.3c04382
   
   for DFT-D4:
   * E. Caldeweyher, C. Bannwarth and S. Grimme, J. Chem. Phys., 2017,
     147, 034112. DOI: 10.1063/1.4993215
   * E. Caldeweyher, S. Ehlert, A. Hansen, H. Neugebauer, S. Spicher,
     C. Bannwarth and S. Grimme, J. Chem. Phys., 2019, 150, 154122.
     DOI: 10.1063/1.5090222
   * E. Caldeweyher, J.-M. Mewes, S. Ehlert and S. Grimme, Phys. Chem. Chem. Phys.
     2020, 22, 8499-8512. DOI: 10.1039/D0CP00502A
   
   for sTDA-xTB:
   * S. Grimme and C. Bannwarth, J. Chem. Phys., 2016, 145, 054103.
     DOI: 10.1063/1.4959605
   
   in the mass-spec context:
   * V. Asgeirsson, C. Bauer and S. Grimme, Chem. Sci., 2017, 8, 4879.
     DOI: 10.1039/c7sc00601b
   * J. Koopman and S. Grimme, ACS Omega 2019, 4, 12, 15120-15133.
     DOI: 10.1021/acsomega.9b02011
   
   for metadynamics refer to:
   * S. Grimme, J. Chem. Theory Comput., 2019, 155, 2847-2862
     DOI: 10.1021/acs.jctc.9b00143
   
   for SPH calculations refer to:
   * S. Spicher and S. Grimme, J. Chem. Theory Comput., 2021, 17, 1701-1714
     DOI: 10.1021/acs.jctc.0c01306
   
   for ONIOM refer to:
   * C. Plett, A. Katbashev, S. Ehlert, S. Grimme, M. Bursch,
     Phys. Chem. Chem. Phys., 2023, 25, 17860-17868. DOI: 10.1039/D3CP02178E
   
   for DIPRO refer to:
   * J. Kohn, N. Gildemeister, S. Grimme, D. Fazzi, A. Hansen,
     J. Chem. Phys., 2023, just accepted.
   
   for PTB refer to:
   * S. Grimme, M. Mueller, A. Hansen, J. Chem. Phys., 2023, 158, 124111.
     DOI: 10.1063/5.0137838
   
   with help from (in alphabetical order)
   P. Atkinson, C. Bannwarth, F. Bohle, G. Brandenburg, E. Caldeweyher
   M. Checinski, S. Dohm, S. Ehlert, S. Ehrlich, I. Gerasimov, C. Hölzer
   A. Katbashev, J. Kohn, J. Koopman, C. Lavigne, S. Lehtola, F. März, M. Müller,
   F. Musil, H. Neugebauer, J. Pisarek, C. Plett, P. Pracht, F. Pultar,
   J. Seibert, P. Shushkov, S. Spicher, M. Stahn, M. Steiner, T. Strunk,
   J. Stückrath, T. Rose, and J. Unsleber
   
 * started run on 2025/12/01 at 14:18:57.468     
   ID    Z sym.   atoms
    1    6 C      1-4, 7-12
    2    8 O      5, 6
    3    1 H      13-22

           -------------------------------------------------
          |                Calculation Setup                |
           -------------------------------------------------

          program call               : xtb pipeline_data/3_conformer_xyz/acrylates/rdkit/QIWKUEJZZCOPFV-UHFFFAOYSA-N_conf110.xyz --opt --gfn 2-xTB --iterations 250
          coordinate file            : pipeline_data/3_conformer_xyz/acrylates/rdkit/QIWKUEJZZCOPFV-UHFFFAOYSA-N_conf110.xyz
          omp threads                :                    24

########################################################################
[WARNING] Please study the warnings concerning your input carefully
-1- readin_getIntValue: could not parse '2-xTB'
########################################################################

           -------------------------------------------------
          |                 G F N 2 - x T B                 |
           -------------------------------------------------

        Reference                      10.1021/acs.jctc.8b01176
      * Hamiltonian:
        H0-scaling (s, p, d)           1.850000    2.230000    2.230000
        zeta-weighting                 0.500000
      * Dispersion:
        s8                             2.700000
        a1                             0.520000
        a2                             5.000000
        s9                             5.000000
      * Repulsion:
        kExp                           1.500000    1.000000
        rExp                           1.000000
      * Coulomb:
        alpha                          2.000000
        third order                    shell-resolved
        anisotropic                    true
        a3                             3.000000
        a5                             4.000000
        cn-shift                       1.200000
        cn-exp                         4.000000
        max-rad                        5.000000

q/qsh data taken from xtbrestart
CAMM data taken from xtbrestart

          ...................................................
          :                      SETUP                      :
          :.................................................:
          :  # basis functions                  58          :
          :  # atomic orbitals                  58          :
          :  # shells                           34          :
          :  # electrons                        62          :
          :  max. iterations                   250          :
          :  Hamiltonian                  GFN2-xTB          :
          :  restarted?                       true          :
          :  GBSA solvation                  false          :
          :  PC potential                    false          :
          :  electronic temp.          300.0000000     K    :
          :  accuracy                    1.0000000          :
          :  -> integral cutoff          0.2500000E+02      :
          :  -> integral neglect         0.1000000E-07      :
          :  -> SCF convergence          0.1000000E-05 Eh   :
          :  -> wf. convergence          0.1000000E-03 e    :
          :  Broyden damping             0.4000000          :
          :  net charge                          0          :
          :  unpaired electrons                  0          :
          ...................................................

 iter      E             dE          RMSdq      gap      omega  full diag
   1    -35.0898055 -0.350898E+02  0.507E+00    3.29       0.0  T
   2    -35.0955534 -0.574794E-02  0.303E+00    3.32       1.0  T
   3    -35.0895068  0.604660E-02  0.543E-01    3.18       1.0  T
   4    -35.0973751 -0.786833E-02  0.161E-01    3.25       1.0  T
   5    -35.0975962 -0.221066E-03  0.742E-02    3.27       1.0  T
   6    -35.0975919  0.426461E-05  0.335E-02    3.26       1.0  T
   7    -35.0976072 -0.152265E-04  0.946E-03    3.26       2.3  T
   8    -35.0976077 -0.570060E-06  0.587E-03    3.27       3.6  T
   9    -35.0976081 -0.380350E-06  0.155E-03    3.26      13.7  T
  10    -35.0976081 -0.381196E-08  0.634E-04    3.26      33.6  T
  11    -35.0976081 -0.150679E-08  0.339E-04    3.26      62.9  T

   *** convergence criteria satisfied after 11 iterations ***

         #    Occupation            Energy/Eh            Energy/eV
      -------------------------------------------------------------
         1        2.0000           -0.7320101             -19.9190
       ...           ...                  ...                  ...
        25        2.0000           -0.4561538             -12.4126
        26        2.0000           -0.4452423             -12.1157
        27        2.0000           -0.4254346             -11.5767
        28        2.0000           -0.4223788             -11.4935
        29        2.0000           -0.4174047             -11.3582
        30        2.0000           -0.4142142             -11.2713
        31        2.0000           -0.4045253             -11.0077 (HOMO)
        32                         -0.2845662              -7.7434 (LUMO)
        33                         -0.2349748              -6.3940
        34                         -0.2332870              -6.3481
        35                         -0.1734804              -4.7206
        36                         -0.1066595              -2.9024
       ...                                ...                  ...
        58                          0.6509060              17.7121
      -------------------------------------------------------------
                  HL-Gap            0.1199592 Eh            3.2643 eV
             Fermi-level           -0.3445457 Eh           -9.3756 eV

 SCC (total)                   0 d,  0 h,  0 min,  0.032 sec
 SCC setup                      ...        0 min,  0.001 sec (  2.196%)
 Dispersion                     ...        0 min,  0.001 sec (  2.122%)
 classical contributions        ...        0 min,  0.000 sec (  1.022%)
 integral evaluation            ...        0 min,  0.002 sec (  7.146%)
 iterations                     ...        0 min,  0.026 sec ( 80.213%)
 molecular gradient             ...        0 min,  0.002 sec (  6.683%)
 printout                       ...        0 min,  0.000 sec (  0.466%)

         :::::::::::::::::::::::::::::::::::::::::::::::::::::
         ::                     SUMMARY                     ::
         :::::::::::::::::::::::::::::::::::::::::::::::::::::
         :: total energy             -34.599280609379 Eh    ::
         :: gradient norm              0.120730128690 Eh/a0 ::
         :: HOMO-LUMO gap              3.264255032906 eV    ::
         ::.................................................::
         :: SCC energy               -35.097646746334 Eh    ::
         :: -> isotropic ES            0.049277038878 Eh    ::
         :: -> anisotropic ES          0.000759269199 Eh    ::
         :: -> anisotropic XC          0.015558000804 Eh    ::
         :: -> dispersion             -0.017883844205 Eh    ::
         :: repulsion energy           0.498366136955 Eh    ::
         :: add. restraining           0.000000000000 Eh    ::
         :: total charge              -0.000000000000 e     ::
         :::::::::::::::::::::::::::::::::::::::::::::::::::::

      ----------------------------------------------------------- 
     |                   =====================                   |
     |                        A N C O P T                        |
     |                   =====================                   |
     |               Approximate Normal Coordinate               |
     |                Rational Function Optimizer                |
      ----------------------------------------------------------- 
      ----------------------------------------------------------- 
     |                   =====================                   |
     |                        A N C O P T                        |
     |                   =====================                   |
     |               Approximate Normal Coordinate               |
     |                Rational Function Optimizer                |
      ----------------------------------------------------------- 

          ...................................................
          :                      SETUP                      :
          :.................................................:
          :   optimization level            normal          :
          :   max. optcycles                   200          :
          :   ANC micro-cycles                  20          :
          :   degrees of freedom                60          :
          :.................................................:
          :   RF solver                   davidson          :
          :   write xtbopt.log                true          :
          :   linear?                        false          :
          :   energy convergence         0.5000000E-05 Eh   :
          :   grad. convergence          0.1000000E-02 Eh/α :
          :   maxmium RF displ.          1.0000000          :
          :   Hlow (freq-cutoff)         0.1000000E-01      :
          :   Hmax (freq-cutoff)         5.0000000          :
          :   S6 in model hess.         20.0000000          :
          ...................................................

generating ANC from exact Hessian ...
Using Lindh-Hessian (1995)
 Shifting diagonal of input Hessian by   9.006898125757379E-003
 Lowest  eigenvalues of input Hessian
    0.000000    0.000000    0.000000    0.000000    0.000000    0.000000
    0.010000    0.010235    0.010816    0.015962    0.017491    0.017725
    0.020499    0.021631    0.024566    0.028222    0.030584    0.033944
 Highest eigenvalues
    1.768200    1.846617    1.892833    2.004791    2.088241    2.127061
 

........................................................................
.............................. CYCLE    1 ..............................
........................................................................

 iter      E             dE          RMSdq      gap      omega  full diag
   1    -35.0976081 -0.350976E+02  0.115E-04    3.26       0.0  T
   2    -35.0976081 -0.368630E-10  0.688E-05    3.26     309.8  T
   3    -35.0976081 -0.139835E-10  0.487E-05    3.26     438.2  T
     SCC iter.                  ...        0 min,  0.003 sec
     gradient                   ...        0 min,  0.003 sec
 * total energy  :   -34.5992806 Eh     change       -0.6519656E-09 Eh
   gradient norm :     0.1207311 Eh/α   predicted     0.0000000E+00 (-100.00%)
   displ. norm   :     0.2944863 α      lambda       -0.1549536E-01
   maximum displ.:     0.1955957 α      in ANC's #8, #10, #19, ...

........................................................................
.............................. CYCLE    2 ..............................
........................................................................

 iter      E             dE          RMSdq      gap      omega  full diag
   1    -35.1278485 -0.351278E+02  0.268E-01    3.49       0.0  T
   2    -35.1281320 -0.283573E-03  0.168E-01    3.50       1.0  T
   3    -35.1281059  0.261324E-04  0.895E-02    3.50       1.0  T
   4    -35.1281503 -0.444268E-04  0.414E-02    3.50       1.0  T
   5    -35.1281756 -0.252270E-04  0.883E-03    3.49       2.4  T
   6    -35.1281765 -0.908348E-06  0.394E-03    3.50       5.4  T
   7    -35.1281765 -0.696914E-07  0.151E-03    3.50      14.1  T
   8    -35.1281766 -0.177847E-07  0.692E-04    3.50      30.8  T
   9    -35.1281766 -0.203094E-08  0.272E-04    3.50      78.4  T
     SCC iter.                  ...        0 min,  0.007 sec
     gradient                   ...        0 min,  0.002 sec
 * total energy  :   -34.6099256 Eh     change       -0.1064499E-01 Eh
   gradient norm :     0.0451511 Eh/α   predicted    -0.8429714E-02 ( -20.81%)
   displ. norm   :     0.3208702 α      lambda       -0.4671844E-02
   maximum displ.:     0.2764567 α      in ANC's #8, #10, #13, ...

........................................................................
.............................. CYCLE    3 ..............................
........................................................................

 iter      E             dE          RMSdq      gap      omega  full diag
   1    -35.1431727 -0.351432E+02  0.204E-01    3.64       0.0  T
   2    -35.1432714 -0.986887E-04  0.124E-01    3.66       1.0  T
   3    -35.1432444  0.269673E-04  0.578E-02    3.65       1.0  T
   4    -35.1432745 -0.300234E-04  0.248E-02    3.65       1.0  T
   5    -35.1432841 -0.961689E-05  0.478E-03    3.65       4.5  T
   6    -35.1432843 -0.214157E-06  0.209E-03    3.65      10.2  T
   7    -35.1432843 -0.298772E-07  0.738E-04    3.65      28.9  T
   8    -35.1432843 -0.535220E-08  0.319E-04    3.65      66.8  T
     SCC iter.                  ...        0 min,  0.007 sec
     gradient                   ...        0 min,  0.002 sec
 * total energy  :   -34.6126331 Eh     change       -0.2707482E-02 Eh
   gradient norm :     0.0140485 Eh/α   predicted    -0.2578965E-02 (  -4.75%)
   displ. norm   :     0.1828722 α      lambda       -0.7320626E-03
   maximum displ.:     0.1731839 α      in ANC's #8, #10, #3, ...

........................................................................
.............................. CYCLE    4 ..............................
........................................................................

 iter      E             dE          RMSdq      gap      omega  full diag
   1    -35.1436516 -0.351437E+02  0.833E-02    3.66       0.0  T
   2    -35.1436574 -0.579083E-05  0.507E-02    3.66       1.0  T
   3    -35.1436555  0.183466E-05  0.116E-02    3.67       1.8  T
   4    -35.1436571 -0.154692E-05  0.622E-03    3.66       3.4  T
   5    -35.1436578 -0.732416E-06  0.131E-03    3.66      16.3  T
   6    -35.1436578 -0.143068E-07  0.715E-04    3.66      29.8  T
   7    -35.1436578 -0.330520E-08  0.235E-04    3.66      90.9  T
     SCC iter.                  ...        0 min,  0.007 sec
     gradient                   ...        0 min,  0.002 sec
 * total energy  :   -34.6131090 Eh     change       -0.4758909E-03 Eh
   gradient norm :     0.0067815 Eh/α   predicted    -0.3782936E-03 ( -20.51%)
   displ. norm   :     0.1151774 α      lambda       -0.2036439E-03
   maximum displ.:     0.1078072 α      in ANC's #8, #3, #10, ...

........................................................................
.............................. CYCLE    5 ..............................
........................................................................

 iter      E             dE          RMSdq      gap      omega  full diag
   1    -35.1436322 -0.351436E+02  0.489E-02    3.66       0.0  T
   2    -35.1436356 -0.336181E-05  0.298E-02    3.67       1.0  T
   3    -35.1436351  0.526877E-06  0.757E-03    3.67       2.8  T
   4    -35.1436356 -0.529770E-06  0.311E-03    3.67       6.9  T
   5    -35.1436358 -0.223962E-06  0.595E-04    3.67      35.8  T
   6    -35.1436358 -0.698904E-09  0.370E-04    3.67      57.6  T
     SCC iter.                  ...        0 min,  0.006 sec
     gradient                   ...        0 min,  0.002 sec
 * total energy  :   -34.6132180 Eh     change       -0.1090530E-03 Eh
   gradient norm :     0.0027156 Eh/α   predicted    -0.1031902E-03 (  -5.38%)
   displ. norm   :     0.0426471 α      lambda       -0.4511273E-04
   maximum displ.:     0.0304639 α      in ANC's #8, #3, #11, ...

........................................................................
.............................. CYCLE    6 ..............................
........................................................................

 iter      E             dE          RMSdq      gap      omega  full diag
   1    -35.1439478 -0.351439E+02  0.254E-02    3.67       0.0  T
   2    -35.1439482 -0.430649E-06  0.151E-02    3.67       1.4  T
   3    -35.1439480  0.212475E-06  0.402E-03    3.67       5.3  T
   4    -35.1439482 -0.220748E-06  0.179E-03    3.67      11.9  T
   5    -35.1439483 -0.531507E-07  0.466E-04    3.67      45.8  T
   6    -35.1439483 -0.144433E-08  0.258E-04    3.67      82.7  T
     SCC iter.                  ...        0 min,  0.006 sec
     gradient                   ...        0 min,  0.002 sec
 * total energy  :   -34.6132379 Eh     change       -0.1984494E-04 Eh
   gradient norm :     0.0017119 Eh/α   predicted    -0.2259973E-04 (  13.88%)
   displ. norm   :     0.0242327 α      lambda       -0.1228322E-04
   maximum displ.:     0.0167646 α      in ANC's #3, #14, #20, ...

........................................................................
.............................. CYCLE    7 ..............................
........................................................................

 iter      E             dE          RMSdq      gap      omega  full diag
   1    -35.1442120 -0.351442E+02  0.162E-02    3.67       0.0  T
   2    -35.1442121 -0.505362E-07  0.959E-03    3.67       2.2  T
   3    -35.1442118  0.251717E-06  0.402E-03    3.67       5.3  T
   4    -35.1442121 -0.288373E-06  0.593E-04    3.67      35.9  T
   5    -35.1442121 -0.218294E-08  0.319E-04    3.67      66.9  T
     SCC iter.                  ...        0 min,  0.004 sec
     gradient                   ...        0 min,  0.002 sec
 * total energy  :   -34.6132464 Eh     change       -0.8520227E-05 Eh
   gradient norm :     0.0007525 Eh/α   predicted    -0.6144211E-05 ( -27.89%)
   displ. norm   :     0.0156991 α      lambda       -0.2401177E-05
   maximum displ.:     0.0142196 α      in ANC's #3, #18, #1, ...

........................................................................
.............................. CYCLE    8 ..............................
........................................................................

 iter      E             dE          RMSdq      gap      omega  full diag
   1    -35.1441449 -0.351441E+02  0.892E-03    3.67       0.0  T
   2    -35.1441450 -0.157187E-07  0.533E-03    3.67       4.0  T
   3    -35.1441449  0.345124E-07  0.139E-03    3.67      15.4  T
   4    -35.1441450 -0.398882E-07  0.230E-04    3.67      92.8  T
   5    -35.1441450 -0.678874E-09  0.976E-05    3.67     218.4  T
     SCC iter.                  ...        0 min,  0.004 sec
     gradient                   ...        0 min,  0.002 sec
 * total energy  :   -34.6132483 Eh     change       -0.1882601E-05 Eh
   gradient norm :     0.0004566 Eh/α   predicted    -0.1201662E-05 ( -36.17%)
   displ. norm   :     0.0150920 α      lambda       -0.1374625E-05
   maximum displ.:     0.0135717 α      in ANC's #3, #2, #1, ...

   *** GEOMETRY OPTIMIZATION CONVERGED AFTER 8 ITERATIONS ***

------------------------------------------------------------------------
 total energy gain   :        -0.0139677 Eh       -8.7648 kcal/mol
 total RMSD          :         0.1879772 a0        0.0995 Å
 total power (kW/mol):        -4.5840114 (step) -477.7378 (real)
------------------------------------------------------------------------

 ANCopt (total)                0 d,  0 h,  0 min,  0.077 sec
 optimizer setup                ...        0 min,  0.000 sec (  0.148%)
 model hessian                  ...        0 min,  0.004 sec (  4.874%)
 ANC generation                 ...        0 min,  0.000 sec (  0.634%)
 coordinate transformation      ...        0 min,  0.000 sec (  0.088%)
 single point calculation       ...        0 min,  0.069 sec ( 90.470%)
 optimization log               ...        0 min,  0.001 sec (  1.199%)
 hessian update                 ...        0 min,  0.001 sec (  1.434%)
 rational function              ...        0 min,  0.000 sec (  0.638%)

================
 final structure:
================
22
 xtb: 6.7.1 (edcfbbe)
C           -3.60296980100925        0.63043035916380        0.71841616451630
C           -2.57526022197760        0.11289626103613       -0.23605097494669
C           -2.85624117886692       -0.40356134536183       -1.42757337329871
C           -1.17468535811846        0.21921394666530        0.25639832896795
O           -0.86583825712556        0.67391977028504        1.32847521090110
O           -0.28073621691534       -0.25480746408240       -0.63288327389900
C            1.06819151973940       -0.21131559208262       -0.27593646430497
C            1.82850842834306        0.89869943864071       -0.60834474773860
C            3.17679804146889        0.91369188971687       -0.29811706910548
C            3.75695587542356       -0.16798586641609        0.34219386125562
C            2.98770927093672       -1.26919711589747        0.67769066246056
C            1.63845170277476       -1.29536417544681        0.37254682359067
H           -3.53914660414720        0.08756697042875        1.65987252850676
H           -4.60262169632049        0.52739550199328        0.30657300255135
H           -3.40666124758257        1.67811539553186        0.93967721543190
H           -2.08416233672715       -0.76611648587888       -2.08307110547098
H           -3.87146691295840       -0.47953647678567       -1.77982753602827
H            1.35982673199715        1.73601372658004       -1.10275535877364
H            3.77363375028779        1.77599180846547       -0.55484251074318
H            4.80914684566427       -0.15120692553310        0.58330339564922
H            3.43699905104262       -2.11099934951815        1.18263803719119
H            1.02357061407072       -2.14384427150426        0.63161618328691
 
 Bond Distances (Angstroems)
 ---------------------------
C1-C2=1.4950         C1-H13=1.0886        C1-H14=1.0861        C1-H15=1.0886        C2-C1=1.4950         C2-C3=1.3287         
C2-C4=1.4884         C3-C2=1.3287         C3-H16=1.0757        C3-H17=1.0773        C4-C2=1.4884         C4-O5=1.2048         
C4-O6=1.3471         O5-C4=1.2048         O6-C4=1.3471         O6-C7=1.3960         C7-O6=1.3960         C7-C8=1.3859         
C7-C12=1.3860        C8-C7=1.3859         C8-C9=1.3836         C8-H18=1.0794        C9-C8=1.3836         C9-C10=1.3844        
C9-H19=1.0797        C10-C9=1.3844        C10-C11=1.3845       C10-H20=1.0796       C11-C10=1.3845       C11-C12=1.3836       
C11-H21=1.0796       C12-C7=1.3860        C12-C11=1.3836       C12-H22=1.0794       H13-C1=1.0886        H14-C1=1.0861        
H15-C1=1.0886        H16-C3=1.0757        H17-C3=1.0773        H18-C8=1.0794        H19-C9=1.0797        H20-C10=1.0796       
H21-C11=1.0796       H22-C12=1.0794       
 C  H  Rav=1.0814 sigma=0.0044  Rmin=1.0757  Rmax=1.0886    10
 C  C  Rav=1.4022 sigma=0.0509  Rmin=1.3287  Rmax=1.4950     9
 O  C  Rav=1.3160 sigma=0.0811  Rmin=1.2048  Rmax=1.3960     3
 
 selected bond angles (degree)
 --------------------
H13-C1-C2=109.83               H14-C1-C2=110.96               H14-C1-H13=109.55              H15-C1-C2=109.81               
H15-C1-H13=107.07              H15-C1-H14=109.53              C3-C2-C1=124.17                C4-C2-C1=114.26                
C4-C2-C3=121.56                H16-C3-C2=121.71               H17-C3-C2=121.33               H17-C3-H16=116.96              
O5-C4-C2=124.24                O6-C4-C2=112.39                O6-C4-O5=123.38                C7-O6-C4=117.48                
C8-C7-O6=119.59                C12-C7-O6=119.53               C12-C7-C8=120.86               C9-C8-C7=119.31                
H18-C8-C7=119.53               H18-C8-C9=121.16               C10-C9-C8=120.24               H19-C9-C8=119.61               
H19-C9-C10=120.16              C11-C10-C9=120.04              H20-C10-C9=119.97              H20-C10-C11=119.98             
 
 selected dihedral angles (degree)
 ---------------------------------
C3-C2-C1-H13=121.23           C3-C2-C1-H14=359.97           C3-C2-C1-H15=238.73           C4-C2-C1-H13=301.26           
C4-C2-C1-H14=179.99           C4-C2-C1-H15= 58.75           H16-C3-C2-C1=180.09           H16-C3-C2-C4=  0.07           
H17-C3-C2-C1=359.97           H17-C3-C2-C4=179.94           O5-C4-C2-C1=  0.25            O5-C4-C2-C3=180.28            
O6-C4-C2-C1=180.12            O6-C4-C2-C3=  0.15            C7-O6-C4-C2=180.26            C7-O6-C4-O5=  0.13            
C8-C7-O6-C4=269.05            C12-C7-O6-C4= 90.89           C9-C8-C7-O6=182.50            C9-C8-C7-C12=  0.64           
H18-C8-C7-O6=  2.58           H18-C8-C7-C12=180.72          C10-C9-C8-C7=359.76           C10-C9-C8-H18=179.68          
H19-C9-C8-C7=180.00           H19-C9-C8-H18=359.92          C11-C10-C9-C8=359.85          C11-C10-C9-H19=179.60         
H20-C10-C9-C8=180.07          H20-C10-C9-H19=359.83         
           -------------------------------------------------
          |                Final Singlepoint                |
           -------------------------------------------------

          ...................................................
          :                      SETUP                      :
          :.................................................:
          :  # basis functions                  58          :
          :  # atomic orbitals                  58          :
          :  # shells                           34          :
          :  # electrons                        62          :
          :  max. iterations                   250          :
          :  Hamiltonian                  GFN2-xTB          :
          :  restarted?                      false          :
          :  GBSA solvation                  false          :
          :  PC potential                    false          :
          :  electronic temp.          300.0000000     K    :
          :  accuracy                    1.0000000          :
          :  -> integral cutoff          0.2500000E+02      :
          :  -> integral neglect         0.1000000E-07      :
          :  -> SCF convergence          0.1000000E-05 Eh   :
          :  -> wf. convergence          0.1000000E-03 e    :
          :  Broyden damping             0.4000000          :
          :  net charge                          0          :
          :  unpaired electrons                  0          :
          ...................................................

 iter      E             dE          RMSdq      gap      omega  full diag
   1    -35.1441450 -0.351441E+02  0.560E-05    3.67       0.0  T
   2    -35.1441450 -0.312639E-11  0.382E-05    3.67     558.7  T
   3    -35.1441450 -0.124771E-10  0.239E-05    3.67     892.5  T

   *** convergence criteria satisfied after 3 iterations ***

         #    Occupation            Energy/Eh            Energy/eV
      -------------------------------------------------------------
         1        2.0000           -0.7414776             -20.1766
       ...           ...                  ...                  ...
        25        2.0000           -0.4572405             -12.4421
        26        2.0000           -0.4450156             -12.1095
        27        2.0000           -0.4285172             -11.6605
        28        2.0000           -0.4183532             -11.3840
        29        2.0000           -0.4179758             -11.3737
        30        2.0000           -0.4159962             -11.3198
        31        2.0000           -0.4053386             -11.0298 (HOMO)
        32                         -0.2704418              -7.3591 (LUMO)
        33                         -0.2347575              -6.3881
        34                         -0.2334139              -6.3515
        35                         -0.1622254              -4.4144
        36                         -0.1041830              -2.8350
       ...                                ...                  ...
        58                          0.7077501              19.2589
      -------------------------------------------------------------
                  HL-Gap            0.1348968 Eh            3.6707 eV
             Fermi-level           -0.3378902 Eh           -9.1945 eV

 SCC (total)                   0 d,  0 h,  0 min,  0.006 sec
 SCC setup                      ...        0 min,  0.000 sec (  1.082%)
 Dispersion                     ...        0 min,  0.000 sec (  0.949%)
 classical contributions        ...        0 min,  0.000 sec (  0.148%)
 integral evaluation            ...        0 min,  0.001 sec (  9.060%)
 iterations                     ...        0 min,  0.003 sec ( 56.541%)
 molecular gradient             ...        0 min,  0.002 sec ( 27.501%)
 printout                       ...        0 min,  0.000 sec (  4.358%)

         :::::::::::::::::::::::::::::::::::::::::::::::::::::
         ::                     SUMMARY                     ::
         :::::::::::::::::::::::::::::::::::::::::::::::::::::
         :: total energy             -34.613248271238 Eh    ::
         :: gradient norm              0.000456779988 Eh/a0 ::
         :: HOMO-LUMO gap              3.670729679987 eV    ::
         ::.................................................::
         :: SCC energy               -35.144173452943 Eh    ::
         :: -> isotropic ES            0.046204674085 Eh    ::
         :: -> anisotropic ES          0.001077132008 Eh    ::
         :: -> anisotropic XC          0.014673882879 Eh    ::
         :: -> dispersion             -0.018222496870 Eh    ::
         :: repulsion energy           0.530925181705 Eh    ::
         :: add. restraining           0.000000000000 Eh    ::
         :: total charge               0.000000000000 e     ::
         :::::::::::::::::::::::::::::::::::::::::::::::::::::

           -------------------------------------------------
          |                Property Printout                |
           -------------------------------------------------

    * Orbital Energies and Occupations

         #    Occupation            Energy/Eh            Energy/eV
      -------------------------------------------------------------
         1        2.0000           -0.7414776             -20.1766
       ...           ...                  ...                  ...
        19        2.0000           -0.4935066             -13.4290
        20        2.0000           -0.4895477             -13.3213
        21        2.0000           -0.4882796             -13.2868
        22        2.0000           -0.4817467             -13.1090
        23        2.0000           -0.4686749             -12.7533
        24        2.0000           -0.4619756             -12.5710
        25        2.0000           -0.4572405             -12.4421
        26        2.0000           -0.4450156             -12.1095
        27        2.0000           -0.4285172             -11.6605
        28        2.0000           -0.4183532             -11.3840
        29        2.0000           -0.4179758             -11.3737
        30        2.0000           -0.4159962             -11.3198
        31        2.0000           -0.4053386             -11.0298 (HOMO)
        32                         -0.2704418              -7.3591 (LUMO)
        33                         -0.2347575              -6.3881
        34                         -0.2334139              -6.3515
        35                         -0.1622254              -4.4144
        36                         -0.1041830              -2.8350
        37                          0.0189842               0.5166
        38                          0.1058577               2.8805
        39                          0.1135116               3.0888
        40                          0.1176830               3.2023
        41                          0.1431521               3.8954
        42                          0.1646238               4.4796
       ...                                ...                  ...
        58                          0.7077501              19.2589
      -------------------------------------------------------------
                  HL-Gap            0.1348968 Eh            3.6707 eV
             Fermi-level           -0.3378902 Eh           -9.1945 eV

     #   Z          covCN         q      C6AA      α(0)
     1   6 C        3.759    -0.110    22.654     6.785
     2   6 C        2.937    -0.008    28.212     8.711
     3   6 C        2.844    -0.081    30.007     8.978
     4   6 C        2.731     0.356    20.964     7.496
     5   8 O        0.856    -0.408    21.842     6.266
     6   8 O        1.707    -0.267    18.434     5.797
     7   6 C        2.883     0.149    24.766     8.159
     8   6 C        2.918    -0.039    28.980     8.828
     9   6 C        2.922    -0.026    28.656     8.779
    10   6 C        2.920    -0.031    28.767     8.795
    11   6 C        2.922    -0.026    28.657     8.779
    12   6 C        2.918    -0.039    28.980     8.828
    13   1 H        0.925     0.065     2.138     2.286
    14   1 H        0.925     0.051     2.311     2.377
    15   1 H        0.925     0.065     2.139     2.287
    16   1 H        0.926     0.063     2.163     2.300
    17   1 H        0.926     0.056     2.252     2.347
    18   1 H        0.926     0.050     2.323     2.384
    19   1 H        0.926     0.045     2.387     2.416
    20   1 H        0.926     0.043     2.412     2.429
    21   1 H        0.926     0.045     2.387     2.416
    22   1 H        0.926     0.050     2.324     2.384

 Mol. C6AA /au·bohr⁶  :       5755.447694
 Mol. C8AA /au·bohr⁸  :     137981.725254
 Mol. α(0) /au        :        119.825595


Wiberg/Mayer (AO) data.
largest (>0.10) Wiberg bond orders for each atom

 ---------------------------------------------------------------------------
     #   Z sym  total        # sym  WBO       # sym  WBO       # sym  WBO
 ---------------------------------------------------------------------------
     1   6 C    3.993 --     2 C    1.029    14 H    0.985    15 H    0.967
                            13 H    0.966
     2   6 C    3.986 --     3 C    1.878     1 C    1.029     4 C    0.993
     3   6 C    3.988 --     2 C    1.878    17 H    0.974    16 H    0.972
     4   6 C    3.914 --     5 O    1.742     6 O    1.091     2 C    0.993
     5   8 O    2.041 --     4 C    1.742     6 O    0.170
     6   8 O    2.324 --     4 C    1.091     7 C    0.954     5 O    0.170
     7   6 C    3.921 --     8 C    1.402    12 C    1.402     6 O    0.954
                            10 C    0.106
     8   6 C    3.990 --     9 C    1.442     7 C    1.402    18 H    0.968
                            11 C    0.112
     9   6 C    3.991 --     8 C    1.442    10 C    1.440    19 H    0.970
                            12 C    0.112
    10   6 C    3.991 --     9 C    1.440    11 C    1.440    20 H    0.971
                             7 C    0.106
    11   6 C    3.991 --    12 C    1.442    10 C    1.440    21 H    0.970
                             8 C    0.112
    12   6 C    3.990 --    11 C    1.442     7 C    1.402    22 H    0.968
                             9 C    0.112
    13   1 H    0.996 --     1 C    0.966
    14   1 H    0.997 --     1 C    0.985
    15   1 H    0.996 --     1 C    0.967
    16   1 H    0.996 --     3 C    0.972
    17   1 H    0.997 --     3 C    0.974
    18   1 H    0.998 --     8 C    0.968
    19   1 H    0.998 --     9 C    0.970
    20   1 H    0.998 --    10 C    0.971
    21   1 H    0.998 --    11 C    0.970
    22   1 H    0.998 --    12 C    0.968
 ---------------------------------------------------------------------------

Topologies differ in total number of bonds
Writing topology from bond orders to xtbtopo.mol

molecular dipole:
                 x           y           z       tot (Debye)
 q only:        0.030      -0.269      -0.588
   full:       -0.034      -0.305      -0.680       1.897
molecular quadrupole (traceless):
                xx          xy          yy          xz          yz          zz
 q only:       10.321      -0.242      -3.132       1.780      -2.449      -7.189
  q+dip:       10.778       0.680      -1.392       3.359      -4.849      -9.385
   full:        9.552       0.304      -1.284       2.344      -4.173      -8.268

           -------------------------------------------------
          |                Geometry Summary                 |
           -------------------------------------------------

      molecular mass/u    :      162.1855763
   center of mass at/Å    :        0.1821684      -0.0000981       0.0318158
  moments of inertia/u·Å² :        0.1866064E+03   0.1054283E+04   0.1062207E+04
rotational constants/cm⁻¹ :        0.9033791E-01   0.1598967E-01   0.1587038E-01

 * 20 selected distances

     #   Z          #   Z                                           value/Å
     2   6 C        3   6 C                                       1.3286853
     4   6 C        5   8 O                                       1.2047792
     4   6 C        6   8 O                                       1.3470945
     6   8 O        7   6 C                                       1.3960333 (max)
     7   6 C        8   6 C                                       1.3858971
     8   6 C        9   6 C                                       1.3836008
     9   6 C       10   6 C                                       1.3844162
    10   6 C       11   6 C                                       1.3845451
     7   6 C       12   6 C                                       1.3859614
    11   6 C       12   6 C                                       1.3835801
     1   6 C       13   1 H                                       1.0886296
     1   6 C       14   1 H                                       1.0860640
     1   6 C       15   1 H                                       1.0886403
     3   6 C       16   1 H                                       1.0757460 (min)
     3   6 C       17   1 H                                       1.0772830
     8   6 C       18   1 H                                       1.0794442
     9   6 C       19   1 H                                       1.0796676
    10   6 C       20   1 H                                       1.0795932
    11   6 C       21   1 H                                       1.0795668
    12   6 C       22   1 H                                       1.0794046

 * 3 distinct bonds (by element types)

   Z      Z             #   av. dist./Å        max./Å        min./Å
   1 H    6 C          10     1.0814039     1.0886403     1.0757460
   6 C    6 C           7     1.3766694     1.3859614     1.3286853
   6 C    8 O           3     1.3159690     1.3960333     1.2047792


optimized geometry written to: xtbopt.xyz


           -------------------------------------------------
          | TOTAL ENERGY              -34.613248271238 Eh   |
          | GRADIENT NORM               0.000456779988 Eh/α |
          | HOMO-LUMO GAP               3.670729679987 eV   |
           -------------------------------------------------

------------------------------------------------------------------------
 * finished run on 2025/12/01 at 14:18:57.617     
------------------------------------------------------------------------
 total:
 * wall-time:     0 d,  0 h,  0 min,  0.149 sec
 *  cpu-time:     0 d,  0 h,  0 min,  2.941 sec
 * ratio c/w:    19.788 speedup
 SCF:
 * wall-time:     0 d,  0 h,  0 min,  0.032 sec
 *  cpu-time:     0 d,  0 h,  0 min,  0.735 sec
 * ratio c/w:    22.721 speedup
 ANC optimizer:
 * wall-time:     0 d,  0 h,  0 min,  0.084 sec
 *  cpu-time:     0 d,  0 h,  0 min,  1.914 sec
 * ratio c/w:    22.858 speedup

normal termination of xtb
