      -----------------------------------------------------------      
     |                   =====================                   |     
     |                           x T B                           |     
     |                   =====================                   |     
     |                         S. Grimme                         |     
     |          Mulliken Center for Theoretical Chemistry        |     
     |                    University of Bonn                     |     
      -----------------------------------------------------------      

   * xtb version 6.7.1 (edcfbbe) compiled by 'albert@albert-system' on 2024-07-22

   xtb is free software: you can redistribute it and/or modify it under
   the terms of the GNU Lesser General Public License as published by
   the Free Software Foundation, either version 3 of the License, or
   (at your option) any later version.
   
   xtb is distributed in the hope that it will be useful,
   but WITHOUT ANY WARRANTY; without even the implied warranty of
   MERCHANTABILITY or FITNESS FOR A PARTICULAR PURPOSE.  See the
   GNU Lesser General Public License for more details.
   
   Cite this work as:
   * C. Bannwarth, E. Caldeweyher, S. Ehlert, A. Hansen, P. Pracht,
     J. Seibert, S. Spicher, S. Grimme, WIREs Comput. Mol. Sci., 2020, 11,
     e01493. DOI: 10.1002/wcms.1493
   
   for GFN2-xTB:
   * C. Bannwarth, S. Ehlert and S. Grimme., J. Chem. Theory Comput., 2019,
     15, 1652-1671. DOI: 10.1021/acs.jctc.8b01176
   for GFN1-xTB:
   * S. Grimme, C. Bannwarth, P. Shushkov, J. Chem. Theory Comput., 2017,
     13, 1989-2009. DOI: 10.1021/acs.jctc.7b00118
   for GFN0-xTB:
   * P. Pracht, E. Caldeweyher, S. Ehlert, S. Grimme, ChemRxiv, 2019, preprint.
     DOI: 10.26434/chemrxiv.8326202.v1
   for GFN-FF:
   * S. Spicher and S. Grimme, Angew. Chem. Int. Ed., 2020, 59, 15665-15673.
     DOI: 10.1002/anie.202004239
   
   for ALPB and GBSA implicit solvation:
   * S. Ehlert, M. Stahn, S. Spicher, S. Grimme, J. Chem. Theory Comput.,
     2021, 17, 4250-4261. DOI: 10.1021/acs.jctc.1c00471
   
   for ddCOSMO and CPCM-X implicit solvation:
   * M. Stahn, S. Ehlert, S. Grimme, J. Phys. Chem. A,
     2023, XX, XXXX-XXXX. DOI: 10.1021/acs.jpca.3c04382
   
   for DFT-D4:
   * E. Caldeweyher, C. Bannwarth and S. Grimme, J. Chem. Phys., 2017,
     147, 034112. DOI: 10.1063/1.4993215
   * E. Caldeweyher, S. Ehlert, A. Hansen, H. Neugebauer, S. Spicher,
     C. Bannwarth and S. Grimme, J. Chem. Phys., 2019, 150, 154122.
     DOI: 10.1063/1.5090222
   * E. Caldeweyher, J.-M. Mewes, S. Ehlert and S. Grimme, Phys. Chem. Chem. Phys.
     2020, 22, 8499-8512. DOI: 10.1039/D0CP00502A
   
   for sTDA-xTB:
   * S. Grimme and C. Bannwarth, J. Chem. Phys., 2016, 145, 054103.
     DOI: 10.1063/1.4959605
   
   in the mass-spec context:
   * V. Asgeirsson, C. Bauer and S. Grimme, Chem. Sci., 2017, 8, 4879.
     DOI: 10.1039/c7sc00601b
   * J. Koopman and S. Grimme, ACS Omega 2019, 4, 12, 15120-15133.
     DOI: 10.1021/acsomega.9b02011
   
   for metadynamics refer to:
   * S. Grimme, J. Chem. Theory Comput., 2019, 155, 2847-2862
     DOI: 10.1021/acs.jctc.9b00143
   
   for SPH calculations refer to:
   * S. Spicher and S. Grimme, J. Chem. Theory Comput., 2021, 17, 1701-1714
     DOI: 10.1021/acs.jctc.0c01306
   
   for ONIOM refer to:
   * C. Plett, A. Katbashev, S. Ehlert, S. Grimme, M. Bursch,
     Phys. Chem. Chem. Phys., 2023, 25, 17860-17868. DOI: 10.1039/D3CP02178E
   
   for DIPRO refer to:
   * J. Kohn, N. Gildemeister, S. Grimme, D. Fazzi, A. Hansen,
     J. Chem. Phys., 2023, just accepted.
   
   for PTB refer to:
   * S. Grimme, M. Mueller, A. Hansen, J. Chem. Phys., 2023, 158, 124111.
     DOI: 10.1063/5.0137838
   
   with help from (in alphabetical order)
   P. Atkinson, C. Bannwarth, F. Bohle, G. Brandenburg, E. Caldeweyher
   M. Checinski, S. Dohm, S. Ehlert, S. Ehrlich, I. Gerasimov, C. Hölzer
   A. Katbashev, J. Kohn, J. Koopman, C. Lavigne, S. Lehtola, F. März, M. Müller,
   F. Musil, H. Neugebauer, J. Pisarek, C. Plett, P. Pracht, F. Pultar,
   J. Seibert, P. Shushkov, S. Spicher, M. Stahn, M. Steiner, T. Strunk,
   J. Stückrath, T. Rose, and J. Unsleber
   
 * started run on 2025/12/01 at 14:18:57.625     
   ID    Z sym.   atoms
    1    6 C      1-4, 7-12
    2    8 O      5, 6
    3    1 H      13-22

           -------------------------------------------------
          |                Calculation Setup                |
           -------------------------------------------------

          program call               : xtb pipeline_data/3_conformer_xyz/acrylates/rdkit/QIWKUEJZZCOPFV-UHFFFAOYSA-N_conf127.xyz --opt --gfn 2-xTB --iterations 250
          coordinate file            : pipeline_data/3_conformer_xyz/acrylates/rdkit/QIWKUEJZZCOPFV-UHFFFAOYSA-N_conf127.xyz
          omp threads                :                    24

########################################################################
[WARNING] Please study the warnings concerning your input carefully
-1- readin_getIntValue: could not parse '2-xTB'
########################################################################

           -------------------------------------------------
          |                 G F N 2 - x T B                 |
           -------------------------------------------------

        Reference                      10.1021/acs.jctc.8b01176
      * Hamiltonian:
        H0-scaling (s, p, d)           1.850000    2.230000    2.230000
        zeta-weighting                 0.500000
      * Dispersion:
        s8                             2.700000
        a1                             0.520000
        a2                             5.000000
        s9                             5.000000
      * Repulsion:
        kExp                           1.500000    1.000000
        rExp                           1.000000
      * Coulomb:
        alpha                          2.000000
        third order                    shell-resolved
        anisotropic                    true
        a3                             3.000000
        a5                             4.000000
        cn-shift                       1.200000
        cn-exp                         4.000000
        max-rad                        5.000000

q/qsh data taken from xtbrestart
CAMM data taken from xtbrestart

          ...................................................
          :                      SETUP                      :
          :.................................................:
          :  # basis functions                  58          :
          :  # atomic orbitals                  58          :
          :  # shells                           34          :
          :  # electrons                        62          :
          :  max. iterations                   250          :
          :  Hamiltonian                  GFN2-xTB          :
          :  restarted?                       true          :
          :  GBSA solvation                  false          :
          :  PC potential                    false          :
          :  electronic temp.          300.0000000     K    :
          :  accuracy                    1.0000000          :
          :  -> integral cutoff          0.2500000E+02      :
          :  -> integral neglect         0.1000000E-07      :
          :  -> SCF convergence          0.1000000E-05 Eh   :
          :  -> wf. convergence          0.1000000E-03 e    :
          :  Broyden damping             0.4000000          :
          :  net charge                          0          :
          :  unpaired electrons                  0          :
          ...................................................

 iter      E             dE          RMSdq      gap      omega  full diag
   1    -35.1017652 -0.351018E+02  0.661E+00    3.43       0.0  T
   2    -35.1050262 -0.326106E-02  0.392E+00    3.31       1.0  T
   3    -35.1044207  0.605520E-03  0.320E-01    3.41       1.0  T
   4    -35.1055587 -0.113801E-02  0.149E-01    3.31       1.0  T
   5    -35.1057820 -0.223305E-03  0.720E-02    3.33       1.0  T
   6    -35.1057938 -0.117542E-04  0.322E-02    3.33       1.0  T
   7    -35.1058043 -0.104886E-04  0.683E-03    3.33       3.1  T
   8    -35.1058045 -0.197411E-06  0.362E-03    3.33       5.9  T
   9    -35.1058046 -0.808685E-07  0.165E-03    3.33      12.9  T
  10    -35.1058046 -0.152420E-07  0.441E-04    3.33      48.4  T
  11    -35.1058046 -0.484100E-09  0.196E-04    3.33     108.8  T

   *** convergence criteria satisfied after 11 iterations ***

         #    Occupation            Energy/Eh            Energy/eV
      -------------------------------------------------------------
         1        2.0000           -0.7353727             -20.0105
       ...           ...                  ...                  ...
        25        2.0000           -0.4561929             -12.4136
        26        2.0000           -0.4434320             -12.0664
        27        2.0000           -0.4260094             -11.5923
        28        2.0000           -0.4220409             -11.4843
        29        2.0000           -0.4164312             -11.3317
        30        2.0000           -0.4154815             -11.3058
        31        2.0000           -0.4036327             -10.9834 (HOMO)
        32                         -0.2813748              -7.6566 (LUMO)
        33                         -0.2346495              -6.3851
        34                         -0.2324639              -6.3257
        35                         -0.1684191              -4.5829
        36                         -0.1043640              -2.8399
       ...                                ...                  ...
        58                          0.6568468              17.8737
      -------------------------------------------------------------
                  HL-Gap            0.1222579 Eh            3.3268 eV
             Fermi-level           -0.3425038 Eh           -9.3200 eV

 SCC (total)                   0 d,  0 h,  0 min,  0.024 sec
 SCC setup                      ...        0 min,  0.000 sec (  1.058%)
 Dispersion                     ...        0 min,  0.000 sec (  0.995%)
 classical contributions        ...        0 min,  0.000 sec (  0.222%)
 integral evaluation            ...        0 min,  0.001 sec (  3.296%)
 iterations                     ...        0 min,  0.020 sec ( 83.506%)
 molecular gradient             ...        0 min,  0.002 sec ( 10.167%)
 printout                       ...        0 min,  0.000 sec (  0.630%)

         :::::::::::::::::::::::::::::::::::::::::::::::::::::
         ::                     SUMMARY                     ::
         :::::::::::::::::::::::::::::::::::::::::::::::::::::
         :: total energy             -34.600591595901 Eh    ::
         :: gradient norm              0.120073989067 Eh/a0 ::
         :: HOMO-LUMO gap              3.326806985236 eV    ::
         ::.................................................::
         :: SCC energy               -35.105843057822 Eh    ::
         :: -> isotropic ES            0.049634299574 Eh    ::
         :: -> anisotropic ES          0.000565908673 Eh    ::
         :: -> anisotropic XC          0.015003341673 Eh    ::
         :: -> dispersion             -0.017915617206 Eh    ::
         :: repulsion energy           0.505251461921 Eh    ::
         :: add. restraining           0.000000000000 Eh    ::
         :: total charge               0.000000000000 e     ::
         :::::::::::::::::::::::::::::::::::::::::::::::::::::

      ----------------------------------------------------------- 
     |                   =====================                   |
     |                        A N C O P T                        |
     |                   =====================                   |
     |               Approximate Normal Coordinate               |
     |                Rational Function Optimizer                |
      ----------------------------------------------------------- 
      ----------------------------------------------------------- 
     |                   =====================                   |
     |                        A N C O P T                        |
     |                   =====================                   |
     |               Approximate Normal Coordinate               |
     |                Rational Function Optimizer                |
      ----------------------------------------------------------- 

          ...................................................
          :                      SETUP                      :
          :.................................................:
          :   optimization level            normal          :
          :   max. optcycles                   200          :
          :   ANC micro-cycles                  20          :
          :   degrees of freedom                60          :
          :.................................................:
          :   RF solver                   davidson          :
          :   write xtbopt.log                true          :
          :   linear?                        false          :
          :   energy convergence         0.5000000E-05 Eh   :
          :   grad. convergence          0.1000000E-02 Eh/α :
          :   maxmium RF displ.          1.0000000          :
          :   Hlow (freq-cutoff)         0.1000000E-01      :
          :   Hmax (freq-cutoff)         5.0000000          :
          :   S6 in model hess.         20.0000000          :
          ...................................................

generating ANC from exact Hessian ...
Using Lindh-Hessian (1995)
 Shifting diagonal of input Hessian by   8.956580790482010E-003
 Lowest  eigenvalues of input Hessian
    0.000000    0.000000    0.000000    0.000000    0.000000    0.000000
    0.010000    0.010334    0.010830    0.016679    0.017693    0.018711
    0.020970    0.022062    0.023939    0.028741    0.032171    0.033401
 Highest eigenvalues
    1.812066    1.902244    1.907996    2.015400    2.099761    2.164313
 

........................................................................
.............................. CYCLE    1 ..............................
........................................................................

 iter      E             dE          RMSdq      gap      omega  full diag
   1    -35.1058046 -0.351058E+02  0.666E-05    3.33       0.0  T
   2    -35.1058046 -0.372253E-10  0.436E-05    3.33     489.5  T
   3    -35.1058046 -0.293241E-10  0.230E-05    3.33     927.3  T
     SCC iter.                  ...        0 min,  0.004 sec
     gradient                   ...        0 min,  0.002 sec
 * total energy  :   -34.6005916 Eh     change       -0.1273435E-09 Eh
   gradient norm :     0.1200747 Eh/α   predicted     0.0000000E+00 (-100.00%)
   displ. norm   :     0.2732734 α      lambda       -0.1295866E-01
   maximum displ.:     0.1848600 α      in ANC's #8, #10, #14, ...

........................................................................
.............................. CYCLE    2 ..............................
........................................................................

 iter      E             dE          RMSdq      gap      omega  full diag
   1    -35.1284712 -0.351285E+02  0.253E-01    3.49       0.0  T
   2    -35.1286947 -0.223519E-03  0.152E-01    3.51       1.0  T
   3    -35.1286923  0.239641E-05  0.598E-02    3.50       1.0  T
   4    -35.1286974 -0.511822E-05  0.214E-02    3.50       1.0  T
   5    -35.1287047 -0.725551E-05  0.782E-03    3.50       2.7  T
   6    -35.1287054 -0.754834E-06  0.291E-03    3.51       7.3  T
   7    -35.1287055 -0.428925E-07  0.124E-03    3.50      17.2  T
   8    -35.1287055 -0.653552E-08  0.550E-04    3.51      38.7  T
   9    -35.1287055 -0.131630E-08  0.270E-04    3.51      78.9  T
     SCC iter.                  ...        0 min,  0.011 sec
     gradient                   ...        0 min,  0.002 sec
 * total energy  :   -34.6098359 Eh     change       -0.9244328E-02 Eh
   gradient norm :     0.0510394 Eh/α   predicted    -0.6968055E-02 ( -24.62%)
   displ. norm   :     0.3139211 α      lambda       -0.5094914E-02
   maximum displ.:     0.2599934 α      in ANC's #8, #10, #13, ...

........................................................................
.............................. CYCLE    3 ..............................
........................................................................

 iter      E             dE          RMSdq      gap      omega  full diag
   1    -35.1432678 -0.351433E+02  0.219E-01    3.64       0.0  T
   2    -35.1434189 -0.151138E-03  0.126E-01    3.66       1.0  T
   3    -35.1434192 -0.302524E-06  0.484E-02    3.65       1.0  T
   4    -35.1434191  0.123867E-06  0.176E-02    3.65       1.2  T
   5    -35.1434241 -0.496350E-05  0.539E-03    3.65       4.0  T
   6    -35.1434244 -0.305604E-06  0.173E-03    3.65      12.3  T
   7    -35.1434244 -0.131260E-07  0.756E-04    3.65      28.2  T
   8    -35.1434244 -0.554619E-08  0.356E-04    3.65      59.8  T
     SCC iter.                  ...        0 min,  0.025 sec
     gradient                   ...        0 min,  0.002 sec
 * total energy  :   -34.6126326 Eh     change       -0.2796688E-02 Eh
   gradient norm :     0.0133200 Eh/α   predicted    -0.2799940E-02 (   0.12%)
   displ. norm   :     0.1483281 α      lambda       -0.5737821E-03
   maximum displ.:     0.1371466 α      in ANC's #8, #18, #10, ...

........................................................................
.............................. CYCLE    4 ..............................
........................................................................

 iter      E             dE          RMSdq      gap      omega  full diag
   1    -35.1434364 -0.351434E+02  0.718E-02    3.66       0.0  T
   2    -35.1434387 -0.228376E-05  0.432E-02    3.66       1.0  T
   3    -35.1434344  0.432713E-05  0.172E-02    3.66       1.2  T
   4    -35.1434392 -0.481164E-05  0.351E-03    3.66       6.1  T
   5    -35.1434394 -0.171099E-06  0.118E-03    3.66      18.1  T
   6    -35.1434394 -0.926830E-08  0.635E-04    3.66      33.6  T
   7    -35.1434394 -0.886970E-09  0.207E-04    3.66     102.8  T
     SCC iter.                  ...        0 min,  0.008 sec
     gradient                   ...        0 min,  0.002 sec
 * total energy  :   -34.6129815 Eh     change       -0.3488807E-03 Eh
   gradient norm :     0.0062326 Eh/α   predicted    -0.2932416E-03 ( -15.95%)
   displ. norm   :     0.1180656 α      lambda       -0.2148680E-03
   maximum displ.:     0.1032388 α      in ANC's #8, #11, #3, ...

........................................................................
.............................. CYCLE    5 ..............................
........................................................................

 iter      E             dE          RMSdq      gap      omega  full diag
   1    -35.1431377 -0.351431E+02  0.538E-02    3.66       0.0  T
   2    -35.1431404 -0.277475E-05  0.323E-02    3.66       1.0  T
   3    -35.1431396  0.788182E-06  0.905E-03    3.66       2.4  T
   4    -35.1431403 -0.689696E-06  0.420E-03    3.66       5.1  T
   5    -35.1431407 -0.323828E-06  0.928E-04    3.66      23.0  T
   6    -35.1431407 -0.621380E-08  0.470E-04    3.66      45.3  T
     SCC iter.                  ...        0 min,  0.007 sec
     gradient                   ...        0 min,  0.002 sec
 * total energy  :   -34.6130845 Eh     change       -0.1029790E-03 Eh
   gradient norm :     0.0035242 Eh/α   predicted    -0.1089342E-03 (   5.78%)
   displ. norm   :     0.0373137 α      lambda       -0.4482987E-04
   maximum displ.:     0.0189347 α      in ANC's #8, #3, #2, ...

........................................................................
.............................. CYCLE    6 ..............................
........................................................................

 iter      E             dE          RMSdq      gap      omega  full diag
   1    -35.1435984 -0.351436E+02  0.207E-02    3.66       0.0  T
   2    -35.1435987 -0.296955E-06  0.123E-02    3.66       1.7  T
   3    -35.1435983  0.377050E-06  0.571E-03    3.66       3.7  T
   4    -35.1435987 -0.438296E-06  0.166E-03    3.66      12.9  T
   5    -35.1435988 -0.386587E-07  0.425E-04    3.66      50.2  T
   6    -35.1435988 -0.942315E-09  0.226E-04    3.66      94.4  T
     SCC iter.                  ...        0 min,  0.023 sec
     gradient                   ...        0 min,  0.003 sec
 * total energy  :   -34.6131146 Eh     change       -0.3017786E-04 Eh
   gradient norm :     0.0018585 Eh/α   predicted    -0.2246313E-04 ( -25.56%)
   displ. norm   :     0.0720982 α      lambda       -0.2428312E-04
   maximum displ.:     0.0397863 α      in ANC's #4, #3, #2, ...

........................................................................
.............................. CYCLE    7 ..............................
........................................................................

 iter      E             dE          RMSdq      gap      omega  full diag
   1    -35.1440910 -0.351441E+02  0.275E-02    3.67       0.0  T
   2    -35.1440914 -0.355624E-06  0.162E-02    3.67       1.3  T
   3    -35.1440905  0.928364E-06  0.854E-03    3.67       2.5  T
   4    -35.1440916 -0.109334E-05  0.164E-03    3.67      13.0  T
   5    -35.1440916 -0.323755E-07  0.555E-04    3.67      38.4  T
   6    -35.1440916 -0.118788E-08  0.283E-04    3.67      75.3  T
     SCC iter.                  ...        0 min,  0.007 sec
     gradient                   ...        0 min,  0.002 sec
 * total energy  :   -34.6131354 Eh     change       -0.2077603E-04 Eh
   gradient norm :     0.0015339 Eh/α   predicted    -0.1217780E-04 ( -41.39%)
   displ. norm   :     0.0636857 α      lambda       -0.1299021E-04
   maximum displ.:     0.0414672 α      in ANC's #4, #3, #2, ...

........................................................................
.............................. CYCLE    8 ..............................
........................................................................

 iter      E             dE          RMSdq      gap      omega  full diag
   1    -35.1440071 -0.351440E+02  0.224E-02    3.67       0.0  T
   2    -35.1440072 -0.611968E-07  0.133E-02    3.67       1.6  T
   3    -35.1440070  0.177025E-06  0.335E-03    3.67       6.4  T
   4    -35.1440072 -0.213036E-06  0.630E-04    3.67      33.8  T
   5    -35.1440072 -0.323092E-08  0.358E-04    3.67      59.5  T
     SCC iter.                  ...        0 min,  0.072 sec
     gradient                   ...        0 min,  0.002 sec
 * total energy  :   -34.6131526 Eh     change       -0.1713361E-04 Eh
   gradient norm :     0.0015686 Eh/α   predicted    -0.6508189E-05 ( -62.02%)
   displ. norm   :     0.2528467 α      lambda       -0.4651623E-04
   maximum displ.:     0.1738714 α      in ANC's #4, #3, #2, ...

........................................................................
.............................. CYCLE    9 ..............................
........................................................................

 iter      E             dE          RMSdq      gap      omega  full diag
   1    -35.1428710 -0.351429E+02  0.890E-02    3.67       0.0  T
   2    -35.1428722 -0.117062E-05  0.526E-02    3.67       1.0  T
   3    -35.1428702  0.192961E-05  0.109E-02    3.67       1.9  T
   4    -35.1428727 -0.248707E-05  0.230E-03    3.67       9.3  T
   5    -35.1428728 -0.286527E-07  0.145E-03    3.67      14.7  T
   6    -35.1428728 -0.608554E-08  0.689E-04    3.67      30.9  T
   7    -35.1428728 -0.486191E-08  0.168E-04    3.67     126.9  T
     SCC iter.                  ...        0 min,  0.008 sec
     gradient                   ...        0 min,  0.002 sec
 * total energy  :   -34.6131961 Eh     change       -0.4355670E-04 Eh
   gradient norm :     0.0031755 Eh/α   predicted    -0.2391998E-04 ( -45.08%)
   displ. norm   :     0.0701007 α      lambda       -0.2246288E-04
   maximum displ.:     0.0519262 α      in ANC's #4, #2, #3, ...

........................................................................
.............................. CYCLE   10 ..............................
........................................................................

 iter      E             dE          RMSdq      gap      omega  full diag
   1    -35.1431751 -0.351432E+02  0.273E-02    3.68       0.0  T
   2    -35.1431752 -0.132834E-06  0.161E-02    3.68       1.3  T
   3    -35.1431750  0.170390E-06  0.305E-03    3.68       7.0  T
   4    -35.1431752 -0.225658E-06  0.672E-04    3.68      31.7  T
   5    -35.1431752 -0.277411E-08  0.385E-04    3.68      55.3  T
     SCC iter.                  ...        0 min,  0.005 sec
     gradient                   ...        0 min,  0.002 sec
 * total energy  :   -34.6132144 Eh     change       -0.1829554E-04 Eh
   gradient norm :     0.0025388 Eh/α   predicted    -0.1128715E-04 ( -38.31%)
   displ. norm   :     0.1678027 α      lambda       -0.4111130E-04
   maximum displ.:     0.1289454 α      in ANC's #4, #2, #3, ...

........................................................................
.............................. CYCLE   11 ..............................
........................................................................

 iter      E             dE          RMSdq      gap      omega  full diag
   1    -35.1434116 -0.351434E+02  0.610E-02    3.68       0.0  T
   2    -35.1434120 -0.468687E-06  0.360E-02    3.68       1.0  T
   3    -35.1434111  0.927212E-06  0.701E-03    3.68       3.0  T
   4    -35.1434124 -0.123589E-05  0.155E-03    3.68      13.8  T
   5    -35.1434124  0.220665E-08  0.993E-04    3.68      21.5  T
   6    -35.1434124 -0.864448E-08  0.294E-04    3.68      72.5  T
     SCC iter.                  ...        0 min,  0.007 sec
     gradient                   ...        0 min,  0.002 sec
 * total energy  :   -34.6132442 Eh     change       -0.2981212E-04 Eh
   gradient norm :     0.0020139 Eh/α   predicted    -0.2114024E-04 ( -29.09%)
   displ. norm   :     0.1301344 α      lambda       -0.2882256E-04
   maximum displ.:     0.1092584 α      in ANC's #4, #2, #3, ...

........................................................................
.............................. CYCLE   12 ..............................
........................................................................

 iter      E             dE          RMSdq      gap      omega  full diag
   1    -35.1437101 -0.351437E+02  0.498E-02    3.68       0.0  T
   2    -35.1437105 -0.408794E-06  0.294E-02    3.68       1.0  T
   3    -35.1437097  0.801944E-06  0.656E-03    3.68       3.3  T
   4    -35.1437107 -0.105434E-05  0.141E-03    3.68      15.2  T
   5    -35.1437107 -0.341025E-08  0.893E-04    3.68      23.9  T
   6    -35.1437108 -0.349969E-08  0.326E-04    3.68      65.3  T
     SCC iter.                  ...        0 min,  0.006 sec
     gradient                   ...        0 min,  0.002 sec
 * total energy  :   -34.6132658 Eh     change       -0.2152997E-04 Eh
   gradient norm :     0.0016544 Eh/α   predicted    -0.1465740E-04 ( -31.92%)
   displ. norm   :     0.2120493 α      lambda       -0.2757478E-04
   maximum displ.:     0.1848056 α      in ANC's #4, #2, #1, ...

........................................................................
.............................. CYCLE   13 ..............................
........................................................................

 iter      E             dE          RMSdq      gap      omega  full diag
   1    -35.1438421 -0.351438E+02  0.802E-02    3.68       0.0  T
   2    -35.1438432 -0.108559E-05  0.474E-02    3.68       1.0  T
   3    -35.1438400  0.319206E-05  0.134E-02    3.68       1.6  T
   4    -35.1438440 -0.396568E-05  0.275E-03    3.68       7.8  T
   5    -35.1438440 -0.375007E-07  0.172E-03    3.68      12.4  T
   6    -35.1438440 -0.131368E-07  0.438E-04    3.68      48.7  T
   7    -35.1438440 -0.197631E-08  0.138E-04    3.68     154.1  T
     SCC iter.                  ...        0 min,  0.006 sec
     gradient                   ...        0 min,  0.002 sec
 * total energy  :   -34.6132950 Eh     change       -0.2920253E-04 Eh
   gradient norm :     0.0021027 Eh/α   predicted    -0.1406683E-04 ( -51.83%)
   displ. norm   :     0.1426851 α      lambda       -0.4023071E-04
   maximum displ.:     0.1202057 α      in ANC's #4, #1, #3, ...

........................................................................
.............................. CYCLE   14 ..............................
........................................................................

 iter      E             dE          RMSdq      gap      omega  full diag
   1    -35.1447396 -0.351447E+02  0.612E-02    3.68       0.0  T
   2    -35.1447404 -0.794006E-06  0.361E-02    3.68       1.0  T
   3    -35.1447384  0.205156E-05  0.109E-02    3.68       2.0  T
   4    -35.1447409 -0.253354E-05  0.235E-03    3.68       9.1  T
   5    -35.1447409 -0.378451E-07  0.133E-03    3.68      16.0  T
   6    -35.1447409 -0.687780E-08  0.539E-04    3.68      39.6  T
   7    -35.1447409 -0.164955E-08  0.142E-04    3.68     150.2  T
     SCC iter.                  ...        0 min,  0.008 sec
     gradient                   ...        0 min,  0.003 sec
 * total energy  :   -34.6133250 Eh     change       -0.2999698E-04 Eh
   gradient norm :     0.0030309 Eh/α   predicted    -0.2052651E-04 ( -31.57%)
   displ. norm   :     0.5938373 α      lambda       -0.1292512E-03
   maximum displ.:     0.5171804 α      in ANC's #4, #1, #3, ...

........................................................................
.............................. CYCLE   15 ..............................
........................................................................

 iter      E             dE          RMSdq      gap      omega  full diag
   1    -35.1376109 -0.351376E+02  0.250E-01    3.64       0.0  T
   2    -35.1376343 -0.233336E-04  0.146E-01    3.64       1.0  T
   3    -35.1376106  0.236785E-04  0.417E-02    3.63       1.0  T
   4    -35.1376417 -0.310883E-04  0.941E-03    3.64       2.3  T
   5    -35.1376424 -0.759513E-06  0.568E-03    3.64       3.8  T
   6    -35.1376426 -0.134191E-06  0.304E-03    3.64       7.0  T
   7    -35.1376426 -0.466562E-07  0.750E-04    3.64      28.4  T
   8    -35.1376426 -0.967508E-08  0.235E-04    3.64      90.8  T
     SCC iter.                  ...        0 min,  0.009 sec
     gradient                   ...        0 min,  0.002 sec
 * total energy  :   -34.6131740 Eh     change        0.1509732E-03 Eh
   gradient norm :     0.0206613 Eh/α   predicted    -0.8741608E-04 (-157.90%)
   displ. norm   :     0.2763527 α      lambda       -0.6947904E-03
   maximum displ.:     0.2401255 α      in ANC's #4, #2, #1, ...

........................................................................
.............................. CYCLE   16 ..............................
........................................................................

 iter      E             dE          RMSdq      gap      omega  full diag
   1    -35.1451738 -0.351452E+02  0.129E-01    3.69       0.0  T
   2    -35.1451953 -0.214747E-04  0.757E-02    3.69       1.0  T
   3    -35.1451899  0.539779E-05  0.274E-02    3.69       1.0  T
   4    -35.1451976 -0.774276E-05  0.822E-03    3.69       2.6  T
   5    -35.1451985 -0.911676E-06  0.322E-03    3.69       6.6  T
   6    -35.1451986 -0.710882E-07  0.193E-03    3.69      11.0  T
   7    -35.1451986 -0.891087E-08  0.705E-04    3.69      30.3  T
   8    -35.1451986 -0.665989E-08  0.199E-04    3.69     107.0  T
     SCC iter.                  ...        0 min,  0.009 sec
     gradient                   ...        0 min,  0.003 sec
 * total energy  :   -34.6134156 Eh     change       -0.2416135E-03 Eh
   gradient norm :     0.0050096 Eh/α   predicted    -0.3739292E-03 (  54.76%)
   displ. norm   :     0.1111052 α      lambda       -0.6309708E-04
   maximum displ.:     0.0726890 α      in ANC's #4, #1, #3, ...

........................................................................
.............................. CYCLE   17 ..............................
........................................................................

 iter      E             dE          RMSdq      gap      omega  full diag
   1    -35.1447415 -0.351447E+02  0.516E-02    3.68       0.0  T
   2    -35.1447430 -0.146196E-05  0.302E-02    3.68       1.0  T
   3    -35.1447425  0.552772E-06  0.671E-03    3.68       3.2  T
   4    -35.1447432 -0.736574E-06  0.210E-03    3.68      10.2  T
   5    -35.1447433 -0.796430E-07  0.873E-04    3.68      24.4  T
   6    -35.1447433  0.403944E-09  0.518E-04    3.68      41.1  T
     SCC iter.                  ...        0 min,  0.007 sec
     gradient                   ...        0 min,  0.002 sec
 * total energy  :   -34.6134694 Eh     change       -0.5379626E-04 Eh
   gradient norm :     0.0026784 Eh/α   predicted    -0.3194102E-04 ( -40.63%)
   displ. norm   :     0.5703434 α      lambda       -0.2155182E-03
   maximum displ.:     0.4004312 α      in ANC's #4, #1, #3, ...

........................................................................
.............................. CYCLE   18 ..............................
........................................................................

 iter      E             dE          RMSdq      gap      omega  full diag
   1    -35.1382851 -0.351383E+02  0.251E-01    3.64       0.0  T
   2    -35.1383044 -0.192937E-04  0.147E-01    3.64       1.0  T
   3    -35.1382849  0.194274E-04  0.378E-02    3.63       1.0  T
   4    -35.1383106 -0.256508E-04  0.874E-03    3.63       2.4  T
   5    -35.1383113 -0.662696E-06  0.528E-03    3.63       4.0  T
   6    -35.1383114 -0.121857E-06  0.272E-03    3.63       7.8  T
   7    -35.1383114 -0.345998E-07  0.720E-04    3.63      29.6  T
   8    -35.1383114 -0.916033E-08  0.200E-04    3.63     106.4  T
     SCC iter.                  ...        0 min,  0.009 sec
     gradient                   ...        0 min,  0.002 sec
 * total energy  :   -34.6134733 Eh     change       -0.3883582E-05 Eh
   gradient norm :     0.0184465 Eh/α   predicted    -0.1428115E-03 (3577.31%)
   displ. norm   :     0.2354913 α      lambda       -0.3220627E-03
   maximum displ.:     0.1938522 α      in ANC's #4, #1, #3, ...

........................................................................
.............................. CYCLE   19 ..............................
........................................................................

 iter      E             dE          RMSdq      gap      omega  full diag
   1    -35.1439714 -0.351440E+02  0.110E-01    3.67       0.0  T
   2    -35.1439812 -0.978662E-05  0.644E-02    3.67       1.0  T
   3    -35.1439770  0.417008E-05  0.228E-02    3.68       1.0  T
   4    -35.1439836 -0.660125E-05  0.394E-03    3.68       5.4  T
   5    -35.1439837 -0.122400E-06  0.226E-03    3.68       9.4  T
   6    -35.1439837 -0.168898E-07  0.123E-03    3.68      17.4  T
   7    -35.1439837 -0.379129E-08  0.444E-04    3.68      48.0  T
   8    -35.1439837 -0.298376E-08  0.119E-04    3.68     179.0  T
     SCC iter.                  ...        0 min,  0.009 sec
     gradient                   ...        0 min,  0.002 sec
 * total energy  :   -34.6135970 Eh     change       -0.1237141E-03 Eh
   gradient norm :     0.0035443 Eh/α   predicted    -0.1699649E-03 (  37.39%)
   displ. norm   :     0.1484328 α      lambda       -0.5861324E-04
   maximum displ.:     0.0947097 α      in ANC's #1, #4, #3, ...

........................................................................
.............................. CYCLE   20 ..............................
........................................................................

 iter      E             dE          RMSdq      gap      omega  full diag
   1    -35.1439683 -0.351440E+02  0.615E-02    3.67       0.0  T
   2    -35.1439689 -0.574268E-06  0.361E-02    3.67       1.0  T
   3    -35.1439674  0.146707E-05  0.940E-03    3.67       2.3  T
   4    -35.1439692 -0.177914E-05  0.188E-03    3.67      11.3  T
   5    -35.1439692 -0.228183E-07  0.115E-03    3.67      18.6  T
   6    -35.1439692 -0.903119E-08  0.469E-04    3.67      45.5  T
   7    -35.1439692 -0.771074E-09  0.128E-04    3.67     166.5  T
     SCC iter.                  ...        0 min,  0.008 sec
     gradient                   ...        0 min,  0.002 sec
 * total energy  :   -34.6136526 Eh     change       -0.5558000E-04 Eh
   gradient norm :     0.0031782 Eh/α   predicted    -0.2995464E-04 ( -46.11%)
   displ. norm   :     0.7287519 α      lambda       -0.2775956E-03
   maximum displ.:     0.4892635 α      in ANC's #1, #4, #3, ...
 * RMSD in coord.:     0.5261567 α      energy gain  -0.1306097E-01 Eh

generating ANC from exact Hessian ...
Using Lindh-Hessian (1995)
 Shifting diagonal of input Hessian by   8.810403614182071E-003
 Lowest  eigenvalues of input Hessian
    0.000000    0.000000    0.000000    0.000000    0.000000    0.000000
    0.010000    0.010065    0.010978    0.016134    0.017535    0.019546
    0.021605    0.022498    0.024557    0.028957    0.032944    0.035186
 Highest eigenvalues
    1.822473    1.899758    1.906563    2.016394    2.091933    2.365408
 

........................................................................
.............................. CYCLE   21 ..............................
........................................................................

 iter      E             dE          RMSdq      gap      omega  full diag
   1    -35.1383171 -0.351383E+02  0.308E-01    3.63       0.0  T
   2    -35.1383318 -0.146878E-04  0.181E-01    3.62       1.0  T
   3    -35.1383139  0.178443E-04  0.339E-02    3.61       1.0  T
   4    -35.1383380 -0.241077E-04  0.820E-03    3.62       2.6  T
   5    -35.1383384 -0.351327E-06  0.538E-03    3.62       4.0  T
   6    -35.1383385 -0.157059E-06  0.231E-03    3.62       9.2  T
   7    -35.1383386 -0.313175E-07  0.786E-04    3.62      27.1  T
   8    -35.1383386 -0.852673E-08  0.222E-04    3.62      96.1  T
     SCC iter.                  ...        0 min,  0.009 sec
     gradient                   ...        0 min,  0.002 sec
 * total energy  :   -34.6137688 Eh     change       -0.1162245E-03 Eh
   gradient norm :     0.0111244 Eh/α   predicted     0.0000000E+00 (-100.00%)
   displ. norm   :     0.0531364 α      lambda       -0.2166379E-03
   maximum displ.:     0.0357899 α      in ANC's #1, #5, #18, ...

........................................................................
.............................. CYCLE   22 ..............................
........................................................................

 iter      E             dE          RMSdq      gap      omega  full diag
   1    -35.1439279 -0.351439E+02  0.382E-02    3.65       0.0  T
   2    -35.1439309 -0.304456E-05  0.238E-02    3.65       1.0  T
   3    -35.1439304  0.509505E-06  0.133E-02    3.65       1.6  T
   4    -35.1439318 -0.142974E-05  0.447E-03    3.65       4.8  T
   5    -35.1439321 -0.287420E-06  0.906E-04    3.65      23.5  T
   6    -35.1439321 -0.643816E-09  0.591E-04    3.65      36.1  T
     SCC iter.                  ...        0 min,  0.006 sec
     gradient                   ...        0 min,  0.002 sec
 * total energy  :   -34.6139112 Eh     change       -0.1423744E-03 Eh
   gradient norm :     0.0027028 Eh/α   predicted    -0.1118309E-03 ( -21.45%)
   displ. norm   :     0.0649054 α      lambda       -0.5825694E-04
   maximum displ.:     0.0482114 α      in ANC's #1, #5, #2, ...

........................................................................
.............................. CYCLE   23 ..............................
........................................................................

 iter      E             dE          RMSdq      gap      omega  full diag
   1    -35.1459124 -0.351459E+02  0.314E-02    3.65       0.0  T
   2    -35.1459134 -0.106965E-05  0.188E-02    3.65       1.1  T
   3    -35.1459130  0.440783E-06  0.765E-03    3.66       2.8  T
   4    -35.1459137 -0.702646E-06  0.167E-03    3.66      12.8  T
   5    -35.1459137 -0.386292E-07  0.594E-04    3.65      35.9  T
   6    -35.1459138 -0.234498E-08  0.377E-04    3.66      56.6  T
     SCC iter.                  ...        0 min,  0.007 sec
     gradient                   ...        0 min,  0.002 sec
 * total energy  :   -34.6139535 Eh     change       -0.4229453E-04 Eh
   gradient norm :     0.0021295 Eh/α   predicted    -0.2926723E-04 ( -30.80%)
   displ. norm   :     0.1006577 α      lambda       -0.5377428E-04
   maximum displ.:     0.0742538 α      in ANC's #1, #5, #2, ...

........................................................................
.............................. CYCLE   24 ..............................
........................................................................

 iter      E             dE          RMSdq      gap      omega  full diag
   1    -35.1465851 -0.351466E+02  0.452E-02    3.66       0.0  T
   2    -35.1465864 -0.128061E-05  0.266E-02    3.66       1.0  T
   3    -35.1465859  0.552868E-06  0.714E-03    3.66       3.0  T
   4    -35.1465866 -0.751474E-06  0.145E-03    3.66      14.7  T
   5    -35.1465867 -0.356859E-07  0.619E-04    3.66      34.4  T
   6    -35.1465867 -0.227739E-08  0.385E-04    3.66      55.4  T
     SCC iter.                  ...        0 min,  0.007 sec
     gradient                   ...        0 min,  0.002 sec
 * total energy  :   -34.6139976 Eh     change       -0.4411906E-04 Eh
   gradient norm :     0.0027886 Eh/α   predicted    -0.2715967E-04 ( -38.44%)
   displ. norm   :     0.1657539 α      lambda       -0.7693921E-04
   maximum displ.:     0.1159759 α      in ANC's #1, #5, #2, ...

........................................................................
.............................. CYCLE   25 ..............................
........................................................................

 iter      E             dE          RMSdq      gap      omega  full diag
   1    -35.1460353 -0.351460E+02  0.737E-02    3.65       0.0  T
   2    -35.1460371 -0.184617E-05  0.432E-02    3.65       1.0  T
   3    -35.1460365  0.664854E-06  0.735E-03    3.65       2.9  T
   4    -35.1460374 -0.889920E-06  0.233E-03    3.65       9.1  T
   5    -35.1460374 -0.875483E-07  0.102E-03    3.65      20.9  T
   6    -35.1460374 -0.272383E-08  0.639E-04    3.65      33.4  T
   7    -35.1460374 -0.237348E-08  0.214E-04    3.65      99.5  T
     SCC iter.                  ...        0 min,  0.008 sec
     gradient                   ...        0 min,  0.002 sec
 * total energy  :   -34.6140627 Eh     change       -0.6508931E-04 Eh
   gradient norm :     0.0034213 Eh/α   predicted    -0.3960860E-04 ( -39.15%)
   displ. norm   :     0.2525094 α      lambda       -0.1045302E-03
   maximum displ.:     0.1743010 α      in ANC's #1, #5, #6, ...

........................................................................
.............................. CYCLE   26 ..............................
........................................................................

 iter      E             dE          RMSdq      gap      omega  full diag
   1    -35.1441361 -0.351441E+02  0.114E-01    3.64       0.0  T
   2    -35.1441381 -0.204276E-05  0.667E-02    3.64       1.0  T
   3    -35.1441373  0.831965E-06  0.795E-03    3.64       2.7  T
   4    -35.1441386 -0.128468E-05  0.276E-03    3.64       7.7  T
   5    -35.1441387 -0.932104E-07  0.136E-03    3.64      15.7  T
   6    -35.1441387  0.274840E-08  0.814E-04    3.64      26.2  T
   7    -35.1441387 -0.740979E-08  0.197E-04    3.64     108.5  T
     SCC iter.                  ...        0 min,  0.010 sec
     gradient                   ...        0 min,  0.002 sec
 * total energy  :   -34.6141423 Eh     change       -0.7963886E-04 Eh
   gradient norm :     0.0052769 Eh/α   predicted    -0.5560052E-04 ( -30.18%)
   displ. norm   :     0.2080713 α      lambda       -0.7482304E-04
   maximum displ.:     0.1475160 α      in ANC's #1, #5, #6, ...

........................................................................
.............................. CYCLE   27 ..............................
........................................................................

 iter      E             dE          RMSdq      gap      omega  full diag
   1    -35.1429123 -0.351429E+02  0.973E-02    3.62       0.0  T
   2    -35.1429131 -0.831285E-06  0.570E-02    3.62       1.0  T
   3    -35.1429124  0.663086E-06  0.685E-03    3.62       3.1  T
   4    -35.1429135 -0.103478E-05  0.178E-03    3.62      11.9  T
   5    -35.1429135 -0.110666E-07  0.977E-04    3.62      21.8  T
   6    -35.1429135 -0.322155E-08  0.375E-04    3.62      56.9  T
     SCC iter.                  ...        0 min,  0.006 sec
     gradient                   ...        0 min,  0.002 sec
 * total energy  :   -34.6141981 Eh     change       -0.5583560E-04 Eh
   gradient norm :     0.0057776 Eh/α   predicted    -0.3903880E-04 ( -30.08%)
   displ. norm   :     0.1590738 α      lambda       -0.6907991E-04
   maximum displ.:     0.1193353 α      in ANC's #1, #5, #6, ...

........................................................................
.............................. CYCLE   28 ..............................
........................................................................

 iter      E             dE          RMSdq      gap      omega  full diag
   1    -35.1432463 -0.351432E+02  0.773E-02    3.62       0.0  T
   2    -35.1432476 -0.126195E-05  0.453E-02    3.62       1.0  T
   3    -35.1432469  0.688856E-06  0.710E-03    3.61       3.0  T
   4    -35.1432478 -0.852662E-06  0.229E-03    3.61       9.3  T
   5    -35.1432479 -0.802679E-07  0.991E-04    3.62      21.5  T
   6    -35.1432479 -0.613105E-08  0.510E-04    3.62      41.8  T
     SCC iter.                  ...        0 min,  0.007 sec
     gradient                   ...        0 min,  0.002 sec
 * total energy  :   -34.6142503 Eh     change       -0.5213606E-04 Eh
   gradient norm :     0.0034393 Eh/α   predicted    -0.3541830E-04 ( -32.07%)
   displ. norm   :     0.1583699 α      lambda       -0.5684543E-04
   maximum displ.:     0.1225765 α      in ANC's #1, #5, #6, ...

........................................................................
.............................. CYCLE   29 ..............................
........................................................................

 iter      E             dE          RMSdq      gap      omega  full diag
   1    -35.1442295 -0.351442E+02  0.752E-02    3.62       0.0  T
   2    -35.1442303 -0.761026E-06  0.441E-02    3.61       1.0  T
   3    -35.1442301  0.172284E-06  0.384E-03    3.61       5.6  T
   4    -35.1442304 -0.286174E-06  0.149E-03    3.61      14.3  T
   5    -35.1442304 -0.349803E-07  0.637E-04    3.61      33.5  T
   6    -35.1442304 -0.338794E-09  0.265E-04    3.61      80.5  T
     SCC iter.                  ...        0 min,  0.006 sec
     gradient                   ...        0 min,  0.002 sec
 * total energy  :   -34.6142914 Eh     change       -0.4116600E-04 Eh
   gradient norm :     0.0020142 Eh/α   predicted    -0.2913625E-04 ( -29.22%)
   displ. norm   :     0.1430327 α      lambda       -0.3421772E-04
   maximum displ.:     0.1115705 α      in ANC's #1, #5, #6, ...

........................................................................
.............................. CYCLE   30 ..............................
........................................................................

 iter      E             dE          RMSdq      gap      omega  full diag
   1    -35.1448771 -0.351449E+02  0.633E-02    3.61       0.0  T
   2    -35.1448774 -0.329183E-06  0.372E-02    3.61       1.0  T
   3    -35.1448771  0.308035E-06  0.464E-03    3.61       4.6  T
   4    -35.1448775 -0.411451E-06  0.122E-03    3.61      17.5  T
   5    -35.1448776 -0.108150E-07  0.622E-04    3.61      34.3  T
   6    -35.1448776 -0.249867E-08  0.334E-04    3.61      63.8  T
     SCC iter.                  ...        0 min,  0.007 sec
     gradient                   ...        0 min,  0.002 sec
 * total energy  :   -34.6143172 Eh     change       -0.2576143E-04 Eh
   gradient norm :     0.0023644 Eh/α   predicted    -0.1745973E-04 ( -32.23%)
   displ. norm   :     0.1164419 α      lambda       -0.2409108E-04
   maximum displ.:     0.0923160 α      in ANC's #1, #3, #5, ...

........................................................................
.............................. CYCLE   31 ..............................
........................................................................

 iter      E             dE          RMSdq      gap      omega  full diag
   1    -35.1453130 -0.351453E+02  0.493E-02    3.60       0.0  T
   2    -35.1453133 -0.300674E-06  0.290E-02    3.60       1.0  T
   3    -35.1453124  0.901011E-06  0.755E-03    3.60       2.8  T
   4    -35.1453134 -0.102104E-05  0.129E-03    3.60      16.6  T
   5    -35.1453134 -0.219023E-07  0.514E-04    3.60      41.5  T
   6    -35.1453134 -0.143446E-08  0.284E-04    3.60      75.0  T
     SCC iter.                  ...        0 min,  0.007 sec
     gradient                   ...        0 min,  0.002 sec
 * total energy  :   -34.6143366 Eh     change       -0.1942042E-04 Eh
   gradient norm :     0.0018724 Eh/α   predicted    -0.1221235E-04 ( -37.12%)
   displ. norm   :     0.1506821 α      lambda       -0.1996240E-04
   maximum displ.:     0.1186739 α      in ANC's #1, #3, #5, ...

........................................................................
.............................. CYCLE   32 ..............................
........................................................................

 iter      E             dE          RMSdq      gap      omega  full diag
   1    -35.1456321 -0.351456E+02  0.606E-02    3.60       0.0  T
   2    -35.1456327 -0.596172E-06  0.358E-02    3.60       1.0  T
   3    -35.1456313  0.137389E-05  0.945E-03    3.60       2.3  T
   4    -35.1456328 -0.157065E-05  0.175E-03    3.60      12.2  T
   5    -35.1456329 -0.444290E-07  0.648E-04    3.60      32.9  T
   6    -35.1456329 -0.314979E-08  0.341E-04    3.60      62.5  T
     SCC iter.                  ...        0 min,  0.007 sec
     gradient                   ...        0 min,  0.002 sec
 * total energy  :   -34.6143592 Eh     change       -0.2256949E-04 Eh
   gradient norm :     0.0015715 Eh/α   predicted    -0.1008335E-04 ( -55.32%)
   displ. norm   :     0.1146550 α      lambda       -0.1346943E-04
   maximum displ.:     0.0921914 α      in ANC's #1, #3, #5, ...

........................................................................
.............................. CYCLE   33 ..............................
........................................................................

 iter      E             dE          RMSdq      gap      omega  full diag
   1    -35.1452302 -0.351452E+02  0.478E-02    3.58       0.0  T
   2    -35.1452307 -0.467854E-06  0.282E-02    3.58       1.0  T
   3    -35.1452299  0.862171E-06  0.738E-03    3.59       2.9  T
   4    -35.1452308 -0.945719E-06  0.171E-03    3.58      12.5  T
   5    -35.1452308 -0.453004E-07  0.447E-04    3.58      47.7  T
   6    -35.1452308 -0.860183E-09  0.262E-04    3.58      81.4  T
     SCC iter.                  ...        0 min,  0.006 sec
     gradient                   ...        0 min,  0.002 sec
 * total energy  :   -34.6143748 Eh     change       -0.1561284E-04 Eh
   gradient norm :     0.0012382 Eh/α   predicted    -0.6775265E-05 ( -56.60%)
   displ. norm   :     0.0988523 α      lambda       -0.1175102E-04
   maximum displ.:     0.0743333 α      in ANC's #1, #2, #3, ...

........................................................................
.............................. CYCLE   34 ..............................
........................................................................

 iter      E             dE          RMSdq      gap      omega  full diag
   1    -35.1456168 -0.351456E+02  0.421E-02    3.58       0.0  T
   2    -35.1456169 -0.109828E-06  0.247E-02    3.58       1.0  T
   3    -35.1456168  0.146982E-06  0.323E-03    3.58       6.6  T
   4    -35.1456170 -0.187021E-06  0.679E-04    3.58      31.4  T
   5    -35.1456170 -0.336677E-08  0.351E-04    3.58      60.7  T
     SCC iter.                  ...        0 min,  0.006 sec
     gradient                   ...        0 min,  0.003 sec
 * total energy  :   -34.6143879 Eh     change       -0.1309582E-04 Eh
   gradient norm :     0.0012009 Eh/α   predicted    -0.5901266E-05 ( -54.94%)
   displ. norm   :     0.1046091 α      lambda       -0.1080685E-04
   maximum displ.:     0.0833425 α      in ANC's #1, #2, #3, ...

........................................................................
.............................. CYCLE   35 ..............................
........................................................................

 iter      E             dE          RMSdq      gap      omega  full diag
   1    -35.1450069 -0.351450E+02  0.443E-02    3.58       0.0  T
   2    -35.1450070 -0.125220E-06  0.261E-02    3.57       1.0  T
   3    -35.1450066  0.409265E-06  0.499E-03    3.57       4.3  T
   4    -35.1450071 -0.471007E-06  0.847E-04    3.57      25.2  T
   5    -35.1450071 -0.602527E-08  0.363E-04    3.57      58.8  T
     SCC iter.                  ...        0 min,  0.005 sec
     gradient                   ...        0 min,  0.002 sec
 * total energy  :   -34.6144000 Eh     change       -0.1205822E-04 Eh
   gradient norm :     0.0007024 Eh/α   predicted    -0.5434428E-05 ( -54.93%)
   displ. norm   :     0.0817236 α      lambda       -0.9216549E-05
   maximum displ.:     0.0584190 α      in ANC's #1, #2, #3, ...

........................................................................
.............................. CYCLE   36 ..............................
........................................................................

 iter      E             dE          RMSdq      gap      omega  full diag
   1    -35.1452391 -0.351452E+02  0.348E-02    3.57       0.0  T
   2    -35.1452392 -0.721001E-07  0.205E-02    3.57       1.0  T
   3    -35.1452388  0.428373E-06  0.510E-03    3.57       4.2  T
   4    -35.1452392 -0.483606E-06  0.585E-04    3.57      36.5  T
   5    -35.1452392 -0.219415E-08  0.298E-04    3.57      71.4  T
     SCC iter.                  ...        0 min,  0.005 sec
     gradient                   ...        0 min,  0.002 sec
 * total energy  :   -34.6144107 Eh     change       -0.1075788E-04 Eh
   gradient norm :     0.0007959 Eh/α   predicted    -0.4622718E-05 ( -57.03%)
   displ. norm   :     0.0834971 α      lambda       -0.8408684E-05
   maximum displ.:     0.0572779 α      in ANC's #1, #2, #5, ...

........................................................................
.............................. CYCLE   37 ..............................
........................................................................

 iter      E             dE          RMSdq      gap      omega  full diag
   1    -35.1453008 -0.351453E+02  0.330E-02    3.57       0.0  T
   2    -35.1453009 -0.577752E-07  0.194E-02    3.57       1.1  T
   3    -35.1453006  0.249716E-06  0.394E-03    3.57       5.4  T
   4    -35.1453009 -0.287741E-06  0.606E-04    3.57      35.2  T
   5    -35.1453009 -0.291513E-08  0.303E-04    3.57      70.4  T
     SCC iter.                  ...        0 min,  0.007 sec
     gradient                   ...        0 min,  0.002 sec
 * total energy  :   -34.6144214 Eh     change       -0.1070151E-04 Eh
   gradient norm :     0.0008295 Eh/α   predicted    -0.4219932E-05 ( -60.57%)
   displ. norm   :     0.0955149 α      lambda       -0.8693638E-05
   maximum displ.:     0.0636195 α      in ANC's #1, #2, #5, ...

........................................................................
.............................. CYCLE   38 ..............................
........................................................................

 iter      E             dE          RMSdq      gap      omega  full diag
   1    -35.1451179 -0.351451E+02  0.380E-02    3.56       0.0  T
   2    -35.1451180 -0.777564E-07  0.223E-02    3.56       1.0  T
   3    -35.1451177  0.258770E-06  0.410E-03    3.56       5.2  T
   4    -35.1451180 -0.304498E-06  0.687E-04    3.56      31.0  T
   5    -35.1451180 -0.345593E-08  0.370E-04    3.56      57.6  T
     SCC iter.                  ...        0 min,  0.006 sec
     gradient                   ...        0 min,  0.002 sec
 * total energy  :   -34.6144315 Eh     change       -0.1010204E-04 Eh
   gradient norm :     0.0006382 Eh/α   predicted    -0.4364783E-05 ( -56.79%)
   displ. norm   :     0.0802952 α      lambda       -0.5953968E-05
   maximum displ.:     0.0532299 α      in ANC's #1, #2, #5, ...

........................................................................
.............................. CYCLE   39 ..............................
........................................................................

 iter      E             dE          RMSdq      gap      omega  full diag
   1    -35.1451355 -0.351451E+02  0.288E-02    3.56       0.0  T
   2    -35.1451356 -0.468778E-07  0.169E-02    3.56       1.3  T
   3    -35.1451354  0.230714E-06  0.380E-03    3.56       5.6  T
   4    -35.1451356 -0.264884E-06  0.582E-04    3.56      36.6  T
   5    -35.1451356 -0.203897E-08  0.308E-04    3.56      69.2  T
     SCC iter.                  ...        0 min,  0.005 sec
     gradient                   ...        0 min,  0.002 sec
 * total energy  :   -34.6144379 Eh     change       -0.6370332E-05 Eh
   gradient norm :     0.0005036 Eh/α   predicted    -0.2986297E-05 ( -53.12%)
   displ. norm   :     0.0557955 α      lambda       -0.3712046E-05
   maximum displ.:     0.0397555 α      in ANC's #1, #5, #2, ...

........................................................................
.............................. CYCLE   40 ..............................
........................................................................

 iter      E             dE          RMSdq      gap      omega  full diag
   1    -35.1451032 -0.351451E+02  0.217E-02    3.55       0.0  T
   2    -35.1451032 -0.277441E-07  0.128E-02    3.55       1.7  T
   3    -35.1451031  0.677325E-07  0.216E-03    3.55       9.9  T
   4    -35.1451032 -0.820183E-07  0.394E-04    3.55      54.2  T
   5    -35.1451032 -0.813806E-09  0.219E-04    3.55      97.2  T
     SCC iter.                  ...        0 min,  0.005 sec
     gradient                   ...        0 min,  0.002 sec
 * total energy  :   -34.6144424 Eh     change       -0.4510172E-05 Eh
   gradient norm :     0.0003376 Eh/α   predicted    -0.1859717E-05 ( -58.77%)
   displ. norm   :     0.0416572 α      lambda       -0.3195092E-05
   maximum displ.:     0.0311659 α      in ANC's #1, #6, #5, ...

   *** GEOMETRY OPTIMIZATION CONVERGED AFTER 40 ITERATIONS ***

------------------------------------------------------------------------
 total energy gain   :        -0.0138508 Eh       -8.6915 kcal/mol
 total RMSD          :         0.7372195 a0        0.3901 Å
 total power (kW/mol):        -0.9091324 (step)  -67.6813 (real)
------------------------------------------------------------------------

 ANCopt (total)                0 d,  0 h,  0 min,  0.537 sec
 optimizer setup                ...        0 min,  0.000 sec (  0.021%)
 model hessian                  ...        0 min,  0.007 sec (  1.362%)
 ANC generation                 ...        0 min,  0.002 sec (  0.280%)
 coordinate transformation      ...        0 min,  0.000 sec (  0.064%)
 single point calculation       ...        0 min,  0.504 sec ( 93.763%)
 optimization log               ...        0 min,  0.007 sec (  1.357%)
 hessian update                 ...        0 min,  0.012 sec (  2.156%)
 rational function              ...        0 min,  0.004 sec (  0.686%)

================
 final structure:
================
22
 xtb: 6.7.1 (edcfbbe)
C           -3.61285847945789        1.08483749283398        0.06695763551950
C           -2.59087842570519        0.00263249571915        0.20720897841873
C           -2.87196505202918       -1.25389591192270        0.53463004157802
C           -1.19680980619579        0.42556593910317       -0.10241478913764
O           -0.91385463510543        1.42823629529162       -0.70735972327136
O           -0.29341935216929       -0.44296135170284        0.39091839133092
C            1.06090484028549       -0.27394558810198        0.13334227204513
C            1.54383614627148        0.00065511112836       -1.13754798725884
C            2.91017978775845        0.10097280801571       -1.33417531653218
C            3.78681155110101       -0.07607378891984       -0.27800340200696
C            3.29650860053655       -0.35695659262084        0.98671588411494
C            1.93395896994046       -0.45559034746183        1.19795877854417
H           -4.61891044069215        0.67631653062006        0.08853876673497
H           -3.50326293573739        1.80421306451155        0.87801981608332
H           -3.45078096363358        1.62123761887004       -0.86585150185851
H           -2.10409098640480       -2.00342492844241        0.61416903850048
H           -3.88312417931959       -1.56965347682883        0.73108677100263
H            0.85899607410181        0.13705645570713       -1.95939301756930
H            3.28837408144802        0.31626444591505       -2.32220511394768
H            4.85126376700563        0.00340705819973       -0.43952114378817
H            3.97640589553857       -0.49705859233289        1.81368462006173
H            1.53271754246241       -0.67183573758148        2.17602900143633
 
 Bond Distances (Angstroems)
 ---------------------------
C1-C2=1.4951         C1-H13=1.0860        C1-H14=1.0896        C1-H15=1.0882        C2-C1=1.4951         C2-C3=1.3286         
C2-C4=1.4894         C3-C2=1.3286         C3-H16=1.0760        C3-H17=1.0774        C4-C2=1.4894         C4-O5=1.2047         
C4-O6=1.3468         O5-C4=1.2047         O6-C4=1.3468         O6-C7=1.3889         C7-O6=1.3889         C7-C8=1.3870         
C7-C12=1.3888        C8-C7=1.3870         C8-C9=1.3841         C8-H18=1.0784        C9-C8=1.3841         C9-C10=1.3840        
C9-H19=1.0796        C10-C9=1.3840        C10-C11=1.3852       C10-H20=1.0796       C11-C10=1.3852       C11-C12=1.3824       
C11-H21=1.0797       C12-C7=1.3888        C12-C11=1.3824       C12-H22=1.0791       H13-C1=1.0860        H14-C1=1.0896        
H15-C1=1.0882        H16-C3=1.0760        H17-C3=1.0774        H18-C8=1.0784        H19-C9=1.0796        H20-C10=1.0796       
H21-C11=1.0797       H22-C12=1.0791       
 C  H  Rav=1.0814 sigma=0.0045  Rmin=1.0760  Rmax=1.0896    10
 C  C  Rav=1.4027 sigma=0.0510  Rmin=1.3286  Rmax=1.4951     9
 O  C  Rav=1.3135 sigma=0.0788  Rmin=1.2047  Rmax=1.3889     3
 
 selected bond angles (degree)
 --------------------
H13-C1-C2=111.04               H14-C1-C2=109.83               H14-C1-H13=109.07              H15-C1-C2=109.60               
H15-C1-H13=109.90              H15-C1-H14=107.32              C3-C2-C1=124.27                C4-C2-C1=114.51                
C4-C2-C3=121.19                H16-C3-C2=121.74               H17-C3-C2=121.38               H17-C3-H16=116.88              
O5-C4-C2=124.10                O6-C4-C2=111.63                O6-C4-O5=124.27                C7-O6-C4=120.51                
C8-C7-O6=122.24                C12-C7-O6=117.06               C12-C7-C8=120.63               C9-C8-C7=119.23                
H18-C8-C7=120.15               H18-C8-C9=120.63               C10-C9-C8=120.51               H19-C9-C8=119.36               
H19-C9-C10=120.13              C11-C10-C9=119.90              H20-C10-C9=120.06              H20-C10-C11=120.03             
 
 selected dihedral angles (degree)
 ---------------------------------
C3-C2-C1-H13=349.69           C3-C2-C1-H14=110.42           C3-C2-C1-H15=228.08           C4-C2-C1-H13=167.49           
C4-C2-C1-H14=288.22           C4-C2-C1-H15= 45.88           H16-C3-C2-C1=179.34           H16-C3-C2-C4=  1.68           
H17-C3-C2-C1=359.47           H17-C3-C2-C4=181.81           O5-C4-C2-C1=343.24            O5-C4-C2-C3=161.12            
O6-C4-C2-C1=162.52            O6-C4-C2-C3=340.40            C7-O6-C4-C2=175.76            C7-O6-C4-O5=355.03            
C8-C7-O6-C4=313.39            C12-C7-O6-C4=136.43           C9-C8-C7-O6=182.73            C9-C8-C7-C12=359.59           
H18-C8-C7-O6=  2.94           H18-C8-C7-C12=179.79          C10-C9-C8-C7=  0.29           C10-C9-C8-H18=180.08          
H19-C9-C8-C7=180.10           H19-C9-C8-H18=359.89          C11-C10-C9-C8=  0.05          C11-C10-C9-H19=180.24         
H20-C10-C9-C8=179.98          H20-C10-C9-H19=  0.16         
           -------------------------------------------------
          |                Final Singlepoint                |
           -------------------------------------------------

          ...................................................
          :                      SETUP                      :
          :.................................................:
          :  # basis functions                  58          :
          :  # atomic orbitals                  58          :
          :  # shells                           34          :
          :  # electrons                        62          :
          :  max. iterations                   250          :
          :  Hamiltonian                  GFN2-xTB          :
          :  restarted?                      false          :
          :  GBSA solvation                  false          :
          :  PC potential                    false          :
          :  electronic temp.          300.0000000     K    :
          :  accuracy                    1.0000000          :
          :  -> integral cutoff          0.2500000E+02      :
          :  -> integral neglect         0.1000000E-07      :
          :  -> SCF convergence          0.1000000E-05 Eh   :
          :  -> wf. convergence          0.1000000E-03 e    :
          :  Broyden damping             0.4000000          :
          :  net charge                          0          :
          :  unpaired electrons                  0          :
          ...................................................

 iter      E             dE          RMSdq      gap      omega  full diag
   1    -35.1451032 -0.351451E+02  0.906E-05    3.55       0.0  T
   2    -35.1451032 -0.320100E-10  0.594E-05    3.55     359.1  T
   3    -35.1451032 -0.212808E-10  0.365E-05    3.55     584.3  T

   *** convergence criteria satisfied after 3 iterations ***

         #    Occupation            Energy/Eh            Energy/eV
      -------------------------------------------------------------
         1        2.0000           -0.7440088             -20.2455
       ...           ...                  ...                  ...
        25        2.0000           -0.4581347             -12.4665
        26        2.0000           -0.4452010             -12.1145
        27        2.0000           -0.4302679             -11.7082
        28        2.0000           -0.4197427             -11.4218
        29        2.0000           -0.4155751             -11.3084
        30        2.0000           -0.4104068             -11.1677
        31        2.0000           -0.4028618             -10.9624 (HOMO)
        32                         -0.2722908              -7.4094 (LUMO)
        33                         -0.2327410              -6.3332
        34                         -0.2272987              -6.1851
        35                         -0.1675450              -4.5591
        36                         -0.0997824              -2.7152
       ...                                ...                  ...
        58                          0.7075097              19.2523
      -------------------------------------------------------------
                  HL-Gap            0.1305710 Eh            3.5530 eV
             Fermi-level           -0.3375763 Eh           -9.1859 eV

 SCC (total)                   0 d,  0 h,  0 min,  0.007 sec
 SCC setup                      ...        0 min,  0.000 sec (  5.501%)
 Dispersion                     ...        0 min,  0.000 sec (  3.563%)
 classical contributions        ...        0 min,  0.000 sec (  0.579%)
 integral evaluation            ...        0 min,  0.000 sec (  7.578%)
 iterations                     ...        0 min,  0.003 sec ( 52.397%)
 molecular gradient             ...        0 min,  0.002 sec ( 25.871%)
 printout                       ...        0 min,  0.000 sec (  4.124%)

         :::::::::::::::::::::::::::::::::::::::::::::::::::::
         ::                     SUMMARY                     ::
         :::::::::::::::::::::::::::::::::::::::::::::::::::::
         :: total energy             -34.614442405683 Eh    ::
         :: gradient norm              0.000337697273 Eh/a0 ::
         :: HOMO-LUMO gap              3.553017971046 eV    ::
         ::.................................................::
         :: SCC energy               -35.145144649474 Eh    ::
         :: -> isotropic ES            0.044749724387 Eh    ::
         :: -> anisotropic ES          0.001252229313 Eh    ::
         :: -> anisotropic XC          0.014626862569 Eh    ::
         :: -> dispersion             -0.018153189403 Eh    ::
         :: repulsion energy           0.530702243791 Eh    ::
         :: add. restraining           0.000000000000 Eh    ::
         :: total charge               0.000000000000 e     ::
         :::::::::::::::::::::::::::::::::::::::::::::::::::::

           -------------------------------------------------
          |                Property Printout                |
           -------------------------------------------------

    * Orbital Energies and Occupations

         #    Occupation            Energy/Eh            Energy/eV
      -------------------------------------------------------------
         1        2.0000           -0.7440088             -20.2455
       ...           ...                  ...                  ...
        19        2.0000           -0.4947723             -13.4634
        20        2.0000           -0.4899697             -13.3328
        21        2.0000           -0.4859488             -13.2233
        22        2.0000           -0.4820439             -13.1171
        23        2.0000           -0.4690957             -12.7647
        24        2.0000           -0.4669560             -12.7065
        25        2.0000           -0.4581347             -12.4665
        26        2.0000           -0.4452010             -12.1145
        27        2.0000           -0.4302679             -11.7082
        28        2.0000           -0.4197427             -11.4218
        29        2.0000           -0.4155751             -11.3084
        30        2.0000           -0.4104068             -11.1677
        31        2.0000           -0.4028618             -10.9624 (HOMO)
        32                         -0.2722908              -7.4094 (LUMO)
        33                         -0.2327410              -6.3332
        34                         -0.2272987              -6.1851
        35                         -0.1675450              -4.5591
        36                         -0.0997824              -2.7152
        37                          0.0166745               0.4537
        38                          0.1065174               2.8985
        39                          0.1142595               3.1092
        40                          0.1206615               3.2834
        41                          0.1444658               3.9311
        42                          0.1658269               4.5124
       ...                                ...                  ...
        58                          0.7075097              19.2523
      -------------------------------------------------------------
                  HL-Gap            0.1305710 Eh            3.5530 eV
             Fermi-level           -0.3375763 Eh           -9.1859 eV

     #   Z          covCN         q      C6AA      α(0)
     1   6 C        3.759    -0.111    22.676     6.789
     2   6 C        2.938    -0.007    28.203     8.710
     3   6 C        2.844    -0.081    30.019     8.979
     4   6 C        2.721     0.354    20.983     7.499
     5   8 O        0.856    -0.404    21.766     6.255
     6   8 O        1.708    -0.258    18.274     5.772
     7   6 C        2.872     0.146    24.818     8.166
     8   6 C        2.917    -0.040    29.006     8.832
     9   6 C        2.922    -0.027    28.675     8.781
    10   6 C        2.919    -0.033    28.817     8.803
    11   6 C        2.922    -0.028    28.696     8.785
    12   6 C        2.918    -0.045    29.128     8.850
    13   1 H        0.925     0.052     2.299     2.371
    14   1 H        0.925     0.060     2.195     2.317
    15   1 H        0.925     0.071     2.076     2.253
    16   1 H        0.926     0.061     2.191     2.314
    17   1 H        0.926     0.056     2.252     2.347
    18   1 H        0.926     0.057     2.238     2.340
    19   1 H        0.926     0.044     2.394     2.419
    20   1 H        0.926     0.041     2.435     2.440
    21   1 H        0.926     0.043     2.413     2.429
    22   1 H        0.926     0.051     2.309     2.376

 Mol. C6AA /au·bohr⁶  :       5755.062103
 Mol. C8AA /au·bohr⁸  :     138006.118085
 Mol. α(0) /au        :        119.827848


Wiberg/Mayer (AO) data.
largest (>0.10) Wiberg bond orders for each atom

 ---------------------------------------------------------------------------
     #   Z sym  total        # sym  WBO       # sym  WBO       # sym  WBO
 ---------------------------------------------------------------------------
     1   6 C    3.993 --     2 C    1.028    13 H    0.984    15 H    0.969
                            14 H    0.965
     2   6 C    3.986 --     3 C    1.879     1 C    1.028     4 C    0.992
     3   6 C    3.987 --     2 C    1.879    17 H    0.974    16 H    0.973
     4   6 C    3.914 --     5 O    1.742     6 O    1.091     2 C    0.992
     5   8 O    2.047 --     4 C    1.742     6 O    0.162
     6   8 O    2.347 --     4 C    1.091     7 C    0.974     5 O    0.162
     7   6 C    3.918 --     8 C    1.396    12 C    1.386     6 O    0.974
                            10 C    0.102
     8   6 C    3.990 --     9 C    1.440     7 C    1.396    18 H    0.967
                            11 C    0.110
     9   6 C    3.991 --    10 C    1.442     8 C    1.440    19 H    0.970
                            12 C    0.111
    10   6 C    3.991 --     9 C    1.442    11 C    1.434    20 H    0.971
                             7 C    0.102
    11   6 C    3.991 --    12 C    1.449    10 C    1.434    21 H    0.970
                             8 C    0.110
    12   6 C    3.989 --    11 C    1.449     7 C    1.386    22 H    0.968
                             9 C    0.111
    13   1 H    0.997 --     1 C    0.984
    14   1 H    0.996 --     1 C    0.965
    15   1 H    0.995 --     1 C    0.969
    16   1 H    0.996 --     3 C    0.973
    17   1 H    0.997 --     3 C    0.974
    18   1 H    0.997 --     8 C    0.967
    19   1 H    0.998 --     9 C    0.970
    20   1 H    0.998 --    10 C    0.971
    21   1 H    0.998 --    11 C    0.970
    22   1 H    0.997 --    12 C    0.968
 ---------------------------------------------------------------------------

Topologies differ in total number of bonds
Writing topology from bond orders to xtbtopo.mol

molecular dipole:
                 x           y           z       tot (Debye)
 q only:       -0.024      -0.613       0.294
   full:       -0.083      -0.692       0.343       1.974
molecular quadrupole (traceless):
                xx          xy          yy          xz          yz          zz
 q only:       10.005       0.323      -7.115      -1.456       1.159      -2.890
  q+dip:       10.702       1.455      -9.890      -1.711       0.716      -0.811
   full:        9.329       1.017      -8.170      -1.543       2.219      -1.160

           -------------------------------------------------
          |                Geometry Summary                 |
           -------------------------------------------------

      molecular mass/u    :      162.1855763
   center of mass at/Å    :        0.1773874       0.0366783      -0.0064348
  moments of inertia/u·Å² :        0.1853866E+03   0.1024821E+04   0.1120349E+04
rotational constants/cm⁻¹ :        0.9093231E-01   0.1644934E-01   0.1504676E-01

 * 20 selected distances

     #   Z          #   Z                                           value/Å
     2   6 C        3   6 C                                       1.3285625
     4   6 C        5   8 O                                       1.2047282
     4   6 C        6   8 O                                       1.3467858
     6   8 O        7   6 C                                       1.3889227 (max)
     7   6 C        8   6 C                                       1.3870078
     8   6 C        9   6 C                                       1.3840597
     9   6 C       10   6 C                                       1.3839538
    10   6 C       11   6 C                                       1.3852102
     7   6 C       12   6 C                                       1.3887502
    11   6 C       12   6 C                                       1.3823509
     1   6 C       13   1 H                                       1.0860460
     1   6 C       14   1 H                                       1.0896488
     1   6 C       15   1 H                                       1.0881761
     3   6 C       16   1 H                                       1.0759884 (min)
     3   6 C       17   1 H                                       1.0773769
     8   6 C       18   1 H                                       1.0784437
     9   6 C       19   1 H                                       1.0796224
    10   6 C       20   1 H                                       1.0795665
    11   6 C       21   1 H                                       1.0797066
    12   6 C       22   1 H                                       1.0790636

 * 3 distinct bonds (by element types)

   Z      Z             #   av. dist./Å        max./Å        min./Å
   1 H    6 C          10     1.0813639     1.0896488     1.0759884
   6 C    6 C           7     1.3771279     1.3887502     1.3285625
   6 C    8 O           3     1.3134789     1.3889227     1.2047282


optimized geometry written to: xtbopt.xyz


           -------------------------------------------------
          | TOTAL ENERGY              -34.614442405683 Eh   |
          | GRADIENT NORM               0.000337697273 Eh/α |
          | HOMO-LUMO GAP               3.553017971046 eV   |
           -------------------------------------------------

------------------------------------------------------------------------
 * finished run on 2025/12/01 at 14:18:58.205     
------------------------------------------------------------------------
 total:
 * wall-time:     0 d,  0 h,  0 min,  0.580 sec
 *  cpu-time:     0 d,  0 h,  0 min, 13.111 sec
 * ratio c/w:    22.602 speedup
 SCF:
 * wall-time:     0 d,  0 h,  0 min,  0.024 sec
 *  cpu-time:     0 d,  0 h,  0 min,  0.540 sec
 * ratio c/w:    22.527 speedup
 ANC optimizer:
 * wall-time:     0 d,  0 h,  0 min,  0.545 sec
 *  cpu-time:     0 d,  0 h,  0 min, 12.442 sec
 * ratio c/w:    22.843 speedup

normal termination of xtb
