      -----------------------------------------------------------      
     |                   =====================                   |     
     |                           x T B                           |     
     |                   =====================                   |     
     |                         S. Grimme                         |     
     |          Mulliken Center for Theoretical Chemistry        |     
     |                    University of Bonn                     |     
      -----------------------------------------------------------      

   * xtb version 6.7.1 (edcfbbe) compiled by 'albert@albert-system' on 2024-07-22

   xtb is free software: you can redistribute it and/or modify it under
   the terms of the GNU Lesser General Public License as published by
   the Free Software Foundation, either version 3 of the License, or
   (at your option) any later version.
   
   xtb is distributed in the hope that it will be useful,
   but WITHOUT ANY WARRANTY; without even the implied warranty of
   MERCHANTABILITY or FITNESS FOR A PARTICULAR PURPOSE.  See the
   GNU Lesser General Public License for more details.
   
   Cite this work as:
   * C. Bannwarth, E. Caldeweyher, S. Ehlert, A. Hansen, P. Pracht,
     J. Seibert, S. Spicher, S. Grimme, WIREs Comput. Mol. Sci., 2020, 11,
     e01493. DOI: 10.1002/wcms.1493
   
   for GFN2-xTB:
   * C. Bannwarth, S. Ehlert and S. Grimme., J. Chem. Theory Comput., 2019,
     15, 1652-1671. DOI: 10.1021/acs.jctc.8b01176
   for GFN1-xTB:
   * S. Grimme, C. Bannwarth, P. Shushkov, J. Chem. Theory Comput., 2017,
     13, 1989-2009. DOI: 10.1021/acs.jctc.7b00118
   for GFN0-xTB:
   * P. Pracht, E. Caldeweyher, S. Ehlert, S. Grimme, ChemRxiv, 2019, preprint.
     DOI: 10.26434/chemrxiv.8326202.v1
   for GFN-FF:
   * S. Spicher and S. Grimme, Angew. Chem. Int. Ed., 2020, 59, 15665-15673.
     DOI: 10.1002/anie.202004239
   
   for ALPB and GBSA implicit solvation:
   * S. Ehlert, M. Stahn, S. Spicher, S. Grimme, J. Chem. Theory Comput.,
     2021, 17, 4250-4261. DOI: 10.1021/acs.jctc.1c00471
   
   for ddCOSMO and CPCM-X implicit solvation:
   * M. Stahn, S. Ehlert, S. Grimme, J. Phys. Chem. A,
     2023, XX, XXXX-XXXX. DOI: 10.1021/acs.jpca.3c04382
   
   for DFT-D4:
   * E. Caldeweyher, C. Bannwarth and S. Grimme, J. Chem. Phys., 2017,
     147, 034112. DOI: 10.1063/1.4993215
   * E. Caldeweyher, S. Ehlert, A. Hansen, H. Neugebauer, S. Spicher,
     C. Bannwarth and S. Grimme, J. Chem. Phys., 2019, 150, 154122.
     DOI: 10.1063/1.5090222
   * E. Caldeweyher, J.-M. Mewes, S. Ehlert and S. Grimme, Phys. Chem. Chem. Phys.
     2020, 22, 8499-8512. DOI: 10.1039/D0CP00502A
   
   for sTDA-xTB:
   * S. Grimme and C. Bannwarth, J. Chem. Phys., 2016, 145, 054103.
     DOI: 10.1063/1.4959605
   
   in the mass-spec context:
   * V. Asgeirsson, C. Bauer and S. Grimme, Chem. Sci., 2017, 8, 4879.
     DOI: 10.1039/c7sc00601b
   * J. Koopman and S. Grimme, ACS Omega 2019, 4, 12, 15120-15133.
     DOI: 10.1021/acsomega.9b02011
   
   for metadynamics refer to:
   * S. Grimme, J. Chem. Theory Comput., 2019, 155, 2847-2862
     DOI: 10.1021/acs.jctc.9b00143
   
   for SPH calculations refer to:
   * S. Spicher and S. Grimme, J. Chem. Theory Comput., 2021, 17, 1701-1714
     DOI: 10.1021/acs.jctc.0c01306
   
   for ONIOM refer to:
   * C. Plett, A. Katbashev, S. Ehlert, S. Grimme, M. Bursch,
     Phys. Chem. Chem. Phys., 2023, 25, 17860-17868. DOI: 10.1039/D3CP02178E
   
   for DIPRO refer to:
   * J. Kohn, N. Gildemeister, S. Grimme, D. Fazzi, A. Hansen,
     J. Chem. Phys., 2023, just accepted.
   
   for PTB refer to:
   * S. Grimme, M. Mueller, A. Hansen, J. Chem. Phys., 2023, 158, 124111.
     DOI: 10.1063/5.0137838
   
   with help from (in alphabetical order)
   P. Atkinson, C. Bannwarth, F. Bohle, G. Brandenburg, E. Caldeweyher
   M. Checinski, S. Dohm, S. Ehlert, S. Ehrlich, I. Gerasimov, C. Hölzer
   A. Katbashev, J. Kohn, J. Koopman, C. Lavigne, S. Lehtola, F. März, M. Müller,
   F. Musil, H. Neugebauer, J. Pisarek, C. Plett, P. Pracht, F. Pultar,
   J. Seibert, P. Shushkov, S. Spicher, M. Stahn, M. Steiner, T. Strunk,
   J. Stückrath, T. Rose, and J. Unsleber
   
 * started run on 2025/12/01 at 14:18:58.213     
   ID    Z sym.   atoms
    1    6 C      1-4, 7, 8
    2    8 O      5, 6
    3    9 F      9-11
    4    1 H      12-18

           -------------------------------------------------
          |                Calculation Setup                |
           -------------------------------------------------

          program call               : xtb pipeline_data/3_conformer_xyz/acrylates/rdkit/QTKPMCIBUROOGY-UHFFFAOYSA-N_conf237.xyz --opt --gfn 2-xTB --iterations 250
          coordinate file            : pipeline_data/3_conformer_xyz/acrylates/rdkit/QTKPMCIBUROOGY-UHFFFAOYSA-N_conf237.xyz
          omp threads                :                    24

########################################################################
[WARNING] Please study the warnings concerning your input carefully
-1- readin_getIntValue: could not parse '2-xTB'
########################################################################

           -------------------------------------------------
          |                 G F N 2 - x T B                 |
           -------------------------------------------------

        Reference                      10.1021/acs.jctc.8b01176
      * Hamiltonian:
        H0-scaling (s, p, d)           1.850000    2.230000    2.230000
        zeta-weighting                 0.500000
      * Dispersion:
        s8                             2.700000
        a1                             0.520000
        a2                             5.000000
        s9                             5.000000
      * Repulsion:
        kExp                           1.500000    1.000000
        rExp                           1.000000
      * Coulomb:
        alpha                          2.000000
        third order                    shell-resolved
        anisotropic                    true
        a3                             3.000000
        a5                             4.000000
        cn-shift                       1.200000
        cn-exp                         4.000000
        max-rad                        5.000000


          ...................................................
          :                      SETUP                      :
          :.................................................:
          :  # basis functions                  51          :
          :  # atomic orbitals                  51          :
          :  # shells                           29          :
          :  # electrons                        64          :
          :  max. iterations                   250          :
          :  Hamiltonian                  GFN2-xTB          :
          :  restarted?                      false          :
          :  GBSA solvation                  false          :
          :  PC potential                    false          :
          :  electronic temp.          300.0000000     K    :
          :  accuracy                    1.0000000          :
          :  -> integral cutoff          0.2500000E+02      :
          :  -> integral neglect         0.1000000E-07      :
          :  -> SCF convergence          0.1000000E-05 Eh   :
          :  -> wf. convergence          0.1000000E-03 e    :
          :  Broyden damping             0.4000000          :
          :  net charge                          0          :
          :  unpaired electrons                  0          :
          ...................................................

 iter      E             dE          RMSdq      gap      omega  full diag
   1    -38.8714030 -0.388714E+02  0.502E+00    3.86       0.0  T
   2    -38.9714613 -0.100058E+00  0.267E+00    3.11       1.0  T
   3    -38.9775680 -0.610675E-02  0.155E+00    3.65       1.0  T
   4    -38.9826528 -0.508472E-02  0.295E-01    3.37       1.0  T
   5    -38.9837153 -0.106254E-02  0.108E-01    3.47       1.0  T
   6    -38.9837262 -0.109438E-04  0.473E-02    3.46       1.0  T
   7    -38.9837282 -0.195556E-05  0.212E-02    3.47       1.1  T
   8    -38.9837332 -0.503661E-05  0.715E-03    3.46       3.3  T
   9    -38.9837335 -0.293124E-06  0.293E-03    3.46       8.1  T
  10    -38.9837335 -0.180299E-07  0.911E-04    3.46      25.9  T
  11    -38.9837335 -0.239218E-08  0.425E-04    3.46      55.5  T

   *** convergence criteria satisfied after 11 iterations ***

         #    Occupation            Energy/Eh            Energy/eV
      -------------------------------------------------------------
         1        2.0000           -0.8881424             -24.1676
       ...           ...                  ...                  ...
        26        2.0000           -0.5076668             -13.8143
        27        2.0000           -0.4974949             -13.5375
        28        2.0000           -0.4796386             -13.0516
        29        2.0000           -0.4721162             -12.8469
        30        2.0000           -0.4689802             -12.7616
        31        2.0000           -0.4341245             -11.8131
        32        2.0000           -0.4331091             -11.7855 (HOMO)
        33                         -0.3058730              -8.3232 (LUMO)
        34                         -0.1898012              -5.1648
        35                         -0.0979816              -2.6662
        36                         -0.0535024              -1.4559
        37                         -0.0243590              -0.6628
       ...                                ...                  ...
        51                          0.6100526              16.6004
      -------------------------------------------------------------
                  HL-Gap            0.1272361 Eh            3.4623 eV
             Fermi-level           -0.3694910 Eh          -10.0544 eV

 SCC (total)                   0 d,  0 h,  0 min,  0.019 sec
 SCC setup                      ...        0 min,  0.001 sec (  3.577%)
 Dispersion                     ...        0 min,  0.000 sec (  2.349%)
 classical contributions        ...        0 min,  0.000 sec (  0.454%)
 integral evaluation            ...        0 min,  0.001 sec (  5.169%)
 iterations                     ...        0 min,  0.015 sec ( 76.561%)
 molecular gradient             ...        0 min,  0.002 sec ( 10.233%)
 printout                       ...        0 min,  0.000 sec (  1.493%)

         :::::::::::::::::::::::::::::::::::::::::::::::::::::
         ::                     SUMMARY                     ::
         :::::::::::::::::::::::::::::::::::::::::::::::::::::
         :: total energy             -38.709707040777 Eh    ::
         :: gradient norm              0.160250031251 Eh/a0 ::
         :: HOMO-LUMO gap              3.462270049362 eV    ::
         ::.................................................::
         :: SCC energy               -38.983729417709 Eh    ::
         :: -> isotropic ES            0.088779498914 Eh    ::
         :: -> anisotropic ES          0.000922515602 Eh    ::
         :: -> anisotropic XC         -0.010522096843 Eh    ::
         :: -> dispersion             -0.011611514485 Eh    ::
         :: repulsion energy           0.274022376932 Eh    ::
         :: add. restraining           0.000000000000 Eh    ::
         :: total charge               0.000000000000 e     ::
         :::::::::::::::::::::::::::::::::::::::::::::::::::::

      ----------------------------------------------------------- 
     |                   =====================                   |
     |                        A N C O P T                        |
     |                   =====================                   |
     |               Approximate Normal Coordinate               |
     |                Rational Function Optimizer                |
      ----------------------------------------------------------- 
      ----------------------------------------------------------- 
     |                   =====================                   |
     |                        A N C O P T                        |
     |                   =====================                   |
     |               Approximate Normal Coordinate               |
     |                Rational Function Optimizer                |
      ----------------------------------------------------------- 

          ...................................................
          :                      SETUP                      :
          :.................................................:
          :   optimization level            normal          :
          :   max. optcycles                   200          :
          :   ANC micro-cycles                  20          :
          :   degrees of freedom                48          :
          :.................................................:
          :   RF solver                   davidson          :
          :   write xtbopt.log                true          :
          :   linear?                        false          :
          :   energy convergence         0.5000000E-05 Eh   :
          :   grad. convergence          0.1000000E-02 Eh/α :
          :   maxmium RF displ.          1.0000000          :
          :   Hlow (freq-cutoff)         0.1000000E-01      :
          :   Hmax (freq-cutoff)         5.0000000          :
          :   S6 in model hess.         20.0000000          :
          ...................................................

generating ANC from exact Hessian ...
Using Lindh-Hessian (1995)
 Shifting diagonal of input Hessian by   8.579649602684725E-003
 Lowest  eigenvalues of input Hessian
    0.000000    0.000000    0.000000    0.000000    0.000000    0.000000
    0.010000    0.010993    0.012039    0.017364    0.018668    0.021430
    0.022913    0.027596    0.028010    0.037133    0.041349    0.054187
 Highest eigenvalues
    1.489166    1.539628    1.567540    1.801028    1.895419    2.095614
 

........................................................................
.............................. CYCLE    1 ..............................
........................................................................

 iter      E             dE          RMSdq      gap      omega  full diag
   1    -38.9837335 -0.389837E+02  0.102E-04    3.46       0.0  T
   2    -38.9837335 -0.128395E-10  0.591E-05    3.46     398.7  T
   3    -38.9837335  0.355982E-11  0.297E-05    3.46     793.2  T
     SCC iter.                  ...        0 min,  0.002 sec
     gradient                   ...        0 min,  0.001 sec
 * total energy  :   -38.7097070 Eh     change       -0.3058389E-09 Eh
   gradient norm :     0.1602516 Eh/α   predicted     0.0000000E+00 (-100.00%)
   displ. norm   :     0.3042991 α      lambda       -0.2677891E-01
   maximum displ.:     0.1292234 α      in ANC's #8, #30, #7, ...

........................................................................
.............................. CYCLE    2 ..............................
........................................................................

 iter      E             dE          RMSdq      gap      omega  full diag
   1    -39.0215029 -0.390215E+02  0.320E-01    3.69       0.0  T
   2    -39.0220050 -0.502076E-03  0.198E-01    3.67       1.0  T
   3    -39.0220242 -0.192770E-04  0.964E-02    3.68       1.0  T
   4    -39.0220329 -0.862229E-05  0.196E-02    3.66       1.2  T
   5    -39.0220357 -0.284775E-05  0.100E-02    3.67       2.3  T
   6    -39.0220361 -0.378460E-06  0.579E-03    3.67       4.1  T
   7    -39.0220364 -0.298777E-06  0.182E-03    3.67      12.9  T
   8    -39.0220364 -0.115126E-07  0.873E-04    3.67      27.0  T
   9    -39.0220364 -0.207535E-08  0.205E-04    3.67     115.0  T
     SCC iter.                  ...        0 min,  0.006 sec
     gradient                   ...        0 min,  0.002 sec
 * total energy  :   -38.7287076 Eh     change       -0.1900055E-01 Eh
   gradient norm :     0.0685827 Eh/α   predicted    -0.1462930E-01 ( -23.01%)
   displ. norm   :     0.3089508 α      lambda       -0.9131108E-02
   maximum displ.:     0.1811850 α      in ANC's #8, #7, #11, ...

........................................................................
.............................. CYCLE    3 ..............................
........................................................................

 iter      E             dE          RMSdq      gap      omega  full diag
   1    -39.0433511 -0.390434E+02  0.259E-01    3.87       0.0  T
   2    -39.0436423 -0.291151E-03  0.154E-01    3.80       1.0  T
   3    -39.0436490 -0.670305E-05  0.740E-02    3.80       1.0  T
   4    -39.0436461  0.285650E-05  0.285E-02    3.79       1.0  T
   5    -39.0436566 -0.104334E-04  0.831E-03    3.79       2.8  T
   6    -39.0436572 -0.630605E-06  0.292E-03    3.80       8.1  T
   7    -39.0436572 -0.289318E-07  0.995E-04    3.80      23.7  T
   8    -39.0436572 -0.164751E-08  0.499E-04    3.80      47.2  T
     SCC iter.                  ...        0 min,  0.006 sec
     gradient                   ...        0 min,  0.001 sec
 * total energy  :   -38.7335126 Eh     change       -0.4804971E-02 Eh
   gradient norm :     0.0179953 Eh/α   predicted    -0.5001333E-02 (   4.09%)
   displ. norm   :     0.1607821 α      lambda       -0.9099588E-03
   maximum displ.:     0.1072728 α      in ANC's #8, #7, #9, ...

........................................................................
.............................. CYCLE    4 ..............................
........................................................................

 iter      E             dE          RMSdq      gap      omega  full diag
   1    -39.0420196 -0.390420E+02  0.790E-02    3.77       0.0  T
   2    -39.0420326 -0.130485E-04  0.521E-02    3.78       1.0  T
   3    -39.0420301  0.246929E-05  0.355E-02    3.78       1.0  T
   4    -39.0420386 -0.844270E-05  0.844E-03    3.78       2.8  T
   5    -39.0420394 -0.801830E-06  0.130E-03    3.78      18.2  T
   6    -39.0420394 -0.930685E-08  0.744E-04    3.78      31.7  T
   7    -39.0420394 -0.777284E-09  0.248E-04    3.78      95.0  T
     SCC iter.                  ...        0 min,  0.005 sec
     gradient                   ...        0 min,  0.001 sec
 * total energy  :   -38.7341136 Eh     change       -0.6009895E-03 Eh
   gradient norm :     0.0053181 Eh/α   predicted    -0.4667424E-03 ( -22.34%)
   displ. norm   :     0.1328638 α      lambda       -0.2961563E-03
   maximum displ.:     0.0928086 α      in ANC's #7, #8, #9, ...

........................................................................
.............................. CYCLE    5 ..............................
........................................................................

 iter      E             dE          RMSdq      gap      omega  full diag
   1    -39.0420334 -0.390420E+02  0.466E-02    3.79       0.0  T
   2    -39.0420361 -0.261586E-05  0.284E-02    3.79       1.0  T
   3    -39.0420344  0.163221E-05  0.153E-02    3.79       1.5  T
   4    -39.0420362 -0.179609E-05  0.477E-03    3.79       4.9  T
   5    -39.0420366 -0.344358E-06  0.897E-04    3.79      26.3  T
   6    -39.0420366 -0.345567E-08  0.411E-04    3.79      57.3  T
     SCC iter.                  ...        0 min,  0.004 sec
     gradient                   ...        0 min,  0.002 sec
 * total energy  :   -38.7342905 Eh     change       -0.1769220E-03 Eh
   gradient norm :     0.0035797 Eh/α   predicted    -0.1506921E-03 ( -14.83%)
   displ. norm   :     0.0524788 α      lambda       -0.5805459E-04
   maximum displ.:     0.0377171 α      in ANC's #7, #8, #9, ...

........................................................................
.............................. CYCLE    6 ..............................
........................................................................

 iter      E             dE          RMSdq      gap      omega  full diag
   1    -39.0425520 -0.390426E+02  0.211E-02    3.80       0.0  T
   2    -39.0425522 -0.237079E-06  0.126E-02    3.80       1.9  T
   3    -39.0425519  0.353949E-06  0.604E-03    3.80       3.9  T
   4    -39.0425523 -0.412732E-06  0.175E-03    3.80      13.5  T
   5    -39.0425523 -0.325181E-07  0.528E-04    3.80      44.6  T
   6    -39.0425523 -0.736087E-09  0.224E-04    3.80     105.3  T
     SCC iter.                  ...        0 min,  0.004 sec
     gradient                   ...        0 min,  0.001 sec
 * total energy  :   -38.7343234 Eh     change       -0.3292754E-04 Eh
   gradient norm :     0.0019453 Eh/α   predicted    -0.2910795E-04 ( -11.60%)
   displ. norm   :     0.0361326 α      lambda       -0.1844899E-04
   maximum displ.:     0.0187771 α      in ANC's #7, #11, #10, ...

........................................................................
.............................. CYCLE    7 ..............................
........................................................................

 iter      E             dE          RMSdq      gap      omega  full diag
   1    -39.0430270 -0.390430E+02  0.223E-02    3.80       0.0  T
   2    -39.0430270 -0.959058E-07  0.137E-02    3.80       1.7  T
   3    -39.0430261  0.909630E-06  0.934E-03    3.80       2.5  T
   4    -39.0430273 -0.111890E-05  0.999E-04    3.80      23.6  T
   5    -39.0430273 -0.284517E-08  0.339E-04    3.80      69.6  T
   6    -39.0430273 -0.410331E-09  0.146E-04    3.80     161.1  T
     SCC iter.                  ...        0 min,  0.005 sec
     gradient                   ...        0 min,  0.002 sec
 * total energy  :   -38.7343288 Eh     change       -0.5361967E-05 Eh
   gradient norm :     0.0015179 Eh/α   predicted    -0.9231372E-05 (  72.16%)
   displ. norm   :     0.0161183 α      lambda       -0.6987736E-05
   maximum displ.:     0.0109624 α      in ANC's #7, #8, #20, ...

........................................................................
.............................. CYCLE    8 ..............................
........................................................................

 iter      E             dE          RMSdq      gap      omega  full diag
   1    -39.0429378 -0.390429E+02  0.107E-02    3.80       0.0  T
   2    -39.0429379 -0.548422E-07  0.648E-03    3.80       3.6  T
   3    -39.0429379  0.584633E-08  0.134E-03    3.80      17.6  T
   4    -39.0429379 -0.127689E-07  0.324E-04    3.80      72.7  T
   5    -39.0429379 -0.523286E-09  0.210E-04    3.80     112.0  T
     SCC iter.                  ...        0 min,  0.004 sec
     gradient                   ...        0 min,  0.001 sec
 * total energy  :   -38.7343339 Eh     change       -0.5152089E-05 Eh
   gradient norm :     0.0004339 Eh/α   predicted    -0.3493394E-05 ( -32.19%)
   displ. norm   :     0.0064842 α      lambda       -0.7156056E-06
   maximum displ.:     0.0037762 α      in ANC's #4, #9, #10, ...

........................................................................
.............................. CYCLE    9 ..............................
........................................................................

 iter      E             dE          RMSdq      gap      omega  full diag
   1    -39.0428077 -0.390428E+02  0.357E-03    3.80       0.0  T
   2    -39.0428077 -0.619792E-08  0.219E-03    3.80      10.7  T
   3    -39.0428077  0.182787E-07  0.130E-03    3.80      18.1  T
   4    -39.0428077 -0.221625E-07  0.192E-04    3.80     122.8  T
   5    -39.0428077 -0.254182E-09  0.835E-05    3.80     282.2  T
     SCC iter.                  ...        0 min,  0.004 sec
     gradient                   ...        0 min,  0.002 sec
 * total energy  :   -38.7343346 Eh     change       -0.6969056E-06 Eh
   gradient norm :     0.0001647 Eh/α   predicted    -0.3577855E-06 ( -48.66%)
   displ. norm   :     0.0127743 α      lambda       -0.6537555E-06
   maximum displ.:     0.0087929 α      in ANC's #4, #9, #10, ...

   *** GEOMETRY OPTIMIZATION CONVERGED AFTER 9 ITERATIONS ***

------------------------------------------------------------------------
 total energy gain   :        -0.0246276 Eh      -15.4540 kcal/mol
 total RMSD          :         0.2055427 a0        0.1088 Å
 total power (kW/mol):        -7.1844089 (step) -919.3736 (real)
------------------------------------------------------------------------

 ANCopt (total)                0 d,  0 h,  0 min,  0.070 sec
 optimizer setup                ...        0 min,  0.000 sec (  0.129%)
 model hessian                  ...        0 min,  0.003 sec (  4.219%)
 ANC generation                 ...        0 min,  0.000 sec (  0.472%)
 coordinate transformation      ...        0 min,  0.000 sec (  0.099%)
 single point calculation       ...        0 min,  0.063 sec ( 89.745%)
 optimization log               ...        0 min,  0.001 sec (  1.112%)
 hessian update                 ...        0 min,  0.001 sec (  1.898%)
 rational function              ...        0 min,  0.001 sec (  1.710%)

================
 final structure:
================
18
 xtb: 6.7.1 (edcfbbe)
C            2.98126958048393       -0.22518494583934        0.12040007782553
C            1.62976063627203        0.35573978972894       -0.16947522957294
C            1.44152415901971        1.58275720480635       -0.64911376238191
C            0.48352417898580       -0.53774611285686        0.11548947934858
O            0.56013579211787       -1.65725093638969        0.55166435156313
O           -0.71347604088475        0.03568287608620       -0.16871430386625
C           -1.84276684886259       -0.77137368678339        0.08196920070551
C           -3.07350527543411        0.02437599410105       -0.33086334976110
F           -3.04755528127149        0.36991780078755       -1.62016770110756
F           -3.21271068264324        1.14946032841111        0.37482311372529
F           -4.18872271089921       -0.69525759398345       -0.14159581206719
H            3.57828617625037       -0.26933956598611       -0.78818443832009
H            3.51237515922579        0.38952141973183        0.84400858955073
H            2.87271172160566       -1.22956776284217        0.52033525821842
H            0.45902681156816        1.97157096353301       -0.84809306752575
H            2.27739565202484        2.23023534374773       -0.85535402300450
H           -1.91727104550360       -1.02399653099753        1.14701647659402
H           -1.80000098205516       -1.69954558525523       -0.50147285992392
 
 Bond Distances (Angstroems)
 ---------------------------
C1-C2=1.4994         C1-H12=1.0881        C1-H13=1.0879        C1-H14=1.0865        C2-C1=1.4994         C2-C3=1.3308         
C2-C4=1.4810         C3-C2=1.3308         C3-H15=1.0752        C3-H16=1.0772        C4-C2=1.4810         C4-O5=1.2039         
C4-O6=1.3574         O5-C4=1.2039         O6-C4=1.3574         O6-C7=1.4105         C7-O6=1.4105         C7-C8=1.5226         
C7-H17=1.0971        C7-H18=1.0971        C8-C7=1.5226         C8-F9=1.3351         C8-F10=1.3354        C8-F11=1.3407        
F9-C8=1.3351         F10-C8=1.3354        F11-C8=1.3407        H12-C1=1.0881        H13-C1=1.0879        H14-C1=1.0865        
H15-C3=1.0752        H16-C3=1.0772        H17-C7=1.0971        H18-C7=1.0971        
 C  H  Rav=1.0870 sigma=0.0079  Rmin=1.0752  Rmax=1.0971     7
 C  C  Rav=1.4584 sigma=0.0752  Rmin=1.3308  Rmax=1.5226     4
 O  C  Rav=1.3239 sigma=0.0876  Rmin=1.2039  Rmax=1.4105     3
 F  C  Rav=1.3370 sigma=0.0026  Rmin=1.3351  Rmax=1.3407     3
 
 selected bond angles (degree)
 --------------------
H12-C1-C2=110.42               H13-C1-C2=110.47               H13-C1-H12=108.09              H14-C1-C2=109.83               
H14-C1-H12=108.95              H14-C1-H13=109.04              C3-C2-C1=123.67                C4-C2-C1=115.26                
C4-C2-C3=121.07                H15-C3-C2=121.96               H16-C3-C2=120.89               H16-C3-H15=117.15              
O5-C4-C2=125.55                O6-C4-C2=112.79                O6-C4-O5=121.66                C7-O6-C4=115.28                
C8-C7-O6=107.45                H17-C7-O6=111.02               H17-C7-C8=109.19               H18-C7-O6=111.00               
H18-C7-C8=109.24               H18-C7-H17=108.91              F9-C8-C7=112.42                F10-C8-C7=112.41               
F10-C8-F9=107.12               F11-C8-C7=110.71               F11-C8-F9=106.94               F11-C8-F10=106.91              
 
 selected dihedral angles (degree)
 ---------------------------------
C3-C2-C1-H12=299.10           C3-C2-C1-H13= 58.61           C3-C2-C1-H14=178.93           C4-C2-C1-H12=119.08           
C4-C2-C1-H13=238.59           C4-C2-C1-H14=358.92           H15-C3-C2-C1=179.94           H15-C3-C2-C4=359.96           
H16-C3-C2-C1=  0.00           H16-C3-C2-C4=180.00           O5-C4-C2-C1=  0.20            O5-C4-C2-C3=180.18            
O6-C4-C2-C1=180.21            O6-C4-C2-C3=  0.19            C7-O6-C4-C2=179.93            C7-O6-C4-O5=359.93            
C8-C7-O6-C4=181.52            H17-C7-O6-C4= 62.19           H18-C7-O6-C4=300.90           F9-C8-C7-O6= 59.34            
F9-C8-C7-H17=179.84           F9-C8-C7-H18=298.84           F10-C8-C7-O6=298.37           F10-C8-C7-H17= 58.87          
F10-C8-C7-H18=177.87          F11-C8-C7-O6=178.88           F11-C8-C7-H17=299.37          F11-C8-C7-H18= 58.38          
           -------------------------------------------------
          |                Final Singlepoint                |
           -------------------------------------------------

          ...................................................
          :                      SETUP                      :
          :.................................................:
          :  # basis functions                  51          :
          :  # atomic orbitals                  51          :
          :  # shells                           29          :
          :  # electrons                        64          :
          :  max. iterations                   250          :
          :  Hamiltonian                  GFN2-xTB          :
          :  restarted?                      false          :
          :  GBSA solvation                  false          :
          :  PC potential                    false          :
          :  electronic temp.          300.0000000     K    :
          :  accuracy                    1.0000000          :
          :  -> integral cutoff          0.2500000E+02      :
          :  -> integral neglect         0.1000000E-07      :
          :  -> SCF convergence          0.1000000E-05 Eh   :
          :  -> wf. convergence          0.1000000E-03 e    :
          :  Broyden damping             0.4000000          :
          :  net charge                          0          :
          :  unpaired electrons                  0          :
          ...................................................

 iter      E             dE          RMSdq      gap      omega  full diag
   1    -39.0428077 -0.390428E+02  0.382E-05    3.80       0.0  T
   2    -39.0428077 -0.370193E-11  0.216E-05    3.80    1092.9  T
   3    -39.0428077 -0.447642E-12  0.133E-05    3.80    1774.1  T

   *** convergence criteria satisfied after 3 iterations ***

         #    Occupation            Energy/Eh            Energy/eV
      -------------------------------------------------------------
         1        2.0000           -0.8972350             -24.4150
       ...           ...                  ...                  ...
        26        2.0000           -0.5042189             -13.7205
        27        2.0000           -0.5027264             -13.6799
        28        2.0000           -0.4817554             -13.1092
        29        2.0000           -0.4801946             -13.0668
        30        2.0000           -0.4688521             -12.7581
        31        2.0000           -0.4368334             -11.8868
        32        2.0000           -0.4329366             -11.7808 (HOMO)
        33                         -0.2933104              -7.9814 (LUMO)
        34                         -0.1822117              -4.9582
        35                         -0.0493328              -1.3424
        36                          0.0158349               0.4309
        37                          0.0319083               0.8683
       ...                                ...                  ...
        51                          0.6788717              18.4730
      -------------------------------------------------------------
                  HL-Gap            0.1396262 Eh            3.7994 eV
             Fermi-level           -0.3631235 Eh           -9.8811 eV

 SCC (total)                   0 d,  0 h,  0 min,  0.005 sec
 SCC setup                      ...        0 min,  0.000 sec (  3.745%)
 Dispersion                     ...        0 min,  0.000 sec (  1.665%)
 classical contributions        ...        0 min,  0.000 sec (  0.658%)
 integral evaluation            ...        0 min,  0.001 sec ( 12.324%)
 iterations                     ...        0 min,  0.002 sec ( 40.882%)
 molecular gradient             ...        0 min,  0.002 sec ( 35.289%)
 printout                       ...        0 min,  0.000 sec (  4.991%)

         :::::::::::::::::::::::::::::::::::::::::::::::::::::
         ::                     SUMMARY                     ::
         :::::::::::::::::::::::::::::::::::::::::::::::::::::
         :: total energy             -38.734334612141 Eh    ::
         :: gradient norm              0.000164708231 Eh/a0 ::
         :: HOMO-LUMO gap              3.799421720948 eV    ::
         ::.................................................::
         :: SCC energy               -39.042801139553 Eh    ::
         :: -> isotropic ES            0.084749712214 Eh    ::
         :: -> anisotropic ES          0.001892122248 Eh    ::
         :: -> anisotropic XC         -0.015093705716 Eh    ::
         :: -> dispersion             -0.011882299483 Eh    ::
         :: repulsion energy           0.308466527412 Eh    ::
         :: add. restraining           0.000000000000 Eh    ::
         :: total charge              -0.000000000000 e     ::
         :::::::::::::::::::::::::::::::::::::::::::::::::::::

           -------------------------------------------------
          |                Property Printout                |
           -------------------------------------------------

    * Orbital Energies and Occupations

         #    Occupation            Energy/Eh            Energy/eV
      -------------------------------------------------------------
         1        2.0000           -0.8972350             -24.4150
       ...           ...                  ...                  ...
        20        2.0000           -0.5518554             -15.0168
        21        2.0000           -0.5491935             -14.9443
        22        2.0000           -0.5489742             -14.9383
        23        2.0000           -0.5464953             -14.8709
        24        2.0000           -0.5259758             -14.3125
        25        2.0000           -0.5122809             -13.9399
        26        2.0000           -0.5042189             -13.7205
        27        2.0000           -0.5027264             -13.6799
        28        2.0000           -0.4817554             -13.1092
        29        2.0000           -0.4801946             -13.0668
        30        2.0000           -0.4688521             -12.7581
        31        2.0000           -0.4368334             -11.8868
        32        2.0000           -0.4329366             -11.7808 (HOMO)
        33                         -0.2933104              -7.9814 (LUMO)
        34                         -0.1822117              -4.9582
        35                         -0.0493328              -1.3424
        36                          0.0158349               0.4309
        37                          0.0319083               0.8683
        38                          0.0733031               1.9947
        39                          0.0796041               2.1661
        40                          0.1003019               2.7294
        41                          0.1181417               3.2148
        42                          0.1366048               3.7172
        43                          0.1692743               4.6062
       ...                                ...                  ...
        51                          0.6788717              18.4730
      -------------------------------------------------------------
                  HL-Gap            0.1396262 Eh            3.7994 eV
             Fermi-level           -0.3631235 Eh           -9.8811 eV

     #   Z          covCN         q      C6AA      α(0)
     1   6 C        3.759    -0.119    22.834     6.813
     2   6 C        2.937    -0.004    28.112     8.696
     3   6 C        2.845    -0.077    29.906     8.962
     4   6 C        2.734     0.352    21.017     7.506
     5   8 O        0.856    -0.395    21.583     6.229
     6   8 O        1.706    -0.259    18.300     5.776
     7   6 C        3.712     0.068    19.563     6.320
     8   6 C        3.328     0.485    17.411     6.625
     9   9 F        0.791    -0.187    11.097     3.935
    10   9 F        0.791    -0.187    11.103     3.936
    11   9 F        0.791    -0.199    11.224     3.957
    12   1 H        0.925     0.063     2.160     2.298
    13   1 H        0.925     0.063     2.163     2.300
    14   1 H        0.925     0.073     2.048     2.238
    15   1 H        0.926     0.072     2.061     2.245
    16   1 H        0.926     0.068     2.108     2.270
    17   1 H        0.924     0.090     1.877     2.143
    18   1 H        0.924     0.091     1.869     2.138

 Mol. C6AA /au·bohr⁶  :       3285.769435
 Mol. C8AA /au·bohr⁸  :      72520.562278
 Mol. α(0) /au        :         84.387200


Wiberg/Mayer (AO) data.
largest (>0.10) Wiberg bond orders for each atom

 ---------------------------------------------------------------------------
     #   Z sym  total        # sym  WBO       # sym  WBO       # sym  WBO
 ---------------------------------------------------------------------------
     1   6 C    3.990 --     2 C    1.024    14 H    0.980    13 H    0.970
                            12 H    0.969
     2   6 C    3.984 --     3 C    1.867     1 C    1.024     4 C    1.008
     3   6 C    3.985 --     2 C    1.867    16 H    0.974    15 H    0.971
     4   6 C    3.905 --     5 O    1.750     6 O    1.066     2 C    1.008
     5   8 O    2.054 --     4 C    1.750     6 O    0.158
     6   8 O    2.276 --     4 C    1.066     7 C    0.978     5 O    0.158
     7   6 C    3.942 --     6 O    0.978    17 H    0.958    18 H    0.957
                             8 C    0.952
     8   6 C    3.850 --     9 F    0.962    10 F    0.961     7 C    0.952
                            11 F    0.951
     9   9 F    1.089 --     8 C    0.962
    10   9 F    1.089 --     8 C    0.961
    11   9 F    1.074 --     8 C    0.951
    12   1 H    0.996 --     1 C    0.969
    13   1 H    0.996 --     1 C    0.970
    14   1 H    0.995 --     1 C    0.980
    15   1 H    0.995 --     3 C    0.971
    16   1 H    0.995 --     3 C    0.974
    17   1 H    0.992 --     7 C    0.958
    18   1 H    0.992 --     7 C    0.957
 ---------------------------------------------------------------------------

Topologies differ in total number of bonds
Writing topology from bond orders to xtbtopo.mol

molecular dipole:
                 x           y           z       tot (Debye)
 q only:        1.060       0.260      -0.022
   full:        1.020       0.261      -0.022       2.676
molecular quadrupole (traceless):
                xx          xy          yy          xz          yz          zz
 q only:       -0.767       6.423       0.029      -3.182       0.723       0.738
  q+dip:       -2.129       7.049       0.467      -3.570       0.987       1.663
   full:       -2.206       7.270      -0.338      -3.721       1.770       2.544

           -------------------------------------------------
          |                Geometry Summary                 |
           -------------------------------------------------

      molecular mass/u    :      168.1140200
   center of mass at/Å    :       -1.0258428      -0.0283612      -0.1825922
  moments of inertia/u·Å² :        0.1987208E+03   0.9598007E+03   0.1064476E+04
rotational constants/cm⁻¹ :        0.8483073E-01   0.1756368E-01   0.1583655E-01

 * 15 selected distances

     #   Z          #   Z                                           value/Å
     2   6 C        3   6 C                                       1.3308111
     4   6 C        5   8 O                                       1.2039141
     4   6 C        6   8 O                                       1.3573513
     6   8 O        7   6 C                                       1.4104895
     7   6 C        8   6 C                                       1.5226181 (max)
     8   6 C        9   9 F                                       1.3350575
     8   6 C       10   9 F                                       1.3353601
     8   6 C       11   9 F                                       1.3406733
     1   6 C       12   1 H                                       1.0880738
     1   6 C       13   1 H                                       1.0879093
     1   6 C       14   1 H                                       1.0865165
     3   6 C       15   1 H                                       1.0752070 (min)
     3   6 C       16   1 H                                       1.0772392
     7   6 C       17   1 H                                       1.0971304
     7   6 C       18   1 H                                       1.0971494

 * 4 distinct bonds (by element types)

   Z      Z             #   av. dist./Å        max./Å        min./Å
   1 H    6 C           7     1.0870322     1.0971494     1.0752070
   6 C    6 C           2     1.4267146     1.5226181     1.3308111
   6 C    8 O           3     1.3239183     1.4104895     1.2039141
   6 C    9 F           3     1.3370303     1.3406733     1.3350575


optimized geometry written to: xtbopt.xyz


           -------------------------------------------------
          | TOTAL ENERGY              -38.734334612141 Eh   |
          | GRADIENT NORM               0.000164708231 Eh/α |
          | HOMO-LUMO GAP               3.799421720948 eV   |
           -------------------------------------------------
########################################################################
[WARNING] Runtime exception occurred
-2- restart_readRestart: Dimension missmatch in restart file.
-1- restart_readRestart: Number of electron missmatch in restart file.
########################################################################

------------------------------------------------------------------------
 * finished run on 2025/12/01 at 14:18:58.336     
------------------------------------------------------------------------
 total:
 * wall-time:     0 d,  0 h,  0 min,  0.122 sec
 *  cpu-time:     0 d,  0 h,  0 min,  2.419 sec
 * ratio c/w:    19.771 speedup
 SCF:
 * wall-time:     0 d,  0 h,  0 min,  0.020 sec
 *  cpu-time:     0 d,  0 h,  0 min,  0.440 sec
 * ratio c/w:    22.539 speedup
 ANC optimizer:
 * wall-time:     0 d,  0 h,  0 min,  0.077 sec
 *  cpu-time:     0 d,  0 h,  0 min,  1.746 sec
 * ratio c/w:    22.753 speedup

normal termination of xtb
