      -----------------------------------------------------------      
     |                   =====================                   |     
     |                           x T B                           |     
     |                   =====================                   |     
     |                         S. Grimme                         |     
     |          Mulliken Center for Theoretical Chemistry        |     
     |                    University of Bonn                     |     
      -----------------------------------------------------------      

   * xtb version 6.7.1 (edcfbbe) compiled by 'albert@albert-system' on 2024-07-22

   xtb is free software: you can redistribute it and/or modify it under
   the terms of the GNU Lesser General Public License as published by
   the Free Software Foundation, either version 3 of the License, or
   (at your option) any later version.
   
   xtb is distributed in the hope that it will be useful,
   but WITHOUT ANY WARRANTY; without even the implied warranty of
   MERCHANTABILITY or FITNESS FOR A PARTICULAR PURPOSE.  See the
   GNU Lesser General Public License for more details.
   
   Cite this work as:
   * C. Bannwarth, E. Caldeweyher, S. Ehlert, A. Hansen, P. Pracht,
     J. Seibert, S. Spicher, S. Grimme, WIREs Comput. Mol. Sci., 2020, 11,
     e01493. DOI: 10.1002/wcms.1493
   
   for GFN2-xTB:
   * C. Bannwarth, S. Ehlert and S. Grimme., J. Chem. Theory Comput., 2019,
     15, 1652-1671. DOI: 10.1021/acs.jctc.8b01176
   for GFN1-xTB:
   * S. Grimme, C. Bannwarth, P. Shushkov, J. Chem. Theory Comput., 2017,
     13, 1989-2009. DOI: 10.1021/acs.jctc.7b00118
   for GFN0-xTB:
   * P. Pracht, E. Caldeweyher, S. Ehlert, S. Grimme, ChemRxiv, 2019, preprint.
     DOI: 10.26434/chemrxiv.8326202.v1
   for GFN-FF:
   * S. Spicher and S. Grimme, Angew. Chem. Int. Ed., 2020, 59, 15665-15673.
     DOI: 10.1002/anie.202004239
   
   for ALPB and GBSA implicit solvation:
   * S. Ehlert, M. Stahn, S. Spicher, S. Grimme, J. Chem. Theory Comput.,
     2021, 17, 4250-4261. DOI: 10.1021/acs.jctc.1c00471
   
   for ddCOSMO and CPCM-X implicit solvation:
   * M. Stahn, S. Ehlert, S. Grimme, J. Phys. Chem. A,
     2023, XX, XXXX-XXXX. DOI: 10.1021/acs.jpca.3c04382
   
   for DFT-D4:
   * E. Caldeweyher, C. Bannwarth and S. Grimme, J. Chem. Phys., 2017,
     147, 034112. DOI: 10.1063/1.4993215
   * E. Caldeweyher, S. Ehlert, A. Hansen, H. Neugebauer, S. Spicher,
     C. Bannwarth and S. Grimme, J. Chem. Phys., 2019, 150, 154122.
     DOI: 10.1063/1.5090222
   * E. Caldeweyher, J.-M. Mewes, S. Ehlert and S. Grimme, Phys. Chem. Chem. Phys.
     2020, 22, 8499-8512. DOI: 10.1039/D0CP00502A
   
   for sTDA-xTB:
   * S. Grimme and C. Bannwarth, J. Chem. Phys., 2016, 145, 054103.
     DOI: 10.1063/1.4959605
   
   in the mass-spec context:
   * V. Asgeirsson, C. Bauer and S. Grimme, Chem. Sci., 2017, 8, 4879.
     DOI: 10.1039/c7sc00601b
   * J. Koopman and S. Grimme, ACS Omega 2019, 4, 12, 15120-15133.
     DOI: 10.1021/acsomega.9b02011
   
   for metadynamics refer to:
   * S. Grimme, J. Chem. Theory Comput., 2019, 155, 2847-2862
     DOI: 10.1021/acs.jctc.9b00143
   
   for SPH calculations refer to:
   * S. Spicher and S. Grimme, J. Chem. Theory Comput., 2021, 17, 1701-1714
     DOI: 10.1021/acs.jctc.0c01306
   
   for ONIOM refer to:
   * C. Plett, A. Katbashev, S. Ehlert, S. Grimme, M. Bursch,
     Phys. Chem. Chem. Phys., 2023, 25, 17860-17868. DOI: 10.1039/D3CP02178E
   
   for DIPRO refer to:
   * J. Kohn, N. Gildemeister, S. Grimme, D. Fazzi, A. Hansen,
     J. Chem. Phys., 2023, just accepted.
   
   for PTB refer to:
   * S. Grimme, M. Mueller, A. Hansen, J. Chem. Phys., 2023, 158, 124111.
     DOI: 10.1063/5.0137838
   
   with help from (in alphabetical order)
   P. Atkinson, C. Bannwarth, F. Bohle, G. Brandenburg, E. Caldeweyher
   M. Checinski, S. Dohm, S. Ehlert, S. Ehrlich, I. Gerasimov, C. Hölzer
   A. Katbashev, J. Kohn, J. Koopman, C. Lavigne, S. Lehtola, F. März, M. Müller,
   F. Musil, H. Neugebauer, J. Pisarek, C. Plett, P. Pracht, F. Pultar,
   J. Seibert, P. Shushkov, S. Spicher, M. Stahn, M. Steiner, T. Strunk,
   J. Stückrath, T. Rose, and J. Unsleber
   
 * started run on 2025/12/01 at 14:18:58.534     
   ID    Z sym.   atoms
    1    6 C      1-4, 7, 8
    2    8 O      5, 6
    3    9 F      9-11
    4    1 H      12-18

           -------------------------------------------------
          |                Calculation Setup                |
           -------------------------------------------------

          program call               : xtb pipeline_data/3_conformer_xyz/acrylates/rdkit/QTKPMCIBUROOGY-UHFFFAOYSA-N_conf214.xyz --opt --gfn 2-xTB --iterations 250
          coordinate file            : pipeline_data/3_conformer_xyz/acrylates/rdkit/QTKPMCIBUROOGY-UHFFFAOYSA-N_conf214.xyz
          omp threads                :                    24

########################################################################
[WARNING] Please study the warnings concerning your input carefully
-1- readin_getIntValue: could not parse '2-xTB'
########################################################################

           -------------------------------------------------
          |                 G F N 2 - x T B                 |
           -------------------------------------------------

        Reference                      10.1021/acs.jctc.8b01176
      * Hamiltonian:
        H0-scaling (s, p, d)           1.850000    2.230000    2.230000
        zeta-weighting                 0.500000
      * Dispersion:
        s8                             2.700000
        a1                             0.520000
        a2                             5.000000
        s9                             5.000000
      * Repulsion:
        kExp                           1.500000    1.000000
        rExp                           1.000000
      * Coulomb:
        alpha                          2.000000
        third order                    shell-resolved
        anisotropic                    true
        a3                             3.000000
        a5                             4.000000
        cn-shift                       1.200000
        cn-exp                         4.000000
        max-rad                        5.000000

q/qsh data taken from xtbrestart
CAMM data taken from xtbrestart

          ...................................................
          :                      SETUP                      :
          :.................................................:
          :  # basis functions                  51          :
          :  # atomic orbitals                  51          :
          :  # shells                           29          :
          :  # electrons                        64          :
          :  max. iterations                   250          :
          :  Hamiltonian                  GFN2-xTB          :
          :  restarted?                       true          :
          :  GBSA solvation                  false          :
          :  PC potential                    false          :
          :  electronic temp.          300.0000000     K    :
          :  accuracy                    1.0000000          :
          :  -> integral cutoff          0.2500000E+02      :
          :  -> integral neglect         0.1000000E-07      :
          :  -> SCF convergence          0.1000000E-05 Eh   :
          :  -> wf. convergence          0.1000000E-03 e    :
          :  Broyden damping             0.4000000          :
          :  net charge                          0          :
          :  unpaired electrons                  0          :
          ...................................................

 iter      E             dE          RMSdq      gap      omega  full diag
   1    -38.9817079 -0.389817E+02  0.242E+00    3.50       0.0  T
   2    -38.9864268 -0.471893E-02  0.146E+00    3.46       1.0  T
   3    -38.9857456  0.681245E-03  0.452E-01    3.57       1.0  T
   4    -38.9872945 -0.154895E-02  0.234E-01    3.47       1.0  T
   5    -38.9877707 -0.476174E-03  0.952E-02    3.50       1.0  T
   6    -38.9877799 -0.914991E-05  0.200E-02    3.50       1.2  T
   7    -38.9877812 -0.137435E-05  0.739E-03    3.50       3.2  T
   8    -38.9877814 -0.196766E-06  0.197E-03    3.50      12.0  T
   9    -38.9877814 -0.894278E-08  0.991E-04    3.50      23.8  T
  10    -38.9877814 -0.173925E-08  0.318E-04    3.50      74.0  T

   *** convergence criteria satisfied after 10 iterations ***

         #    Occupation            Energy/Eh            Energy/eV
      -------------------------------------------------------------
         1        2.0000           -0.8878538             -24.1597
       ...           ...                  ...                  ...
        26        2.0000           -0.5046161             -13.7313
        27        2.0000           -0.4973576             -13.5338
        28        2.0000           -0.4811411             -13.0925
        29        2.0000           -0.4718302             -12.8392
        30        2.0000           -0.4668071             -12.7025
        31        2.0000           -0.4361379             -11.8679
        32        2.0000           -0.4320731             -11.7573 (HOMO)
        33                         -0.3035088              -8.2589 (LUMO)
        34                         -0.1900609              -5.1718
        35                         -0.0914810              -2.4893
        36                         -0.0412735              -1.1231
        37                         -0.0273689              -0.7447
       ...                                ...                  ...
        51                          0.6015524              16.3691
      -------------------------------------------------------------
                  HL-Gap            0.1285643 Eh            3.4984 eV
             Fermi-level           -0.3677909 Eh          -10.0081 eV

 SCC (total)                   0 d,  0 h,  0 min,  0.017 sec
 SCC setup                      ...        0 min,  0.000 sec (  1.520%)
 Dispersion                     ...        0 min,  0.000 sec (  0.932%)
 classical contributions        ...        0 min,  0.000 sec (  0.634%)
 integral evaluation            ...        0 min,  0.001 sec (  3.971%)
 iterations                     ...        0 min,  0.013 sec ( 77.580%)
 molecular gradient             ...        0 min,  0.002 sec ( 11.483%)
 printout                       ...        0 min,  0.001 sec (  3.744%)

         :::::::::::::::::::::::::::::::::::::::::::::::::::::
         ::                     SUMMARY                     ::
         :::::::::::::::::::::::::::::::::::::::::::::::::::::
         :: total energy             -38.714347227375 Eh    ::
         :: gradient norm              0.150448532384 Eh/a0 ::
         :: HOMO-LUMO gap              3.498413459962 eV    ::
         ::.................................................::
         :: SCC energy               -38.987777322954 Eh    ::
         :: -> isotropic ES            0.089085694883 Eh    ::
         :: -> anisotropic ES          0.001400493874 Eh    ::
         :: -> anisotropic XC         -0.011075269976 Eh    ::
         :: -> dispersion             -0.011668520294 Eh    ::
         :: repulsion energy           0.273430095579 Eh    ::
         :: add. restraining           0.000000000000 Eh    ::
         :: total charge               0.000000000000 e     ::
         :::::::::::::::::::::::::::::::::::::::::::::::::::::

      ----------------------------------------------------------- 
     |                   =====================                   |
     |                        A N C O P T                        |
     |                   =====================                   |
     |               Approximate Normal Coordinate               |
     |                Rational Function Optimizer                |
      ----------------------------------------------------------- 
      ----------------------------------------------------------- 
     |                   =====================                   |
     |                        A N C O P T                        |
     |                   =====================                   |
     |               Approximate Normal Coordinate               |
     |                Rational Function Optimizer                |
      ----------------------------------------------------------- 

          ...................................................
          :                      SETUP                      :
          :.................................................:
          :   optimization level            normal          :
          :   max. optcycles                   200          :
          :   ANC micro-cycles                  20          :
          :   degrees of freedom                48          :
          :.................................................:
          :   RF solver                   davidson          :
          :   write xtbopt.log                true          :
          :   linear?                        false          :
          :   energy convergence         0.5000000E-05 Eh   :
          :   grad. convergence          0.1000000E-02 Eh/α :
          :   maxmium RF displ.          1.0000000          :
          :   Hlow (freq-cutoff)         0.1000000E-01      :
          :   Hmax (freq-cutoff)         5.0000000          :
          :   S6 in model hess.         20.0000000          :
          ...................................................

generating ANC from exact Hessian ...
Using Lindh-Hessian (1995)
 Shifting diagonal of input Hessian by   8.561626084102778E-003
 Lowest  eigenvalues of input Hessian
    0.000000    0.000000    0.000000    0.000000    0.000000    0.000000
    0.010000    0.011056    0.012093    0.017173    0.018508    0.020791
    0.022232    0.027469    0.028025    0.037411    0.041349    0.055413
 Highest eigenvalues
    1.485612    1.530409    1.607839    1.805800    1.898038    2.098687
 

........................................................................
.............................. CYCLE    1 ..............................
........................................................................

 iter      E             dE          RMSdq      gap      omega  full diag
   1    -38.9877814 -0.389878E+02  0.108E-04    3.50       0.0  T
   2    -38.9877814 -0.176641E-10  0.632E-05    3.50     372.8  T
   3    -38.9877814  0.281375E-11  0.427E-05    3.50     552.6  T
     SCC iter.                  ...        0 min,  0.003 sec
     gradient                   ...        0 min,  0.001 sec
 * total energy  :   -38.7143472 Eh     change       -0.7809788E-09 Eh
   gradient norm :     0.1504529 Eh/α   predicted     0.0000000E+00 (-100.00%)
   displ. norm   :     0.2817935 α      lambda       -0.2176768E-01
   maximum displ.:     0.1360900 α      in ANC's #8, #7, #11, ...

........................................................................
.............................. CYCLE    2 ..............................
........................................................................

 iter      E             dE          RMSdq      gap      omega  full diag
   1    -39.0224746 -0.390225E+02  0.311E-01    3.68       0.0  T
   2    -39.0229456 -0.470981E-03  0.189E-01    3.71       1.0  T
   3    -39.0229456  0.296356E-07  0.103E-01    3.72       1.0  T
   4    -39.0229374  0.814265E-05  0.631E-02    3.71       1.0  T
   5    -39.0229853 -0.478833E-04  0.837E-03    3.71       2.8  T
   6    -39.0229855 -0.221188E-06  0.374E-03    3.71       6.3  T
   7    -39.0229856 -0.312093E-07  0.121E-03    3.71      19.6  T
   8    -39.0229856 -0.422404E-08  0.605E-04    3.71      38.9  T
   9    -39.0229856 -0.103666E-08  0.115E-04    3.71     204.3  T
     SCC iter.                  ...        0 min,  0.008 sec
     gradient                   ...        0 min,  0.002 sec
 * total energy  :   -38.7299946 Eh     change       -0.1564740E-01 Eh
   gradient norm :     0.0652933 Eh/α   predicted    -0.1174809E-01 ( -24.92%)
   displ. norm   :     0.2916909 α      lambda       -0.7992301E-02
   maximum displ.:     0.1811512 α      in ANC's #8, #7, #11, ...

........................................................................
.............................. CYCLE    3 ..............................
........................................................................

 iter      E             dE          RMSdq      gap      omega  full diag
   1    -39.0443262 -0.390443E+02  0.275E-01    3.86       0.0  T
   2    -39.0446528 -0.326540E-03  0.157E-01    3.82       1.0  T
   3    -39.0446592 -0.646312E-05  0.756E-02    3.82       1.0  T
   4    -39.0446529  0.627990E-05  0.338E-02    3.81       1.0  T
   5    -39.0446669 -0.139501E-04  0.746E-03    3.81       3.2  T
   6    -39.0446672 -0.345107E-06  0.242E-03    3.81       9.8  T
   7    -39.0446672 -0.140612E-07  0.804E-04    3.81      29.3  T
   8    -39.0446672 -0.135437E-08  0.379E-04    3.81      62.2  T
     SCC iter.                  ...        0 min,  0.006 sec
     gradient                   ...        0 min,  0.001 sec
 * total energy  :   -38.7340879 Eh     change       -0.4093256E-02 Eh
   gradient norm :     0.0173959 Eh/α   predicted    -0.4336156E-02 (   5.93%)
   displ. norm   :     0.1201809 α      lambda       -0.6011492E-03
   maximum displ.:     0.0874078 α      in ANC's #8, #7, #11, ...

........................................................................
.............................. CYCLE    4 ..............................
........................................................................

 iter      E             dE          RMSdq      gap      omega  full diag
   1    -39.0429306 -0.390429E+02  0.656E-02    3.79       0.0  T
   2    -39.0429406 -0.100141E-04  0.433E-02    3.80       1.0  T
   3    -39.0429385  0.211280E-05  0.282E-02    3.80       1.0  T
   4    -39.0429434 -0.483633E-05  0.828E-03    3.80       2.8  T
   5    -39.0429442 -0.781259E-06  0.129E-03    3.80      18.3  T
   6    -39.0429442 -0.784055E-08  0.779E-04    3.80      30.3  T
   7    -39.0429442 -0.844700E-09  0.238E-04    3.80      99.1  T
     SCC iter.                  ...        0 min,  0.006 sec
     gradient                   ...        0 min,  0.001 sec
 * total energy  :   -38.7344703 Eh     change       -0.3824306E-03 Eh
   gradient norm :     0.0041755 Eh/α   predicted    -0.3049160E-03 ( -20.27%)
   displ. norm   :     0.0944746 α      lambda       -0.1491845E-03
   maximum displ.:     0.0632500 α      in ANC's #8, #7, #3, ...

........................................................................
.............................. CYCLE    5 ..............................
........................................................................

 iter      E             dE          RMSdq      gap      omega  full diag
   1    -39.0428538 -0.390429E+02  0.335E-02    3.80       0.0  T
   2    -39.0428555 -0.175184E-05  0.207E-02    3.80       1.1  T
   3    -39.0428549  0.692744E-06  0.114E-02    3.80       2.1  T
   4    -39.0428556 -0.780385E-06  0.404E-03    3.80       5.8  T
   5    -39.0428559 -0.226750E-06  0.705E-04    3.80      33.4  T
   6    -39.0428559 -0.255611E-08  0.317E-04    3.80      74.3  T
     SCC iter.                  ...        0 min,  0.005 sec
     gradient                   ...        0 min,  0.002 sec
 * total energy  :   -38.7345598 Eh     change       -0.8951602E-04 Eh
   gradient norm :     0.0027399 Eh/α   predicted    -0.7525695E-04 ( -15.93%)
   displ. norm   :     0.0581565 α      lambda       -0.4732531E-04
   maximum displ.:     0.0287036 α      in ANC's #8, #7, #3, ...

........................................................................
.............................. CYCLE    6 ..............................
........................................................................

 iter      E             dE          RMSdq      gap      omega  full diag
   1    -39.0431137 -0.390431E+02  0.229E-02    3.81       0.0  T
   2    -39.0431141 -0.396994E-06  0.135E-02    3.81       1.7  T
   3    -39.0431139  0.135315E-06  0.467E-03    3.81       5.0  T
   4    -39.0431141 -0.146555E-06  0.205E-03    3.81      11.5  T
   5    -39.0431141 -0.524400E-07  0.527E-04    3.81      44.7  T
   6    -39.0431141 -0.126391E-08  0.274E-04    3.81      85.9  T
     SCC iter.                  ...        0 min,  0.005 sec
     gradient                   ...        0 min,  0.002 sec
 * total energy  :   -38.7345889 Eh     change       -0.2907364E-04 Eh
   gradient norm :     0.0020692 Eh/α   predicted    -0.2374365E-04 ( -18.33%)
   displ. norm   :     0.0638317 α      lambda       -0.3384946E-04
   maximum displ.:     0.0371317 α      in ANC's #4, #3, #5, ...

........................................................................
.............................. CYCLE    7 ..............................
........................................................................

 iter      E             dE          RMSdq      gap      omega  full diag
   1    -39.0433368 -0.390433E+02  0.226E-02    3.81       0.0  T
   2    -39.0433369 -0.177554E-06  0.135E-02    3.81       1.7  T
   3    -39.0433363  0.666258E-06  0.803E-03    3.81       2.9  T
   4    -39.0433371 -0.798494E-06  0.126E-03    3.81      18.7  T
   5    -39.0433371 -0.117060E-07  0.475E-04    3.81      49.6  T
   6    -39.0433371 -0.514248E-09  0.230E-04    3.81     102.5  T
     SCC iter.                  ...        0 min,  0.005 sec
     gradient                   ...        0 min,  0.002 sec
 * total energy  :   -38.7346130 Eh     change       -0.2413623E-04 Eh
   gradient norm :     0.0014764 Eh/α   predicted    -0.1699481E-04 ( -29.59%)
   displ. norm   :     0.1374672 α      lambda       -0.3542034E-04
   maximum displ.:     0.0911150 α      in ANC's #4, #2, #5, ...

........................................................................
.............................. CYCLE    8 ..............................
........................................................................

 iter      E             dE          RMSdq      gap      omega  full diag
   1    -39.0434317 -0.390434E+02  0.474E-02    3.82       0.0  T
   2    -39.0434320 -0.348954E-06  0.285E-02    3.82       1.0  T
   3    -39.0434285  0.354475E-05  0.181E-02    3.82       1.3  T
   4    -39.0434326 -0.417653E-05  0.144E-03    3.82      16.4  T
   5    -39.0434327 -0.838372E-08  0.736E-04    3.82      32.0  T
   6    -39.0434327 -0.426340E-09  0.222E-04    3.82     106.2  T
     SCC iter.                  ...        0 min,  0.005 sec
     gradient                   ...        0 min,  0.002 sec
 * total energy  :   -38.7346489 Eh     change       -0.3584969E-04 Eh
   gradient norm :     0.0029171 Eh/α   predicted    -0.1786044E-04 ( -50.18%)
   displ. norm   :     0.1251100 α      lambda       -0.4429141E-04
   maximum displ.:     0.0879563 α      in ANC's #4, #2, #5, ...

........................................................................
.............................. CYCLE    9 ..............................
........................................................................

 iter      E             dE          RMSdq      gap      omega  full diag
   1    -39.0432144 -0.390432E+02  0.426E-02    3.82       0.0  T
   2    -39.0432146 -0.228019E-06  0.255E-02    3.82       1.0  T
   3    -39.0432132  0.138282E-05  0.108E-02    3.82       2.2  T
   4    -39.0432148 -0.157197E-05  0.129E-03    3.82      18.2  T
   5    -39.0432148 -0.110061E-07  0.664E-04    3.82      35.5  T
   6    -39.0432148 -0.457518E-09  0.247E-04    3.82      95.3  T
     SCC iter.                  ...        0 min,  0.005 sec
     gradient                   ...        0 min,  0.002 sec
 * total energy  :   -38.7346881 Eh     change       -0.3919230E-04 Eh
   gradient norm :     0.0035742 Eh/α   predicted    -0.2249170E-04 ( -42.61%)
   displ. norm   :     0.4070427 α      lambda       -0.1460756E-03
   maximum displ.:     0.2879576 α      in ANC's #4, #2, #5, ...

........................................................................
.............................. CYCLE   10 ..............................
........................................................................

 iter      E             dE          RMSdq      gap      omega  full diag
   1    -39.0403315 -0.390403E+02  0.137E-01    3.82       0.0  T
   2    -39.0403370 -0.550796E-05  0.810E-02    3.82       1.0  T
   3    -39.0403288  0.819317E-05  0.283E-02    3.82       1.0  T
   4    -39.0403382 -0.940123E-05  0.659E-03    3.82       3.6  T
   5    -39.0403387 -0.485254E-06  0.247E-03    3.82       9.5  T
   6    -39.0403387 -0.110672E-07  0.112E-03    3.82      21.0  T
   7    -39.0403387 -0.388826E-08  0.223E-04    3.82     105.7  T
   8    -39.0403387 -0.130036E-09  0.100E-04    3.82     234.8  T
     SCC iter.                  ...        0 min,  0.006 sec
     gradient                   ...        0 min,  0.001 sec
 * total energy  :   -38.7347039 Eh     change       -0.1576786E-04 Eh
   gradient norm :     0.0100623 Eh/α   predicted    -0.8513248E-04 ( 439.91%)
   displ. norm   :     0.1559200 α      lambda       -0.2229958E-03
   maximum displ.:     0.1069928 α      in ANC's #4, #2, #5, ...

........................................................................
.............................. CYCLE   11 ..............................
........................................................................

 iter      E             dE          RMSdq      gap      omega  full diag
   1    -39.0436497 -0.390436E+02  0.594E-02    3.82       0.0  T
   2    -39.0436538 -0.412453E-05  0.337E-02    3.82       1.0  T
   3    -39.0436523  0.151022E-05  0.157E-02    3.82       1.5  T
   4    -39.0436539 -0.164647E-05  0.577E-03    3.82       4.1  T
   5    -39.0436543 -0.404809E-06  0.138E-03    3.82      17.1  T
   6    -39.0436544 -0.414362E-08  0.577E-04    3.82      40.8  T
   7    -39.0436544 -0.986624E-09  0.133E-04    3.82     177.0  T
     SCC iter.                  ...        0 min,  0.006 sec
     gradient                   ...        0 min,  0.002 sec
 * total energy  :   -38.7347832 Eh     change       -0.7935264E-04 Eh
   gradient norm :     0.0030155 Eh/α   predicted    -0.1142104E-03 (  43.93%)
   displ. norm   :     0.0885058 α      lambda       -0.4195260E-04
   maximum displ.:     0.0618085 α      in ANC's #4, #2, #5, ...

........................................................................
.............................. CYCLE   12 ..............................
........................................................................

 iter      E             dE          RMSdq      gap      omega  full diag
   1    -39.0434163 -0.390434E+02  0.283E-02    3.82       0.0  T
   2    -39.0434165 -0.138984E-06  0.168E-02    3.82       1.4  T
   3    -39.0434165 -0.126441E-08  0.186E-03    3.82      12.7  T
   4    -39.0434165 -0.271702E-07  0.814E-04    3.82      29.0  T
   5    -39.0434165 -0.351201E-08  0.471E-04    3.82      50.0  T
     SCC iter.                  ...        0 min,  0.004 sec
     gradient                   ...        0 min,  0.002 sec
 * total energy  :   -38.7348205 Eh     change       -0.3733221E-04 Eh
   gradient norm :     0.0022665 Eh/α   predicted    -0.2114059E-04 ( -43.37%)
   displ. norm   :     0.4015617 α      lambda       -0.1430281E-03
   maximum displ.:     0.2847124 α      in ANC's #4, #2, #5, ...

........................................................................
.............................. CYCLE   13 ..............................
........................................................................

 iter      E             dE          RMSdq      gap      omega  full diag
   1    -39.0402128 -0.390402E+02  0.133E-01    3.83       0.0  T
   2    -39.0402185 -0.570218E-05  0.783E-02    3.83       1.0  T
   3    -39.0402186 -0.169451E-06  0.102E-02    3.83       2.3  T
   4    -39.0402190 -0.331937E-06  0.505E-03    3.83       4.7  T
   5    -39.0402192 -0.259779E-06  0.243E-03    3.83       9.7  T
   6    -39.0402192 -0.211060E-07  0.673E-04    3.83      35.0  T
   7    -39.0402192 -0.138476E-08  0.212E-04    3.83     111.3  T
     SCC iter.                  ...        0 min,  0.006 sec
     gradient                   ...        0 min,  0.001 sec
 * total energy  :   -38.7347914 Eh     change        0.2917949E-04 Eh
   gradient norm :     0.0104215 Eh/α   predicted    -0.8304492E-04 (-384.60%)
   displ. norm   :     0.2283597 α      lambda       -0.2728941E-03
   maximum displ.:     0.1627956 α      in ANC's #4, #2, #5, ...

........................................................................
.............................. CYCLE   14 ..............................
........................................................................

 iter      E             dE          RMSdq      gap      omega  full diag
   1    -39.0437348 -0.390437E+02  0.824E-02    3.83       0.0  T
   2    -39.0437391 -0.422773E-05  0.477E-02    3.83       1.0  T
   3    -39.0437383  0.738730E-06  0.127E-02    3.83       1.9  T
   4    -39.0437391 -0.786876E-06  0.575E-03    3.83       4.1  T
   5    -39.0437395 -0.430327E-06  0.174E-03    3.83      13.6  T
   6    -39.0437395 -0.763776E-08  0.712E-04    3.83      33.1  T
   7    -39.0437395 -0.185227E-08  0.171E-04    3.83     137.8  T
     SCC iter.                  ...        0 min,  0.006 sec
     gradient                   ...        0 min,  0.001 sec
 * total energy  :   -38.7348824 Eh     change       -0.9103138E-04 Eh
   gradient norm :     0.0014822 Eh/α   predicted    -0.1435609E-03 (  57.70%)
   displ. norm   :     0.0981692 α      lambda       -0.2024632E-04
   maximum displ.:     0.0717639 α      in ANC's #4, #2, #1, ...

........................................................................
.............................. CYCLE   15 ..............................
........................................................................

 iter      E             dE          RMSdq      gap      omega  full diag
   1    -39.0434168 -0.390434E+02  0.331E-02    3.83       0.0  T
   2    -39.0434169 -0.133365E-06  0.196E-02    3.83       1.2  T
   3    -39.0434166  0.326854E-06  0.524E-03    3.83       4.5  T
   4    -39.0434170 -0.376484E-06  0.969E-04    3.83      24.3  T
   5    -39.0434170 -0.741439E-08  0.431E-04    3.83      54.7  T
     SCC iter.                  ...        0 min,  0.004 sec
     gradient                   ...        0 min,  0.002 sec
 * total energy  :   -38.7349086 Eh     change       -0.2620435E-04 Eh
   gradient norm :     0.0019823 Eh/α   predicted    -0.1016749E-04 ( -61.20%)
   displ. norm   :     0.3747896 α      lambda       -0.6682114E-04
   maximum displ.:     0.2734661 α      in ANC's #4, #2, #1, ...

........................................................................
.............................. CYCLE   16 ..............................
........................................................................

 iter      E             dE          RMSdq      gap      omega  full diag
   1    -39.0410790 -0.390411E+02  0.118E-01    3.84       0.0  T
   2    -39.0410838 -0.476407E-05  0.697E-02    3.84       1.0  T
   3    -39.0410756  0.815887E-05  0.277E-02    3.84       1.0  T
   4    -39.0410848 -0.918159E-05  0.587E-03    3.84       4.0  T
   5    -39.0410852 -0.396428E-06  0.189E-03    3.84      12.5  T
   6    -39.0410852 -0.446072E-08  0.709E-04    3.84      33.2  T
   7    -39.0410852 -0.117416E-08  0.195E-04    3.84     121.1  T
     SCC iter.                  ...        0 min,  0.006 sec
     gradient                   ...        0 min,  0.002 sec
 * total energy  :   -38.7348861 Eh     change        0.2251456E-04 Eh
   gradient norm :     0.0088461 Eh/α   predicted    -0.3550016E-04 (-257.68%)
   displ. norm   :     0.1274825 α      lambda       -0.1401847E-03
   maximum displ.:     0.0905932 α      in ANC's #4, #2, #5, ...

........................................................................
.............................. CYCLE   17 ..............................
........................................................................

 iter      E             dE          RMSdq      gap      omega  full diag
   1    -39.0429997 -0.390430E+02  0.442E-02    3.84       0.0  T
   2    -39.0430013 -0.160769E-05  0.253E-02    3.84       1.0  T
   3    -39.0430008  0.535162E-06  0.941E-03    3.84       2.5  T
   4    -39.0430013 -0.565920E-06  0.370E-03    3.84       6.4  T
   5    -39.0430015 -0.177801E-06  0.980E-04    3.84      24.0  T
   6    -39.0430015 -0.254467E-08  0.367E-04    3.84      64.2  T
     SCC iter.                  ...        0 min,  0.005 sec
     gradient                   ...        0 min,  0.002 sec
 * total energy  :   -38.7349609 Eh     change       -0.7485683E-04 Eh
   gradient norm :     0.0032269 Eh/α   predicted    -0.7123288E-04 (  -4.84%)
   displ. norm   :     0.0258422 α      lambda       -0.1834688E-04
   maximum displ.:     0.0193370 α      in ANC's #4, #3, #2, ...

........................................................................
.............................. CYCLE   18 ..............................
........................................................................

 iter      E             dE          RMSdq      gap      omega  full diag
   1    -39.0435209 -0.390435E+02  0.105E-02    3.84       0.0  T
   2    -39.0435210 -0.647568E-07  0.612E-03    3.84       3.9  T
   3    -39.0435209  0.907144E-07  0.317E-03    3.84       7.4  T
   4    -39.0435210 -0.108118E-06  0.811E-04    3.84      29.1  T
   5    -39.0435210 -0.605887E-08  0.234E-04    3.84     100.8  T
     SCC iter.                  ...        0 min,  0.004 sec
     gradient                   ...        0 min,  0.002 sec
 * total energy  :   -38.7349756 Eh     change       -0.1468678E-04 Eh
   gradient norm :     0.0018955 Eh/α   predicted    -0.9178176E-05 ( -37.51%)
   displ. norm   :     0.1340553 α      lambda       -0.3038103E-04
   maximum displ.:     0.1087113 α      in ANC's #4, #2, #3, ...

........................................................................
.............................. CYCLE   19 ..............................
........................................................................

 iter      E             dE          RMSdq      gap      omega  full diag
   1    -39.0446049 -0.390446E+02  0.402E-02    3.85       0.0  T
   2    -39.0446053 -0.331627E-06  0.243E-02    3.85       1.0  T
   3    -39.0446029  0.234727E-05  0.146E-02    3.85       1.6  T
   4    -39.0446057 -0.275133E-05  0.145E-03    3.85      16.2  T
   5    -39.0446057 -0.126093E-07  0.610E-04    3.85      38.7  T
   6    -39.0446057 -0.369113E-09  0.171E-04    3.85     138.2  T
     SCC iter.                  ...        0 min,  0.005 sec
     gradient                   ...        0 min,  0.002 sec
 * total energy  :   -38.7350035 Eh     change       -0.2784815E-04 Eh
   gradient norm :     0.0011987 Eh/α   predicted    -0.1531292E-04 ( -45.01%)
   displ. norm   :     0.2289830 α      lambda       -0.2670471E-04
   maximum displ.:     0.1893975 α      in ANC's #4, #2, #5, ...

........................................................................
.............................. CYCLE   20 ..............................
........................................................................

 iter      E             dE          RMSdq      gap      omega  full diag
   1    -39.0432316 -0.390432E+02  0.717E-02    3.86       0.0  T
   2    -39.0432328 -0.125885E-05  0.425E-02    3.86       1.0  T
   3    -39.0432296  0.323225E-05  0.168E-02    3.86       1.4  T
   4    -39.0432332 -0.364447E-05  0.277E-03    3.86       8.5  T
   5    -39.0432333 -0.739279E-07  0.102E-03    3.86      23.1  T
   6    -39.0432333 -0.721066E-09  0.348E-04    3.86      67.7  T
   7    -39.0432333 -0.405237E-09  0.979E-05    3.86     240.7  T
     SCC iter.                  ...        0 min,  0.006 sec
     gradient                   ...        0 min,  0.001 sec
 * total energy  :   -38.7350167 Eh     change       -0.1319663E-04 Eh
   gradient norm :     0.0033686 Eh/α   predicted    -0.1366338E-04 (   3.54%)
   displ. norm   :     0.0401209 α      lambda       -0.1887231E-04
   maximum displ.:     0.0258724 α      in ANC's #4, #2, #3, ...
 * RMSD in coord.:     0.4133522 α      energy gain  -0.2066944E-01 Eh

generating ANC from exact Hessian ...
Using Lindh-Hessian (1995)
 Shifting diagonal of input Hessian by   8.514067620138127E-003
 Lowest  eigenvalues of input Hessian
    0.000000    0.000000    0.000000    0.000000    0.000000    0.000000
    0.010000    0.011034    0.012353    0.017627    0.019421    0.021621
    0.022994    0.027206    0.030606    0.039411    0.044362    0.060601
 Highest eigenvalues
    1.516197    1.754736    1.761198    1.834996    1.908708    2.375721
 

........................................................................
.............................. CYCLE   21 ..............................
........................................................................

 iter      E             dE          RMSdq      gap      omega  full diag
   1    -39.0439417 -0.390439E+02  0.179E-02    3.86       0.0  T
   2    -39.0439419 -0.170307E-06  0.105E-02    3.86       2.3  T
   3    -39.0439417  0.224721E-06  0.484E-03    3.86       4.9  T
   4    -39.0439419 -0.256469E-06  0.104E-03    3.86      22.6  T
   5    -39.0439419 -0.122214E-07  0.313E-04    3.86      75.2  T
   6    -39.0439419 -0.118732E-09  0.146E-04    3.86     161.8  T
     SCC iter.                  ...        0 min,  0.005 sec
     gradient                   ...        0 min,  0.002 sec
 * total energy  :   -38.7350291 Eh     change       -0.1242585E-04 Eh
   gradient norm :     0.0015105 Eh/α   predicted     0.0000000E+00 (-100.00%)
   displ. norm   :     0.0224775 α      lambda       -0.7252318E-05
   maximum displ.:     0.0135494 α      in ANC's #3, #4, #1, ...

........................................................................
.............................. CYCLE   22 ..............................
........................................................................

 iter      E             dE          RMSdq      gap      omega  full diag
   1    -39.0444069 -0.390444E+02  0.101E-02    3.86       0.0  T
   2    -39.0444070 -0.889175E-07  0.587E-03    3.86       4.0  T
   3    -39.0444069  0.940987E-07  0.348E-03    3.86       6.8  T
   4    -39.0444070 -0.118586E-06  0.734E-04    3.86      32.1  T
   5    -39.0444070 -0.467628E-08  0.270E-04    3.86      87.2  T
     SCC iter.                  ...        0 min,  0.005 sec
     gradient                   ...        0 min,  0.001 sec
 * total energy  :   -38.7350363 Eh     change       -0.7177978E-05 Eh
   gradient norm :     0.0004462 Eh/α   predicted    -0.3625586E-05 ( -49.49%)
   displ. norm   :     0.0430594 α      lambda       -0.5990841E-05
   maximum displ.:     0.0243166 α      in ANC's #3, #4, #1, ...

........................................................................
.............................. CYCLE   23 ..............................
........................................................................

 iter      E             dE          RMSdq      gap      omega  full diag
   1    -39.0445460 -0.390445E+02  0.158E-02    3.86       0.0  T
   2    -39.0445460 -0.404070E-07  0.946E-03    3.86       2.5  T
   3    -39.0445458  0.204123E-06  0.419E-03    3.86       5.6  T
   4    -39.0445461 -0.238417E-06  0.550E-04    3.86      42.8  T
   5    -39.0445461 -0.880149E-09  0.273E-04    3.86      86.5  T
     SCC iter.                  ...        0 min,  0.004 sec
     gradient                   ...        0 min,  0.002 sec
 * total energy  :   -38.7350435 Eh     change       -0.7186310E-05 Eh
   gradient norm :     0.0008681 Eh/α   predicted    -0.2997016E-05 ( -58.30%)
   displ. norm   :     0.1247413 α      lambda       -0.1381758E-04
   maximum displ.:     0.0732583 α      in ANC's #4, #3, #1, ...

........................................................................
.............................. CYCLE   24 ..............................
........................................................................

 iter      E             dE          RMSdq      gap      omega  full diag
   1    -39.0443461 -0.390443E+02  0.447E-02    3.86       0.0  T
   2    -39.0443464 -0.291142E-06  0.268E-02    3.86       1.0  T
   3    -39.0443450  0.140289E-05  0.108E-02    3.86       2.2  T
   4    -39.0443467 -0.163457E-05  0.155E-03    3.86      15.2  T
   5    -39.0443467 -0.849617E-08  0.750E-04    3.86      31.4  T
   6    -39.0443467 -0.898922E-09  0.259E-04    3.86      90.9  T
     SCC iter.                  ...        0 min,  0.005 sec
     gradient                   ...        0 min,  0.002 sec
 * total energy  :   -38.7350550 Eh     change       -0.1151954E-04 Eh
   gradient norm :     0.0015066 Eh/α   predicted    -0.6957081E-05 ( -39.61%)
   displ. norm   :     0.1056720 α      lambda       -0.1070262E-04
   maximum displ.:     0.0622931 α      in ANC's #4, #1, #3, ...

........................................................................
.............................. CYCLE   25 ..............................
........................................................................

 iter      E             dE          RMSdq      gap      omega  full diag
   1    -39.0439955 -0.390440E+02  0.406E-02    3.86       0.0  T
   2    -39.0439957 -0.202275E-06  0.242E-02    3.86       1.0  T
   3    -39.0439956  0.693793E-07  0.349E-03    3.86       6.8  T
   4    -39.0439958 -0.147795E-06  0.150E-03    3.86      15.7  T
   5    -39.0439958 -0.146140E-07  0.730E-04    3.86      32.3  T
   6    -39.0439958 -0.125137E-08  0.239E-04    3.86      98.7  T
     SCC iter.                  ...        0 min,  0.004 sec
     gradient                   ...        0 min,  0.001 sec
 * total energy  :   -38.7350629 Eh     change       -0.7871327E-05 Eh
   gradient norm :     0.0012928 Eh/α   predicted    -0.5378541E-05 ( -31.67%)
   displ. norm   :     0.0409858 α      lambda       -0.6337420E-05
   maximum displ.:     0.0245684 α      in ANC's #4, #1, #5, ...

........................................................................
.............................. CYCLE   26 ..............................
........................................................................

 iter      E             dE          RMSdq      gap      omega  full diag
   1    -39.0441460 -0.390441E+02  0.153E-02    3.86       0.0  T
   2    -39.0441460 -0.418575E-07  0.922E-03    3.86       2.6  T
   3    -39.0441458  0.170471E-06  0.380E-03    3.86       6.2  T
   4    -39.0441460 -0.198833E-06  0.571E-04    3.86      41.3  T
   5    -39.0441460 -0.141426E-08  0.292E-04    3.86      80.8  T
     SCC iter.                  ...        0 min,  0.003 sec
     gradient                   ...        0 min,  0.002 sec
 * total energy  :   -38.7350709 Eh     change       -0.8079570E-05 Eh
   gradient norm :     0.0008882 Eh/α   predicted    -0.3170210E-05 ( -60.76%)
   displ. norm   :     0.1705219 α      lambda       -0.1800130E-04
   maximum displ.:     0.0993000 α      in ANC's #4, #1, #5, ...

........................................................................
.............................. CYCLE   27 ..............................
........................................................................

 iter      E             dE          RMSdq      gap      omega  full diag
   1    -39.0436393 -0.390436E+02  0.678E-02    3.85       0.0  T
   2    -39.0436400 -0.667734E-06  0.405E-02    3.85       1.0  T
   3    -39.0436402 -0.184158E-06  0.334E-03    3.85       7.1  T
   4    -39.0436402 -0.535503E-07  0.173E-03    3.85      13.6  T
   5    -39.0436402 -0.586898E-08  0.813E-04    3.85      29.0  T
   6    -39.0436402 -0.994639E-09  0.227E-04    3.85     103.6  T
     SCC iter.                  ...        0 min,  0.004 sec
     gradient                   ...        0 min,  0.002 sec
 * total energy  :   -38.7350837 Eh     change       -0.1272836E-04 Eh
   gradient norm :     0.0024931 Eh/α   predicted    -0.9115139E-05 ( -28.39%)
   displ. norm   :     0.0208837 α      lambda       -0.8593248E-05
   maximum displ.:     0.0162438 α      in ANC's #3, #1, #7, ...

........................................................................
.............................. CYCLE   28 ..............................
........................................................................

 iter      E             dE          RMSdq      gap      omega  full diag
   1    -39.0440519 -0.390441E+02  0.797E-03    3.86       0.0  T
   2    -39.0440520 -0.607774E-07  0.480E-03    3.86       4.9  T
   3    -39.0440520  0.136194E-07  0.155E-03    3.86      15.2  T
   4    -39.0440520 -0.160407E-07  0.746E-04    3.86      31.6  T
   5    -39.0440520 -0.659551E-08  0.200E-04    3.86     118.1  T
     SCC iter.                  ...        0 min,  0.004 sec
     gradient                   ...        0 min,  0.002 sec
 * total energy  :   -38.7350898 Eh     change       -0.6165793E-05 Eh
   gradient norm :     0.0015238 Eh/α   predicted    -0.4297051E-05 ( -30.31%)
   displ. norm   :     0.0716442 α      lambda       -0.7043525E-05
   maximum displ.:     0.0436816 α      in ANC's #1, #4, #3, ...

........................................................................
.............................. CYCLE   29 ..............................
........................................................................

 iter      E             dE          RMSdq      gap      omega  full diag
   1    -39.0444249 -0.390444E+02  0.279E-02    3.86       0.0  T
   2    -39.0444250 -0.105340E-06  0.166E-02    3.86       1.4  T
   3    -39.0444249  0.912936E-07  0.341E-03    3.86       6.9  T
   4    -39.0444251 -0.144939E-06  0.977E-04    3.86      24.1  T
   5    -39.0444251 -0.382356E-08  0.514E-04    3.86      45.8  T
     SCC iter.                  ...        0 min,  0.004 sec
     gradient                   ...        0 min,  0.002 sec
 * total energy  :   -38.7350970 Eh     change       -0.7195353E-05 Eh
   gradient norm :     0.0009186 Eh/α   predicted    -0.3529329E-05 ( -50.95%)
   displ. norm   :     0.1100673 α      lambda       -0.6244922E-05
   maximum displ.:     0.0643857 α      in ANC's #1, #4, #5, ...

........................................................................
.............................. CYCLE   30 ..............................
........................................................................

 iter      E             dE          RMSdq      gap      omega  full diag
   1    -39.0441950 -0.390442E+02  0.449E-02    3.86       0.0  T
   2    -39.0441952 -0.189490E-06  0.267E-02    3.86       1.0  T
   3    -39.0441946  0.518954E-06  0.685E-03    3.86       3.4  T
   4    -39.0441953 -0.670645E-06  0.140E-03    3.86      16.8  T
   5    -39.0441953 -0.305567E-08  0.584E-04    3.86      40.3  T
   6    -39.0441953 -0.880767E-09  0.175E-04    3.86     134.3  T
     SCC iter.                  ...        0 min,  0.004 sec
     gradient                   ...        0 min,  0.002 sec
 * total energy  :   -38.7351040 Eh     change       -0.6990391E-05 Eh
   gradient norm :     0.0006682 Eh/α   predicted    -0.3137352E-05 ( -55.12%)
   displ. norm   :     0.0972450 α      lambda       -0.4207447E-05
   maximum displ.:     0.0603368 α      in ANC's #1, #5, #4, ...

........................................................................
.............................. CYCLE   31 ..............................
........................................................................

 iter      E             dE          RMSdq      gap      omega  full diag
   1    -39.0442198 -0.390442E+02  0.405E-02    3.86       0.0  T
   2    -39.0442199 -0.165425E-06  0.241E-02    3.86       1.0  T
   3    -39.0442198  0.138325E-06  0.431E-03    3.86       5.5  T
   4    -39.0442201 -0.246341E-06  0.126E-03    3.86      18.7  T
   5    -39.0442201 -0.354959E-08  0.471E-04    3.86      50.0  T
   6    -39.0442201 -0.344336E-09  0.149E-04    3.86     158.3  T
     SCC iter.                  ...        0 min,  0.004 sec
     gradient                   ...        0 min,  0.001 sec
 * total energy  :   -38.7351075 Eh     change       -0.3510597E-05 Eh
   gradient norm :     0.0006801 Eh/α   predicted    -0.2114010E-05 ( -39.78%)
   displ. norm   :     0.0640543 α      lambda       -0.1807305E-05
   maximum displ.:     0.0387207 α      in ANC's #1, #5, #4, ...

   *** GEOMETRY OPTIMIZATION CONVERGED AFTER 31 ITERATIONS ***

------------------------------------------------------------------------
 total energy gain   :        -0.0207603 Eh      -13.0273 kcal/mol
 total RMSD          :         0.4959942 a0        0.2625 Å
 total power (kW/mol):        -1.7582626 (step) -220.2403 (real)
------------------------------------------------------------------------

 ANCopt (total)                0 d,  0 h,  0 min,  0.248 sec
 optimizer setup                ...        0 min,  0.000 sec (  0.036%)
 model hessian                  ...        0 min,  0.006 sec (  2.395%)
 ANC generation                 ...        0 min,  0.001 sec (  0.334%)
 coordinate transformation      ...        0 min,  0.000 sec (  0.091%)
 single point calculation       ...        0 min,  0.226 sec ( 91.212%)
 optimization log               ...        0 min,  0.002 sec (  1.006%)
 hessian update                 ...        0 min,  0.007 sec (  2.756%)
 rational function              ...        0 min,  0.004 sec (  1.667%)

================
 final structure:
================
18
 xtb: 6.7.1 (edcfbbe)
C           -2.92712060955322       -0.64114286888490       -0.08255894077824
C           -1.66190691425465        0.15510098074323       -0.03304349471830
C           -1.61287284455144        1.48409953083731       -0.02067776479704
C           -0.42854078387589       -0.66258693086296        0.01347840803597
O           -0.38941494495726       -1.86357768919728        0.08126464361855
O            0.70226881688311        0.08842034775080       -0.02979985527091
C            1.91174532961914       -0.63507713686094        0.02246440079789
C            3.04677411562214        0.37895224340388        0.06773426973477
F            4.23255952922789       -0.23950732978726        0.16356634328689
F            2.95164716963515        1.20279283883007        1.11397884969527
F            3.09350723501718        1.14012681571649       -1.02881935781651
H           -2.95218497495331       -1.24058775581592       -0.99130385889322
H           -2.96256092252235       -1.33103549217522        0.75867269893474
H           -3.79511401463996        0.01036412624354       -0.05645169760733
H           -0.67958906384828        2.01733344678449        0.01670066261214
H           -2.51355381344445        2.07406493864366       -0.04905367184019
H            1.95375180936992       -1.26631058438322        0.91886471839402
H            2.03060588122625       -1.26901648098568       -0.86501535338848
 
 Bond Distances (Angstroems)
 ---------------------------
C1-C2=1.4957         C1-H12=1.0889        C1-H13=1.0885        C1-H14=1.0856        C2-C1=1.4957         C2-C3=1.3300         
C2-C4=1.4805         C3-C2=1.3300         C3-H15=1.0755        C3-H16=1.0771        C4-C2=1.4805         C4-O5=1.2035         
C4-O6=1.3582         O5-C4=1.2035         O6-C4=1.3582         O6-C7=1.4103         C7-O6=1.4103         C7-C8=1.5227         
C7-H17=1.0972        C7-H18=1.0971        C8-C7=1.5227         C8-F9=1.3408         C8-F10=1.3351        C8-F11=1.3357        
F9-C8=1.3408         F10-C8=1.3351        F11-C8=1.3357        H12-C1=1.0889        H13-C1=1.0885        H14-C1=1.0856        
H15-C3=1.0755        H16-C3=1.0771        H17-C7=1.0972        H18-C7=1.0971        
 C  H  Rav=1.0871 sigma=0.0080  Rmin=1.0755  Rmax=1.0972     7
 C  C  Rav=1.4572 sigma=0.0750  Rmin=1.3300  Rmax=1.5227     4
 O  C  Rav=1.3240 sigma=0.0878  Rmin=1.2035  Rmax=1.4103     3
 F  C  Rav=1.3372 sigma=0.0026  Rmin=1.3351  Rmax=1.3408     3
 
 selected bond angles (degree)
 --------------------
H12-C1-C2=109.89               H13-C1-C2=109.84               H13-C1-H12=107.18              H14-C1-C2=110.86               
H14-C1-H12=109.39              H14-C1-H13=109.62              C3-C2-C1=124.29                C4-C2-C1=114.31                
C4-C2-C3=121.39                H15-C3-C2=121.85               H16-C3-C2=121.08               H16-C3-H15=117.06              
O5-C4-C2=125.45                O6-C4-C2=112.78                O6-C4-O5=121.77                C7-O6-C4=115.42                
C8-C7-O6=107.38                H17-C7-O6=110.99               H17-C7-C8=109.29               H18-C7-O6=111.06               
H18-C7-C8=109.15               H18-C7-H17=108.92              F9-C8-C7=110.74                F10-C8-C7=112.40               
F10-C8-F9=106.96               F11-C8-C7=112.41               F11-C8-F9=106.89               F11-C8-F10=107.11              
 
 selected dihedral angles (degree)
 ---------------------------------
C3-C2-C1-H12=118.19           C3-C2-C1-H13=235.86           C3-C2-C1-H14=357.15           C4-C2-C1-H12=297.72           
C4-C2-C1-H13= 55.39           C4-C2-C1-H14=176.68           H15-C3-C2-C1=179.92           H15-C3-C2-C4=  0.42           
H16-C3-C2-C1=359.85           H16-C3-C2-C4=180.35           O5-C4-C2-C1=356.05            O5-C4-C2-C3=175.59            
O6-C4-C2-C1=175.99            O6-C4-C2-C3=355.54            C7-O6-C4-C2=179.50            C7-O6-C4-O5=359.45            
C8-C7-O6-C4=184.15            H17-C7-O6-C4=303.55           H18-C7-O6-C4= 64.88           F9-C8-C7-O6=177.95            
F9-C8-C7-H17= 57.47           F9-C8-C7-H18=298.44           F10-C8-C7-O6= 58.39           F10-C8-C7-H17=297.91          
F10-C8-C7-H18=178.87          F11-C8-C7-O6=297.44           F11-C8-C7-H17=176.96          F11-C8-C7-H18= 57.93          
           -------------------------------------------------
          |                Final Singlepoint                |
           -------------------------------------------------

          ...................................................
          :                      SETUP                      :
          :.................................................:
          :  # basis functions                  51          :
          :  # atomic orbitals                  51          :
          :  # shells                           29          :
          :  # electrons                        64          :
          :  max. iterations                   250          :
          :  Hamiltonian                  GFN2-xTB          :
          :  restarted?                      false          :
          :  GBSA solvation                  false          :
          :  PC potential                    false          :
          :  electronic temp.          300.0000000     K    :
          :  accuracy                    1.0000000          :
          :  -> integral cutoff          0.2500000E+02      :
          :  -> integral neglect         0.1000000E-07      :
          :  -> SCF convergence          0.1000000E-05 Eh   :
          :  -> wf. convergence          0.1000000E-03 e    :
          :  Broyden damping             0.4000000          :
          :  net charge                          0          :
          :  unpaired electrons                  0          :
          ...................................................

 iter      E             dE          RMSdq      gap      omega  full diag
   1    -39.0442201 -0.390442E+02  0.497E-05    3.86       0.0  T
   2    -39.0442201 -0.590461E-11  0.276E-05    3.86     855.1  T
   3    -39.0442201 -0.376588E-12  0.146E-05    3.86    1611.4  T

   *** convergence criteria satisfied after 3 iterations ***

         #    Occupation            Energy/Eh            Energy/eV
      -------------------------------------------------------------
         1        2.0000           -0.8971044             -24.4115
       ...           ...                  ...                  ...
        26        2.0000           -0.5024382             -13.6720
        27        2.0000           -0.5019468             -13.6587
        28        2.0000           -0.4846047             -13.1868
        29        2.0000           -0.4812589             -13.0957
        30        2.0000           -0.4700627             -12.7911
        31        2.0000           -0.4359800             -11.8636
        32        2.0000           -0.4335084             -11.7964 (HOMO)
        33                         -0.2917884              -7.9400 (LUMO)
        34                         -0.1817334              -4.9452
        35                         -0.0489209              -1.3312
        36                          0.0157713               0.4292
        37                          0.0317219               0.8632
       ...                                ...                  ...
        51                          0.6811085              18.5339
      -------------------------------------------------------------
                  HL-Gap            0.1417200 Eh            3.8564 eV
             Fermi-level           -0.3626484 Eh           -9.8682 eV

 SCC (total)                   0 d,  0 h,  0 min,  0.005 sec
 SCC setup                      ...        0 min,  0.000 sec (  1.718%)
 Dispersion                     ...        0 min,  0.000 sec (  3.565%)
 classical contributions        ...        0 min,  0.000 sec (  0.758%)
 integral evaluation            ...        0 min,  0.000 sec (  9.269%)
 iterations                     ...        0 min,  0.002 sec ( 48.477%)
 molecular gradient             ...        0 min,  0.001 sec ( 30.583%)
 printout                       ...        0 min,  0.000 sec (  5.226%)

         :::::::::::::::::::::::::::::::::::::::::::::::::::::
         ::                     SUMMARY                     ::
         :::::::::::::::::::::::::::::::::::::::::::::::::::::
         :: total energy             -38.735107520412 Eh    ::
         :: gradient norm              0.000679254769 Eh/a0 ::
         :: HOMO-LUMO gap              3.856398230142 eV    ::
         ::.................................................::
         :: SCC energy               -39.044213102432 Eh    ::
         :: -> isotropic ES            0.084619982112 Eh    ::
         :: -> anisotropic ES          0.002576872004 Eh    ::
         :: -> anisotropic XC         -0.015139984665 Eh    ::
         :: -> dispersion             -0.011897777281 Eh    ::
         :: repulsion energy           0.309105582020 Eh    ::
         :: add. restraining           0.000000000000 Eh    ::
         :: total charge              -0.000000000000 e     ::
         :::::::::::::::::::::::::::::::::::::::::::::::::::::

           -------------------------------------------------
          |                Property Printout                |
           -------------------------------------------------

    * Orbital Energies and Occupations

         #    Occupation            Energy/Eh            Energy/eV
      -------------------------------------------------------------
         1        2.0000           -0.8971044             -24.4115
       ...           ...                  ...                  ...
        20        2.0000           -0.5517061             -15.0127
        21        2.0000           -0.5490936             -14.9416
        22        2.0000           -0.5488554             -14.9351
        23        2.0000           -0.5464763             -14.8704
        24        2.0000           -0.5261657             -14.3177
        25        2.0000           -0.5119791             -13.9317
        26        2.0000           -0.5024382             -13.6720
        27        2.0000           -0.5019468             -13.6587
        28        2.0000           -0.4846047             -13.1868
        29        2.0000           -0.4812589             -13.0957
        30        2.0000           -0.4700627             -12.7911
        31        2.0000           -0.4359800             -11.8636
        32        2.0000           -0.4335084             -11.7964 (HOMO)
        33                         -0.2917884              -7.9400 (LUMO)
        34                         -0.1817334              -4.9452
        35                         -0.0489209              -1.3312
        36                          0.0157713               0.4292
        37                          0.0317219               0.8632
        38                          0.0733439               1.9958
        39                          0.0805085               2.1907
        40                          0.0987928               2.6883
        41                          0.1170310               3.1846
        42                          0.1370521               3.7294
        43                          0.1686068               4.5880
       ...                                ...                  ...
        51                          0.6811085              18.5339
      -------------------------------------------------------------
                  HL-Gap            0.1417200 Eh            3.8564 eV
             Fermi-level           -0.3626484 Eh           -9.8682 eV

     #   Z          covCN         q      C6AA      α(0)
     1   6 C        3.759    -0.114    22.737     6.798
     2   6 C        2.938    -0.004    28.113     8.696
     3   6 C        2.845    -0.077    29.910     8.963
     4   6 C        2.734     0.352    21.028     7.508
     5   8 O        0.856    -0.393    21.550     6.224
     6   8 O        1.706    -0.260    18.313     5.778
     7   6 C        3.711     0.068    19.566     6.321
     8   6 C        3.328     0.485    17.412     6.625
     9   9 F        0.791    -0.199    11.225     3.958
    10   9 F        0.791    -0.186    11.096     3.935
    11   9 F        0.791    -0.187    11.104     3.936
    12   1 H        0.925     0.068     2.104     2.268
    13   1 H        0.925     0.071     2.074     2.252
    14   1 H        0.925     0.058     2.224     2.332
    15   1 H        0.926     0.072     2.066     2.248
    16   1 H        0.926     0.067     2.121     2.277
    17   1 H        0.924     0.091     1.866     2.136
    18   1 H        0.924     0.089     1.885     2.147

 Mol. C6AA /au·bohr⁶  :       3286.690053
 Mol. C8AA /au·bohr⁸  :      72526.255000
 Mol. α(0) /au        :         84.401891


Wiberg/Mayer (AO) data.
largest (>0.10) Wiberg bond orders for each atom

 ---------------------------------------------------------------------------
     #   Z sym  total        # sym  WBO       # sym  WBO       # sym  WBO
 ---------------------------------------------------------------------------
     1   6 C    3.992 --     2 C    1.028    14 H    0.984    13 H    0.966
                            12 H    0.965
     2   6 C    3.985 --     3 C    1.864     1 C    1.028     4 C    1.007
     3   6 C    3.985 --     2 C    1.864    16 H    0.973    15 H    0.971
     4   6 C    3.906 --     5 O    1.755     6 O    1.065     2 C    1.007
     5   8 O    2.052 --     4 C    1.755     6 O    0.159
     6   8 O    2.275 --     4 C    1.065     7 C    0.978     5 O    0.159
     7   6 C    3.942 --     6 O    0.978    18 H    0.958    17 H    0.957
                             8 C    0.952
     8   6 C    3.850 --    10 F    0.962    11 F    0.961     7 C    0.952
                             9 F    0.950
     9   9 F    1.074 --     8 C    0.950
    10   9 F    1.090 --     8 C    0.962
    11   9 F    1.089 --     8 C    0.961
    12   1 H    0.995 --     1 C    0.965
    13   1 H    0.995 --     1 C    0.966
    14   1 H    0.996 --     1 C    0.984
    15   1 H    0.995 --     3 C    0.971
    16   1 H    0.995 --     3 C    0.973
    17   1 H    0.992 --     7 C    0.957
    18   1 H    0.992 --     7 C    0.958
 ---------------------------------------------------------------------------

Topologies differ in total number of bonds
Writing topology from bond orders to xtbtopo.mol

molecular dipole:
                 x           y           z       tot (Debye)
 q only:       -1.077       0.116      -0.065
   full:       -1.028       0.098      -0.073       2.631
molecular quadrupole (traceless):
                xx          xy          yy          xz          yz          zz
 q only:        0.531      -6.698      -1.800       0.002       0.226       1.269
  q+dip:       -0.822      -7.391      -1.484       0.009       0.404       2.307
   full:       -0.837      -7.579      -2.652      -0.017       0.426       3.489

           -------------------------------------------------
          |                Geometry Summary                 |
           -------------------------------------------------

      molecular mass/u    :      168.1140200
   center of mass at/Å    :        1.0183277       0.0684050       0.0290725
  moments of inertia/u·Å² :        0.1989585E+03   0.9579564E+03   0.1062676E+04
rotational constants/cm⁻¹ :        0.8472938E-01   0.1759750E-01   0.1586338E-01

 * 15 selected distances

     #   Z          #   Z                                           value/Å
     2   6 C        3   6 C                                       1.3299604
     4   6 C        5   8 O                                       1.2035385
     4   6 C        6   8 O                                       1.3581663
     6   8 O        7   6 C                                       1.4103241
     7   6 C        8   6 C                                       1.5226936 (max)
     8   6 C        9   9 F                                       1.3408070
     8   6 C       10   9 F                                       1.3350620
     8   6 C       11   9 F                                       1.3356650
     1   6 C       12   1 H                                       1.0889352
     1   6 C       13   1 H                                       1.0885214
     1   6 C       14   1 H                                       1.0856131
     3   6 C       15   1 H                                       1.0755252 (min)
     3   6 C       16   1 H                                       1.0770751
     7   6 C       17   1 H                                       1.0971572
     7   6 C       18   1 H                                       1.0970996

 * 4 distinct bonds (by element types)

   Z      Z             #   av. dist./Å        max./Å        min./Å
   1 H    6 C           7     1.0871324     1.0971572     1.0755252
   6 C    6 C           2     1.4263270     1.5226936     1.3299604
   6 C    8 O           3     1.3240096     1.4103241     1.2035385
   6 C    9 F           3     1.3371780     1.3408070     1.3350620


optimized geometry written to: xtbopt.xyz


           -------------------------------------------------
          | TOTAL ENERGY              -38.735107520412 Eh   |
          | GRADIENT NORM               0.000679254769 Eh/α |
          | HOMO-LUMO GAP               3.856398230142 eV   |
           -------------------------------------------------

------------------------------------------------------------------------
 * finished run on 2025/12/01 at 14:18:58.815     
------------------------------------------------------------------------
 total:
 * wall-time:     0 d,  0 h,  0 min,  0.281 sec
 *  cpu-time:     0 d,  0 h,  0 min,  6.354 sec
 * ratio c/w:    22.593 speedup
 SCF:
 * wall-time:     0 d,  0 h,  0 min,  0.017 sec
 *  cpu-time:     0 d,  0 h,  0 min,  0.387 sec
 * ratio c/w:    22.363 speedup
 ANC optimizer:
 * wall-time:     0 d,  0 h,  0 min,  0.253 sec
 *  cpu-time:     0 d,  0 h,  0 min,  5.757 sec
 * ratio c/w:    22.755 speedup

normal termination of xtb
