      -----------------------------------------------------------      
     |                   =====================                   |     
     |                           x T B                           |     
     |                   =====================                   |     
     |                         S. Grimme                         |     
     |          Mulliken Center for Theoretical Chemistry        |     
     |                    University of Bonn                     |     
      -----------------------------------------------------------      

   * xtb version 6.7.1 (edcfbbe) compiled by 'albert@albert-system' on 2024-07-22

   xtb is free software: you can redistribute it and/or modify it under
   the terms of the GNU Lesser General Public License as published by
   the Free Software Foundation, either version 3 of the License, or
   (at your option) any later version.
   
   xtb is distributed in the hope that it will be useful,
   but WITHOUT ANY WARRANTY; without even the implied warranty of
   MERCHANTABILITY or FITNESS FOR A PARTICULAR PURPOSE.  See the
   GNU Lesser General Public License for more details.
   
   Cite this work as:
   * C. Bannwarth, E. Caldeweyher, S. Ehlert, A. Hansen, P. Pracht,
     J. Seibert, S. Spicher, S. Grimme, WIREs Comput. Mol. Sci., 2020, 11,
     e01493. DOI: 10.1002/wcms.1493
   
   for GFN2-xTB:
   * C. Bannwarth, S. Ehlert and S. Grimme., J. Chem. Theory Comput., 2019,
     15, 1652-1671. DOI: 10.1021/acs.jctc.8b01176
   for GFN1-xTB:
   * S. Grimme, C. Bannwarth, P. Shushkov, J. Chem. Theory Comput., 2017,
     13, 1989-2009. DOI: 10.1021/acs.jctc.7b00118
   for GFN0-xTB:
   * P. Pracht, E. Caldeweyher, S. Ehlert, S. Grimme, ChemRxiv, 2019, preprint.
     DOI: 10.26434/chemrxiv.8326202.v1
   for GFN-FF:
   * S. Spicher and S. Grimme, Angew. Chem. Int. Ed., 2020, 59, 15665-15673.
     DOI: 10.1002/anie.202004239
   
   for ALPB and GBSA implicit solvation:
   * S. Ehlert, M. Stahn, S. Spicher, S. Grimme, J. Chem. Theory Comput.,
     2021, 17, 4250-4261. DOI: 10.1021/acs.jctc.1c00471
   
   for ddCOSMO and CPCM-X implicit solvation:
   * M. Stahn, S. Ehlert, S. Grimme, J. Phys. Chem. A,
     2023, XX, XXXX-XXXX. DOI: 10.1021/acs.jpca.3c04382
   
   for DFT-D4:
   * E. Caldeweyher, C. Bannwarth and S. Grimme, J. Chem. Phys., 2017,
     147, 034112. DOI: 10.1063/1.4993215
   * E. Caldeweyher, S. Ehlert, A. Hansen, H. Neugebauer, S. Spicher,
     C. Bannwarth and S. Grimme, J. Chem. Phys., 2019, 150, 154122.
     DOI: 10.1063/1.5090222
   * E. Caldeweyher, J.-M. Mewes, S. Ehlert and S. Grimme, Phys. Chem. Chem. Phys.
     2020, 22, 8499-8512. DOI: 10.1039/D0CP00502A
   
   for sTDA-xTB:
   * S. Grimme and C. Bannwarth, J. Chem. Phys., 2016, 145, 054103.
     DOI: 10.1063/1.4959605
   
   in the mass-spec context:
   * V. Asgeirsson, C. Bauer and S. Grimme, Chem. Sci., 2017, 8, 4879.
     DOI: 10.1039/c7sc00601b
   * J. Koopman and S. Grimme, ACS Omega 2019, 4, 12, 15120-15133.
     DOI: 10.1021/acsomega.9b02011
   
   for metadynamics refer to:
   * S. Grimme, J. Chem. Theory Comput., 2019, 155, 2847-2862
     DOI: 10.1021/acs.jctc.9b00143
   
   for SPH calculations refer to:
   * S. Spicher and S. Grimme, J. Chem. Theory Comput., 2021, 17, 1701-1714
     DOI: 10.1021/acs.jctc.0c01306
   
   for ONIOM refer to:
   * C. Plett, A. Katbashev, S. Ehlert, S. Grimme, M. Bursch,
     Phys. Chem. Chem. Phys., 2023, 25, 17860-17868. DOI: 10.1039/D3CP02178E
   
   for DIPRO refer to:
   * J. Kohn, N. Gildemeister, S. Grimme, D. Fazzi, A. Hansen,
     J. Chem. Phys., 2023, just accepted.
   
   for PTB refer to:
   * S. Grimme, M. Mueller, A. Hansen, J. Chem. Phys., 2023, 158, 124111.
     DOI: 10.1063/5.0137838
   
   with help from (in alphabetical order)
   P. Atkinson, C. Bannwarth, F. Bohle, G. Brandenburg, E. Caldeweyher
   M. Checinski, S. Dohm, S. Ehlert, S. Ehrlich, I. Gerasimov, C. Hölzer
   A. Katbashev, J. Kohn, J. Koopman, C. Lavigne, S. Lehtola, F. März, M. Müller,
   F. Musil, H. Neugebauer, J. Pisarek, C. Plett, P. Pracht, F. Pultar,
   J. Seibert, P. Shushkov, S. Spicher, M. Stahn, M. Steiner, T. Strunk,
   J. Stückrath, T. Rose, and J. Unsleber
   
 * started run on 2025/12/01 at 14:18:59.208     
   ID    Z sym.   atoms
    1    6 C      1-4, 7, 8
    2    8 O      5, 6
    3    9 F      9-11
    4    1 H      12-18

           -------------------------------------------------
          |                Calculation Setup                |
           -------------------------------------------------

          program call               : xtb pipeline_data/3_conformer_xyz/acrylates/rdkit/QTKPMCIBUROOGY-UHFFFAOYSA-N_conf193.xyz --opt --gfn 2-xTB --iterations 250
          coordinate file            : pipeline_data/3_conformer_xyz/acrylates/rdkit/QTKPMCIBUROOGY-UHFFFAOYSA-N_conf193.xyz
          omp threads                :                    24

########################################################################
[WARNING] Please study the warnings concerning your input carefully
-1- readin_getIntValue: could not parse '2-xTB'
########################################################################

           -------------------------------------------------
          |                 G F N 2 - x T B                 |
           -------------------------------------------------

        Reference                      10.1021/acs.jctc.8b01176
      * Hamiltonian:
        H0-scaling (s, p, d)           1.850000    2.230000    2.230000
        zeta-weighting                 0.500000
      * Dispersion:
        s8                             2.700000
        a1                             0.520000
        a2                             5.000000
        s9                             5.000000
      * Repulsion:
        kExp                           1.500000    1.000000
        rExp                           1.000000
      * Coulomb:
        alpha                          2.000000
        third order                    shell-resolved
        anisotropic                    true
        a3                             3.000000
        a5                             4.000000
        cn-shift                       1.200000
        cn-exp                         4.000000
        max-rad                        5.000000

q/qsh data taken from xtbrestart
CAMM data taken from xtbrestart

          ...................................................
          :                      SETUP                      :
          :.................................................:
          :  # basis functions                  51          :
          :  # atomic orbitals                  51          :
          :  # shells                           29          :
          :  # electrons                        64          :
          :  max. iterations                   250          :
          :  Hamiltonian                  GFN2-xTB          :
          :  restarted?                       true          :
          :  GBSA solvation                  false          :
          :  PC potential                    false          :
          :  electronic temp.          300.0000000     K    :
          :  accuracy                    1.0000000          :
          :  -> integral cutoff          0.2500000E+02      :
          :  -> integral neglect         0.1000000E-07      :
          :  -> SCF convergence          0.1000000E-05 Eh   :
          :  -> wf. convergence          0.1000000E-03 e    :
          :  Broyden damping             0.4000000          :
          :  net charge                          0          :
          :  unpaired electrons                  0          :
          ...................................................

 iter      E             dE          RMSdq      gap      omega  full diag
   1    -38.9752349 -0.389752E+02  0.555E+00    3.56       0.0  T
   2    -38.9808674 -0.563243E-02  0.332E+00    3.43       1.0  T
   3    -38.9821454 -0.127802E-02  0.290E-01    3.52       1.0  T
   4    -38.9823582 -0.212843E-03  0.154E-01    3.45       1.0  T
   5    -38.9823423  0.158796E-04  0.112E-01    3.49       1.0  T
   6    -38.9824216 -0.792879E-04  0.293E-02    3.47       1.0  T
   7    -38.9824340 -0.123826E-04  0.812E-03    3.47       2.9  T
   8    -38.9824342 -0.210214E-06  0.319E-03    3.47       7.4  T
   9    -38.9824343 -0.275505E-07  0.117E-03    3.47      20.1  T
  10    -38.9824343 -0.192600E-08  0.287E-04    3.47      82.2  T
  11    -38.9824343 -0.138250E-09  0.124E-04    3.47     189.4  T

   *** convergence criteria satisfied after 11 iterations ***

         #    Occupation            Energy/Eh            Energy/eV
      -------------------------------------------------------------
         1        2.0000           -0.8864077             -24.1204
       ...           ...                  ...                  ...
        26        2.0000           -0.5054903             -13.7551
        27        2.0000           -0.4974620             -13.5366
        28        2.0000           -0.4826182             -13.1327
        29        2.0000           -0.4713852             -12.8270
        30        2.0000           -0.4693559             -12.7718
        31        2.0000           -0.4342918             -11.8177
        32        2.0000           -0.4318203             -11.7504 (HOMO)
        33                         -0.3042550              -8.2792 (LUMO)
        34                         -0.1918031              -5.2192
        35                         -0.0990006              -2.6939
        36                         -0.0400105              -1.0887
        37                         -0.0291721              -0.7938
       ...                                ...                  ...
        51                          0.5765914              15.6899
      -------------------------------------------------------------
                  HL-Gap            0.1275652 Eh            3.4712 eV
             Fermi-level           -0.3680376 Eh          -10.0148 eV

 SCC (total)                   0 d,  0 h,  0 min,  0.024 sec
 SCC setup                      ...        0 min,  0.000 sec (  1.147%)
 Dispersion                     ...        0 min,  0.000 sec (  0.901%)
 classical contributions        ...        0 min,  0.000 sec (  0.324%)
 integral evaluation            ...        0 min,  0.001 sec (  3.865%)
 iterations                     ...        0 min,  0.013 sec ( 52.653%)
 molecular gradient             ...        0 min,  0.008 sec ( 35.069%)
 printout                       ...        0 min,  0.001 sec (  5.912%)

         :::::::::::::::::::::::::::::::::::::::::::::::::::::
         ::                     SUMMARY                     ::
         :::::::::::::::::::::::::::::::::::::::::::::::::::::
         :: total energy             -38.713317896175 Eh    ::
         :: gradient norm              0.154775510889 Eh/a0 ::
         :: HOMO-LUMO gap              3.471226966723 eV    ::
         ::.................................................::
         :: SCC energy               -38.982428314005 Eh    ::
         :: -> isotropic ES            0.089437945430 Eh    ::
         :: -> anisotropic ES          0.000931553472 Eh    ::
         :: -> anisotropic XC         -0.010651148410 Eh    ::
         :: -> dispersion             -0.011687917439 Eh    ::
         :: repulsion energy           0.269110417830 Eh    ::
         :: add. restraining           0.000000000000 Eh    ::
         :: total charge              -0.000000000000 e     ::
         :::::::::::::::::::::::::::::::::::::::::::::::::::::

      ----------------------------------------------------------- 
     |                   =====================                   |
     |                        A N C O P T                        |
     |                   =====================                   |
     |               Approximate Normal Coordinate               |
     |                Rational Function Optimizer                |
      ----------------------------------------------------------- 
      ----------------------------------------------------------- 
     |                   =====================                   |
     |                        A N C O P T                        |
     |                   =====================                   |
     |               Approximate Normal Coordinate               |
     |                Rational Function Optimizer                |
      ----------------------------------------------------------- 

          ...................................................
          :                      SETUP                      :
          :.................................................:
          :   optimization level            normal          :
          :   max. optcycles                   200          :
          :   ANC micro-cycles                  20          :
          :   degrees of freedom                48          :
          :.................................................:
          :   RF solver                   davidson          :
          :   write xtbopt.log                true          :
          :   linear?                        false          :
          :   energy convergence         0.5000000E-05 Eh   :
          :   grad. convergence          0.1000000E-02 Eh/α :
          :   maxmium RF displ.          1.0000000          :
          :   Hlow (freq-cutoff)         0.1000000E-01      :
          :   Hmax (freq-cutoff)         5.0000000          :
          :   S6 in model hess.         20.0000000          :
          ...................................................

generating ANC from exact Hessian ...
Using Lindh-Hessian (1995)
 Shifting diagonal of input Hessian by   8.619033827274223E-003
 Lowest  eigenvalues of input Hessian
    0.000000    0.000000    0.000000    0.000000    0.000000    0.000000
    0.010000    0.011034    0.012042    0.016925    0.018330    0.020938
    0.022177    0.027058    0.027788    0.036890    0.041161    0.054734
 Highest eigenvalues
    1.456433    1.527806    1.592231    1.802109    1.836682    2.066616
 

........................................................................
.............................. CYCLE    1 ..............................
........................................................................

 iter      E             dE          RMSdq      gap      omega  full diag
   1    -38.9824343 -0.389824E+02  0.471E-05    3.47       0.0  T
   2    -38.9824343 -0.479616E-11  0.272E-05    3.47     865.6  T
   3    -38.9824343 -0.561329E-12  0.133E-05    3.47    1770.7  T
     SCC iter.                  ...        0 min,  0.003 sec
     gradient                   ...        0 min,  0.002 sec
 * total energy  :   -38.7133179 Eh     change       -0.3611689E-10 Eh
   gradient norm :     0.1547760 Eh/α   predicted     0.0000000E+00 (-100.00%)
   displ. norm   :     0.2852286 α      lambda       -0.2384105E-01
   maximum displ.:     0.1412086 α      in ANC's #8, #11, #30, ...

........................................................................
.............................. CYCLE    2 ..............................
........................................................................

 iter      E             dE          RMSdq      gap      omega  full diag
   1    -39.0229078 -0.390229E+02  0.333E-01    3.70       0.0  T
   2    -39.0233619 -0.454080E-03  0.201E-01    3.72       1.0  T
   3    -39.0233738 -0.118539E-04  0.897E-02    3.73       1.0  T
   4    -39.0233829 -0.909197E-05  0.191E-02    3.72       1.2  T
   5    -39.0233857 -0.287172E-05  0.974E-03    3.72       2.4  T
   6    -39.0233863 -0.601656E-06  0.489E-03    3.72       4.8  T
   7    -39.0233865 -0.208998E-06  0.155E-03    3.72      15.2  T
   8    -39.0233865 -0.131127E-07  0.632E-04    3.72      37.3  T
   9    -39.0233865 -0.678398E-09  0.112E-04    3.72     211.4  T
     SCC iter.                  ...        0 min,  0.008 sec
     gradient                   ...        0 min,  0.001 sec
 * total energy  :   -38.7304147 Eh     change       -0.1709684E-01 Eh
   gradient norm :     0.0673197 Eh/α   predicted    -0.1289032E-01 ( -24.60%)
   displ. norm   :     0.2727346 α      lambda       -0.8466622E-02
   maximum displ.:     0.1641416 α      in ANC's #8, #11, #19, ...

........................................................................
.............................. CYCLE    3 ..............................
........................................................................

 iter      E             dE          RMSdq      gap      omega  full diag
   1    -39.0461446 -0.390461E+02  0.286E-01    3.89       0.0  T
   2    -39.0464209 -0.276332E-03  0.168E-01    3.86       1.0  T
   3    -39.0464281 -0.713818E-05  0.686E-02    3.86       1.0  T
   4    -39.0464323 -0.423735E-05  0.110E-02    3.85       2.1  T
   5    -39.0464327 -0.414375E-06  0.544E-03    3.85       4.3  T
   6    -39.0464328 -0.799305E-07  0.295E-03    3.86       8.0  T
   7    -39.0464329 -0.107828E-06  0.933E-04    3.86      25.3  T
   8    -39.0464329 -0.359547E-08  0.390E-04    3.86      60.4  T
     SCC iter.                  ...        0 min,  0.007 sec
     gradient                   ...        0 min,  0.002 sec
 * total energy  :   -38.7346624 Eh     change       -0.4247687E-02 Eh
   gradient norm :     0.0164561 Eh/α   predicted    -0.4548200E-02 (   7.07%)
   displ. norm   :     0.0921224 α      lambda       -0.4732400E-03
   maximum displ.:     0.0765745 α      in ANC's #8, #11, #13, ...

........................................................................
.............................. CYCLE    4 ..............................
........................................................................

 iter      E             dE          RMSdq      gap      omega  full diag
   1    -39.0440500 -0.390440E+02  0.580E-02    3.82       0.0  T
   2    -39.0440617 -0.116899E-04  0.383E-02    3.84       1.0  T
   3    -39.0440611  0.627514E-06  0.251E-02    3.83       1.0  T
   4    -39.0440638 -0.269441E-05  0.910E-03    3.83       2.6  T
   5    -39.0440647 -0.927160E-06  0.124E-03    3.83      18.9  T
   6    -39.0440647 -0.608881E-08  0.733E-04    3.83      32.2  T
   7    -39.0440647 -0.615834E-09  0.228E-04    3.83     103.3  T
     SCC iter.                  ...        0 min,  0.006 sec
     gradient                   ...        0 min,  0.002 sec
 * total energy  :   -38.7349420 Eh     change       -0.2795437E-03 Eh
   gradient norm :     0.0037626 Eh/α   predicted    -0.2386259E-03 ( -14.64%)
   displ. norm   :     0.0655832 α      lambda       -0.9078412E-04
   maximum displ.:     0.0496158 α      in ANC's #8, #3, #4, ...

........................................................................
.............................. CYCLE    5 ..............................
........................................................................

 iter      E             dE          RMSdq      gap      omega  full diag
   1    -39.0436994 -0.390437E+02  0.340E-02    3.83       0.0  T
   2    -39.0437015 -0.202328E-05  0.209E-02    3.83       1.1  T
   3    -39.0437012  0.262675E-06  0.877E-03    3.83       2.7  T
   4    -39.0437014 -0.178459E-06  0.429E-03    3.83       5.5  T
   5    -39.0437016 -0.252403E-06  0.768E-04    3.83      30.7  T
   6    -39.0437016 -0.516803E-08  0.331E-04    3.83      71.3  T
     SCC iter.                  ...        0 min,  0.005 sec
     gradient                   ...        0 min,  0.002 sec
 * total energy  :   -38.7349905 Eh     change       -0.4854304E-04 Eh
   gradient norm :     0.0026704 Eh/α   predicted    -0.4558680E-04 (  -6.09%)
   displ. norm   :     0.0425552 α      lambda       -0.3223074E-04
   maximum displ.:     0.0253920 α      in ANC's #8, #3, #4, ...

........................................................................
.............................. CYCLE    6 ..............................
........................................................................

 iter      E             dE          RMSdq      gap      omega  full diag
   1    -39.0440052 -0.390440E+02  0.210E-02    3.84       0.0  T
   2    -39.0440057 -0.456015E-06  0.128E-02    3.84       1.8  T
   3    -39.0440055  0.170994E-06  0.525E-03    3.84       4.5  T
   4    -39.0440057 -0.195884E-06  0.217E-03    3.84      10.9  T
   5    -39.0440058 -0.610860E-07  0.478E-04    3.84      49.3  T
   6    -39.0440058 -0.157060E-08  0.243E-04    3.84      97.1  T
     SCC iter.                  ...        0 min,  0.006 sec
     gradient                   ...        0 min,  0.002 sec
 * total energy  :   -38.7350096 Eh     change       -0.1909301E-04 Eh
   gradient norm :     0.0015006 Eh/α   predicted    -0.1614382E-04 ( -15.45%)
   displ. norm   :     0.0620268 α      lambda       -0.1687582E-04
   maximum displ.:     0.0387496 α      in ANC's #3, #4, #5, ...

........................................................................
.............................. CYCLE    7 ..............................
........................................................................

 iter      E             dE          RMSdq      gap      omega  full diag
   1    -39.0443168 -0.390443E+02  0.221E-02    3.85       0.0  T
   2    -39.0443170 -0.204468E-06  0.131E-02    3.85       1.8  T
   3    -39.0443163  0.647223E-06  0.813E-03    3.85       2.9  T
   4    -39.0443171 -0.792243E-06  0.134E-03    3.85      17.6  T
   5    -39.0443171 -0.151089E-07  0.483E-04    3.85      48.8  T
   6    -39.0443171 -0.686448E-09  0.232E-04    3.85     101.7  T
     SCC iter.                  ...        0 min,  0.006 sec
     gradient                   ...        0 min,  0.001 sec
 * total energy  :   -38.7350265 Eh     change       -0.1691765E-04 Eh
   gradient norm :     0.0012163 Eh/α   predicted    -0.8450961E-05 ( -50.05%)
   displ. norm   :     0.0809078 α      lambda       -0.1538486E-04
   maximum displ.:     0.0492113 α      in ANC's #4, #3, #5, ...

........................................................................
.............................. CYCLE    8 ..............................
........................................................................

 iter      E             dE          RMSdq      gap      omega  full diag
   1    -39.0442809 -0.390443E+02  0.286E-02    3.85       0.0  T
   2    -39.0442810 -0.116964E-06  0.171E-02    3.85       1.4  T
   3    -39.0442803  0.647853E-06  0.738E-03    3.85       3.2  T
   4    -39.0442811 -0.736964E-06  0.102E-03    3.85      23.2  T
   5    -39.0442811 -0.888809E-08  0.467E-04    3.85      50.5  T
   6    -39.0442811 -0.471040E-09  0.158E-04    3.85     149.1  T
     SCC iter.                  ...        0 min,  0.006 sec
     gradient                   ...        0 min,  0.001 sec
 * total energy  :   -38.7350422 Eh     change       -0.1571888E-04 Eh
   gradient norm :     0.0015097 Eh/α   predicted    -0.7714072E-05 ( -50.92%)
   displ. norm   :     0.1329392 α      lambda       -0.1912523E-04
   maximum displ.:     0.0835705 α      in ANC's #4, #3, #5, ...

........................................................................
.............................. CYCLE    9 ..............................
........................................................................

 iter      E             dE          RMSdq      gap      omega  full diag
   1    -39.0439399 -0.390439E+02  0.403E-02    3.85       0.0  T
   2    -39.0439402 -0.237981E-06  0.241E-02    3.85       1.0  T
   3    -39.0439397  0.421052E-06  0.628E-03    3.85       3.8  T
   4    -39.0439402 -0.499896E-06  0.152E-03    3.85      15.5  T
   5    -39.0439403 -0.240839E-07  0.659E-04    3.85      35.8  T
   6    -39.0439403 -0.125896E-08  0.218E-04    3.85     108.1  T
     SCC iter.                  ...        0 min,  0.006 sec
     gradient                   ...        0 min,  0.001 sec
 * total energy  :   -38.7350561 Eh     change       -0.1386399E-04 Eh
   gradient norm :     0.0022961 Eh/α   predicted    -0.9640083E-05 ( -30.47%)
   displ. norm   :     0.0466049 α      lambda       -0.1328244E-04
   maximum displ.:     0.0323073 α      in ANC's #4, #2, #5, ...

........................................................................
.............................. CYCLE   10 ..............................
........................................................................

 iter      E             dE          RMSdq      gap      omega  full diag
   1    -39.0439919 -0.390440E+02  0.180E-02    3.85       0.0  T
   2    -39.0439919 -0.212517E-07  0.107E-02    3.85       2.2  T
   3    -39.0439918  0.104710E-06  0.284E-03    3.85       8.3  T
   4    -39.0439919 -0.119401E-06  0.396E-04    3.85      59.6  T
   5    -39.0439919 -0.777575E-09  0.218E-04    3.85     108.3  T
     SCC iter.                  ...        0 min,  0.005 sec
     gradient                   ...        0 min,  0.001 sec
 * total energy  :   -38.7350670 Eh     change       -0.1089304E-04 Eh
   gradient norm :     0.0016453 Eh/α   predicted    -0.6657024E-05 ( -38.89%)
   displ. norm   :     0.1543985 α      lambda       -0.2415394E-04
   maximum displ.:     0.1076066 α      in ANC's #4, #2, #5, ...

........................................................................
.............................. CYCLE   11 ..............................
........................................................................

 iter      E             dE          RMSdq      gap      omega  full diag
   1    -39.0440150 -0.390440E+02  0.540E-02    3.85       0.0  T
   2    -39.0440152 -0.200396E-06  0.321E-02    3.85       1.0  T
   3    -39.0440137  0.146343E-05  0.106E-02    3.85       2.2  T
   4    -39.0440154 -0.164229E-05  0.119E-03    3.85      19.8  T
   5    -39.0440154 -0.661488E-08  0.596E-04    3.85      39.5  T
   6    -39.0440154 -0.794131E-09  0.209E-04    3.85     112.8  T
     SCC iter.                  ...        0 min,  0.013 sec
     gradient                   ...        0 min,  0.002 sec
 * total energy  :   -38.7350852 Eh     change       -0.1817499E-04 Eh
   gradient norm :     0.0015525 Eh/α   predicted    -0.1220356E-04 ( -32.86%)
   displ. norm   :     0.0363718 α      lambda       -0.7442750E-05
   maximum displ.:     0.0222620 α      in ANC's #3, #4, #2, ...

........................................................................
.............................. CYCLE   12 ..............................
........................................................................

 iter      E             dE          RMSdq      gap      omega  full diag
   1    -39.0444218 -0.390444E+02  0.121E-02    3.85       0.0  T
   2    -39.0444218 -0.509454E-07  0.724E-03    3.85       3.3  T
   3    -39.0444218 -0.919123E-09  0.870E-04    3.85      27.1  T
   4    -39.0444218 -0.288307E-08  0.482E-04    3.85      48.9  T
     SCC iter.                  ...        0 min,  0.005 sec
     gradient                   ...        0 min,  0.004 sec
 * total energy  :   -38.7350933 Eh     change       -0.8109142E-05 Eh
   gradient norm :     0.0010366 Eh/α   predicted    -0.3722485E-05 ( -54.10%)
   displ. norm   :     0.1743694 α      lambda       -0.1578949E-04
   maximum displ.:     0.1230598 α      in ANC's #4, #2, #5, ...

........................................................................
.............................. CYCLE   13 ..............................
........................................................................

 iter      E             dE          RMSdq      gap      omega  full diag
   1    -39.0434750 -0.390435E+02  0.533E-02    3.86       0.0  T
   2    -39.0434757 -0.689427E-06  0.316E-02    3.86       1.0  T
   3    -39.0434745  0.113271E-05  0.977E-03    3.85       2.4  T
   4    -39.0434758 -0.124048E-05  0.233E-03    3.85      10.1  T
   5    -39.0434758 -0.693953E-07  0.678E-04    3.85      34.7  T
   6    -39.0434758 -0.550820E-09  0.202E-04    3.85     116.5  T
     SCC iter.                  ...        0 min,  0.009 sec
     gradient                   ...        0 min,  0.002 sec
 * total energy  :   -38.7350930 Eh     change        0.2748732E-06 Eh
   gradient norm :     0.0029855 Eh/α   predicted    -0.8001787E-05 (*******%)
   displ. norm   :     0.0545097 α      lambda       -0.1899952E-04
   maximum displ.:     0.0376911 α      in ANC's #4, #2, #5, ...

........................................................................
.............................. CYCLE   14 ..............................
........................................................................

 iter      E             dE          RMSdq      gap      omega  full diag
   1    -39.0441336 -0.390441E+02  0.186E-02    3.85       0.0  T
   2    -39.0441338 -0.169551E-06  0.109E-02    3.85       2.2  T
   3    -39.0441338 -0.830738E-08  0.170E-03    3.85      13.9  T
   4    -39.0441338 -0.508847E-08  0.451E-04    3.86      52.3  T
   5    -39.0441338 -0.214975E-09  0.344E-04    3.85      68.5  T
     SCC iter.                  ...        0 min,  0.005 sec
     gradient                   ...        0 min,  0.001 sec
 * total energy  :   -38.7351043 Eh     change       -0.1128787E-04 Eh
   gradient norm :     0.0010103 Eh/α   predicted    -0.9526835E-05 ( -15.60%)
   displ. norm   :     0.0239000 α      lambda       -0.3773543E-05
   maximum displ.:     0.0177170 α      in ANC's #3, #4, #5, ...

........................................................................
.............................. CYCLE   15 ..............................
........................................................................

 iter      E             dE          RMSdq      gap      omega  full diag
   1    -39.0444699 -0.390445E+02  0.885E-03    3.86       0.0  T
   2    -39.0444699 -0.532359E-07  0.524E-03    3.86       4.5  T
   3    -39.0444699  0.396919E-07  0.220E-03    3.86      10.7  T
   4    -39.0444699 -0.437487E-07  0.762E-04    3.86      30.9  T
   5    -39.0444700 -0.730903E-08  0.174E-04    3.86     135.8  T
     SCC iter.                  ...        0 min,  0.005 sec
     gradient                   ...        0 min,  0.002 sec
 * total energy  :   -38.7351074 Eh     change       -0.3117170E-05 Eh
   gradient norm :     0.0003397 Eh/α   predicted    -0.1885822E-05 ( -39.50%)
   displ. norm   :     0.0345475 α      lambda       -0.1234578E-05
   maximum displ.:     0.0246399 α      in ANC's #4, #5, #2, ...

   *** GEOMETRY OPTIMIZATION CONVERGED AFTER 15 ITERATIONS ***

------------------------------------------------------------------------
 total energy gain   :        -0.0217895 Eh      -13.6731 kcal/mol
 total RMSD          :         0.2213242 a0        0.1171 Å
 total power (kW/mol):        -3.8138900 (step) -373.8447 (real)
------------------------------------------------------------------------

 ANCopt (total)                0 d,  0 h,  0 min,  0.153 sec
 optimizer setup                ...        0 min,  0.000 sec (  0.055%)
 model hessian                  ...        0 min,  0.003 sec (  1.868%)
 ANC generation                 ...        0 min,  0.001 sec (  0.847%)
 coordinate transformation      ...        0 min,  0.000 sec (  0.073%)
 single point calculation       ...        0 min,  0.141 sec ( 92.091%)
 optimization log               ...        0 min,  0.001 sec (  0.891%)
 hessian update                 ...        0 min,  0.003 sec (  2.173%)
 rational function              ...        0 min,  0.002 sec (  1.375%)

================
 final structure:
================
18
 xtb: 6.7.1 (edcfbbe)
C           -2.96781259890263       -0.29531153237583        0.00420260731941
C           -1.59180308943038       -0.36214862024255        0.58614868952976
C           -1.31685272939588       -0.79784229292975        1.81222999315916
C           -0.52140317983029        0.09606922050035       -0.32841387548404
O           -0.67896046657501        0.43028507884023       -1.47362801832646
O            0.70411341354362        0.10822936213611        0.25710672474615
C            1.76353734368144        0.53217840146165       -0.57195795388971
C            3.04911696230373        0.42210504207901        0.23621648420047
F            4.10370708622116        0.80899748088376       -0.49576449310153
F            3.03181429104787        1.18998737865910        1.32839286446264
F            3.29250606296349       -0.82757071754689        0.63823993827979
H           -3.23088969176351        0.74002275459235       -0.20550487521331
H           -3.69763905639003       -0.71993855025575        0.68629562004518
H           -2.99580154243249       -0.83203206317241       -0.94205866101418
H           -0.31069088575163       -0.83055407458662        2.19045784844286
H           -2.09926114322968       -1.13526586778900        2.47113187973481
H            1.62422279238126        1.57391396107021       -0.88652250165635
H            1.84209843155897       -0.10112096132399       -1.46439527123466
 
 Bond Distances (Angstroems)
 ---------------------------
C1-C2=1.4955         C1-H12=1.0886        C1-H13=1.0855        C1-H14=1.0882        C2-C1=1.4955         C2-C3=1.3299         
C2-C4=1.4806         C3-C2=1.3299         C3-H15=1.0754        C3-H16=1.0771        C4-C2=1.4806         C4-O5=1.2033         
C4-O6=1.3583         O5-C4=1.2033         O6-C4=1.3583         O6-C7=1.4105         C7-O6=1.4105         C7-C8=1.5225         
C7-H17=1.0971        C7-H18=1.0971        C8-C7=1.5225         C8-F9=1.3408         C8-F10=1.3352        C8-F11=1.3351        
F9-C8=1.3408         F10-C8=1.3352        F11-C8=1.3351        H12-C1=1.0886        H13-C1=1.0855        H14-C1=1.0882        
H15-C3=1.0754        H16-C3=1.0771        H17-C7=1.0971        H18-C7=1.0971        
 C  H  Rav=1.0870 sigma=0.0080  Rmin=1.0754  Rmax=1.0971     7
 C  C  Rav=1.4571 sigma=0.0750  Rmin=1.3299  Rmax=1.5225     4
 O  C  Rav=1.3240 sigma=0.0880  Rmin=1.2033  Rmax=1.4105     3
 F  C  Rav=1.3370 sigma=0.0026  Rmin=1.3351  Rmax=1.3408     3
 
 selected bond angles (degree)
 --------------------
H12-C1-C2=109.87               H13-C1-C2=110.89               H13-C1-H12=109.31              H14-C1-C2=109.88               
H14-C1-H12=107.18              H14-C1-H13=109.64              C3-C2-C1=124.31                C4-C2-C1=114.27                
C4-C2-C3=121.43                H15-C3-C2=121.85               H16-C3-C2=121.09               H16-C3-H15=117.06              
O5-C4-C2=125.39                O6-C4-C2=112.88                O6-C4-O5=121.73                C7-O6-C4=115.28                
C8-C7-O6=107.49                H17-C7-O6=111.01               H17-C7-C8=109.15               H18-C7-O6=111.00               
H18-C7-C8=109.24               H18-C7-H17=108.90              F9-C8-C7=110.70                F10-C8-C7=112.44               
F10-C8-F9=106.91               F11-C8-C7=112.42               F11-C8-F9=106.92               F11-C8-F10=107.12              
 
 selected dihedral angles (degree)
 ---------------------------------
C3-C2-C1-H12=116.58           C3-C2-C1-H13=355.63           C3-C2-C1-H14=234.26           C4-C2-C1-H12=296.18           
C4-C2-C1-H13=175.24           C4-C2-C1-H14= 53.86           H15-C3-C2-C1=179.89           H15-C3-C2-C4=  0.32           
H16-C3-C2-C1=359.93           H16-C3-C2-C4=180.35           O5-C4-C2-C1=355.86            O5-C4-C2-C3=175.48            
O6-C4-C2-C1=175.87            O6-C4-C2-C3=355.48            C7-O6-C4-C2=179.76            C7-O6-C4-O5=359.76            
C8-C7-O6-C4=182.34            H17-C7-O6-C4= 63.03           H18-C7-O6-C4=301.75           F9-C8-C7-O6=179.87            
F9-C8-C7-H17=300.36           F9-C8-C7-H18= 59.34           F10-C8-C7-O6=299.37           F10-C8-C7-H17= 59.86          
F10-C8-C7-H18=178.84          F11-C8-C7-O6= 60.36           F11-C8-C7-H17=180.85          F11-C8-C7-H18=299.83          
           -------------------------------------------------
          |                Final Singlepoint                |
           -------------------------------------------------

          ...................................................
          :                      SETUP                      :
          :.................................................:
          :  # basis functions                  51          :
          :  # atomic orbitals                  51          :
          :  # shells                           29          :
          :  # electrons                        64          :
          :  max. iterations                   250          :
          :  Hamiltonian                  GFN2-xTB          :
          :  restarted?                      false          :
          :  GBSA solvation                  false          :
          :  PC potential                    false          :
          :  electronic temp.          300.0000000     K    :
          :  accuracy                    1.0000000          :
          :  -> integral cutoff          0.2500000E+02      :
          :  -> integral neglect         0.1000000E-07      :
          :  -> SCF convergence          0.1000000E-05 Eh   :
          :  -> wf. convergence          0.1000000E-03 e    :
          :  Broyden damping             0.4000000          :
          :  net charge                          0          :
          :  unpaired electrons                  0          :
          ...................................................

 iter      E             dE          RMSdq      gap      omega  full diag
   1    -39.0444700 -0.390445E+02  0.841E-05    3.86       0.0  T
   2    -39.0444700 -0.188081E-10  0.482E-05    3.86     489.4  T
   3    -39.0444700 -0.284928E-11  0.325E-05    3.86     725.0  T

   *** convergence criteria satisfied after 3 iterations ***

         #    Occupation            Energy/Eh            Energy/eV
      -------------------------------------------------------------
         1        2.0000           -0.8971237             -24.4120
       ...           ...                  ...                  ...
        26        2.0000           -0.5025136             -13.6741
        27        2.0000           -0.5019648             -13.6592
        28        2.0000           -0.4845223             -13.1845
        29        2.0000           -0.4813213             -13.0974
        30        2.0000           -0.4701042             -12.7922
        31        2.0000           -0.4360536             -11.8656
        32        2.0000           -0.4335132             -11.7965 (HOMO)
        33                         -0.2917967              -7.9402 (LUMO)
        34                         -0.1817538              -4.9458
        35                         -0.0489351              -1.3316
        36                          0.0160331               0.4363
        37                          0.0320702               0.8727
       ...                                ...                  ...
        51                          0.6813178              18.5396
      -------------------------------------------------------------
                  HL-Gap            0.1417165 Eh            3.8563 eV
             Fermi-level           -0.3626549 Eh           -9.8683 eV

 SCC (total)                   0 d,  0 h,  0 min,  0.006 sec
 SCC setup                      ...        0 min,  0.001 sec (  9.286%)
 Dispersion                     ...        0 min,  0.000 sec (  1.293%)
 classical contributions        ...        0 min,  0.000 sec (  2.464%)
 integral evaluation            ...        0 min,  0.001 sec (  8.578%)
 iterations                     ...        0 min,  0.003 sec ( 53.073%)
 molecular gradient             ...        0 min,  0.001 sec ( 23.070%)
 printout                       ...        0 min,  0.000 sec (  1.924%)

         :::::::::::::::::::::::::::::::::::::::::::::::::::::
         ::                     SUMMARY                     ::
         :::::::::::::::::::::::::::::::::::::::::::::::::::::
         :: total energy             -38.735107405764 Eh    ::
         :: gradient norm              0.000339411040 Eh/a0 ::
         :: HOMO-LUMO gap              3.856301921441 eV    ::
         ::.................................................::
         :: SCC energy               -39.044463194454 Eh    ::
         :: -> isotropic ES            0.084618664068 Eh    ::
         :: -> anisotropic ES          0.002574471528 Eh    ::
         :: -> anisotropic XC         -0.015171564454 Eh    ::
         :: -> dispersion             -0.011892741809 Eh    ::
         :: repulsion energy           0.309355788691 Eh    ::
         :: add. restraining           0.000000000000 Eh    ::
         :: total charge               0.000000000000 e     ::
         :::::::::::::::::::::::::::::::::::::::::::::::::::::

           -------------------------------------------------
          |                Property Printout                |
           -------------------------------------------------

    * Orbital Energies and Occupations

         #    Occupation            Energy/Eh            Energy/eV
      -------------------------------------------------------------
         1        2.0000           -0.8971237             -24.4120
       ...           ...                  ...                  ...
        20        2.0000           -0.5518099             -15.0155
        21        2.0000           -0.5491081             -14.9420
        22        2.0000           -0.5488377             -14.9346
        23        2.0000           -0.5464996             -14.8710
        24        2.0000           -0.5262416             -14.3198
        25        2.0000           -0.5120152             -13.9326
        26        2.0000           -0.5025136             -13.6741
        27        2.0000           -0.5019648             -13.6592
        28        2.0000           -0.4845223             -13.1845
        29        2.0000           -0.4813213             -13.0974
        30        2.0000           -0.4701042             -12.7922
        31        2.0000           -0.4360536             -11.8656
        32        2.0000           -0.4335132             -11.7965 (HOMO)
        33                         -0.2917967              -7.9402 (LUMO)
        34                         -0.1817538              -4.9458
        35                         -0.0489351              -1.3316
        36                          0.0160331               0.4363
        37                          0.0320702               0.8727
        38                          0.0734639               1.9991
        39                          0.0805729               2.1925
        40                          0.0989205               2.6918
        41                          0.1172237               3.1898
        42                          0.1374556               3.7404
        43                          0.1691252               4.6021
       ...                                ...                  ...
        51                          0.6813178              18.5396
      -------------------------------------------------------------
                  HL-Gap            0.1417165 Eh            3.8563 eV
             Fermi-level           -0.3626549 Eh           -9.8683 eV

     #   Z          covCN         q      C6AA      α(0)
     1   6 C        3.760    -0.114    22.740     6.798
     2   6 C        2.938    -0.004    28.112     8.696
     3   6 C        2.845    -0.077    29.910     8.963
     4   6 C        2.734     0.352    21.028     7.508
     5   8 O        0.856    -0.393    21.550     6.224
     6   8 O        1.706    -0.260    18.314     5.778
     7   6 C        3.712     0.068    19.563     6.320
     8   6 C        3.328     0.485    17.411     6.625
     9   9 F        0.791    -0.199    11.225     3.958
    10   9 F        0.791    -0.187    11.099     3.935
    11   9 F        0.791    -0.187    11.100     3.936
    12   1 H        0.925     0.068     2.105     2.269
    13   1 H        0.925     0.058     2.224     2.332
    14   1 H        0.925     0.071     2.071     2.251
    15   1 H        0.926     0.072     2.067     2.248
    16   1 H        0.926     0.067     2.121     2.277
    17   1 H        0.924     0.090     1.881     2.145
    18   1 H        0.924     0.091     1.870     2.139

 Mol. C6AA /au·bohr⁶  :       3286.662534
 Mol. C8AA /au·bohr⁸  :      72525.699050
 Mol. α(0) /au        :         84.401233


Wiberg/Mayer (AO) data.
largest (>0.10) Wiberg bond orders for each atom

 ---------------------------------------------------------------------------
     #   Z sym  total        # sym  WBO       # sym  WBO       # sym  WBO
 ---------------------------------------------------------------------------
     1   6 C    3.992 --     2 C    1.028    13 H    0.984    14 H    0.967
                            12 H    0.965
     2   6 C    3.985 --     3 C    1.864     1 C    1.028     4 C    1.007
     3   6 C    3.985 --     2 C    1.864    16 H    0.973    15 H    0.971
     4   6 C    3.906 --     5 O    1.755     6 O    1.065     2 C    1.007
     5   8 O    2.052 --     4 C    1.755     6 O    0.159
     6   8 O    2.275 --     4 C    1.065     7 C    0.978     5 O    0.159
     7   6 C    3.942 --     6 O    0.978    17 H    0.958    18 H    0.957
                             8 C    0.952
     8   6 C    3.850 --    10 F    0.962    11 F    0.962     7 C    0.952
                             9 F    0.950
     9   9 F    1.074 --     8 C    0.950
    10   9 F    1.089 --     8 C    0.962
    11   9 F    1.089 --     8 C    0.962
    12   1 H    0.995 --     1 C    0.965
    13   1 H    0.996 --     1 C    0.984
    14   1 H    0.995 --     1 C    0.967
    15   1 H    0.995 --     3 C    0.971
    16   1 H    0.995 --     3 C    0.973
    17   1 H    0.992 --     7 C    0.958
    18   1 H    0.992 --     7 C    0.957
 ---------------------------------------------------------------------------

Topologies differ in total number of bonds
Writing topology from bond orders to xtbtopo.mol

molecular dipole:
                 x           y           z       tot (Debye)
 q only:       -1.041      -0.206       0.246
   full:       -0.998      -0.185       0.227       2.645
molecular quadrupole (traceless):
                xx          xy          yy          xz          yz          zz
 q only:       -1.873       1.691       1.762      -7.085      -0.851       0.111
  q+dip:       -3.323       1.398       2.818      -7.524      -0.840       0.505
   full:       -3.422       1.378       3.758      -7.921      -0.167      -0.336

           -------------------------------------------------
          |                Geometry Summary                 |
           -------------------------------------------------

      molecular mass/u    :      168.1140200
   center of mass at/Å    :        1.0144324       0.1468755       0.1857335
  moments of inertia/u·Å² :        0.1988037E+03   0.9592861E+03   0.1063831E+04
rotational constants/cm⁻¹ :        0.8479536E-01   0.1757310E-01   0.1584616E-01

 * 15 selected distances

     #   Z          #   Z                                           value/Å
     2   6 C        3   6 C                                       1.3299257
     4   6 C        5   8 O                                       1.2033454
     4   6 C        6   8 O                                       1.3582612
     6   8 O        7   6 C                                       1.4104824
     7   6 C        8   6 C                                       1.5224905 (max)
     8   6 C        9   9 F                                       1.3407619
     8   6 C       10   9 F                                       1.3352124
     8   6 C       11   9 F                                       1.3351221
     1   6 C       12   1 H                                       1.0886249
     1   6 C       13   1 H                                       1.0854519
     1   6 C       14   1 H                                       1.0882384
     3   6 C       15   1 H                                       1.0754014 (min)
     3   6 C       16   1 H                                       1.0771116
     7   6 C       17   1 H                                       1.0970746
     7   6 C       18   1 H                                       1.0971256

 * 4 distinct bonds (by element types)

   Z      Z             #   av. dist./Å        max./Å        min./Å
   1 H    6 C           7     1.0870041     1.0971256     1.0754014
   6 C    6 C           2     1.4262081     1.5224905     1.3299257
   6 C    8 O           3     1.3240297     1.4104824     1.2033454
   6 C    9 F           3     1.3370321     1.3407619     1.3351221


optimized geometry written to: xtbopt.xyz


           -------------------------------------------------
          | TOTAL ENERGY              -38.735107405764 Eh   |
          | GRADIENT NORM               0.000339411040 Eh/α |
          | HOMO-LUMO GAP               3.856301921441 eV   |
           -------------------------------------------------

------------------------------------------------------------------------
 * finished run on 2025/12/01 at 14:18:59.410     
------------------------------------------------------------------------
 total:
 * wall-time:     0 d,  0 h,  0 min,  0.201 sec
 *  cpu-time:     0 d,  0 h,  0 min,  4.374 sec
 * ratio c/w:    21.706 speedup
 SCF:
 * wall-time:     0 d,  0 h,  0 min,  0.024 sec
 *  cpu-time:     0 d,  0 h,  0 min,  0.558 sec
 * ratio c/w:    23.043 speedup
 ANC optimizer:
 * wall-time:     0 d,  0 h,  0 min,  0.160 sec
 *  cpu-time:     0 d,  0 h,  0 min,  3.641 sec
 * ratio c/w:    22.695 speedup

normal termination of xtb
