      -----------------------------------------------------------      
     |                   =====================                   |     
     |                           x T B                           |     
     |                   =====================                   |     
     |                         S. Grimme                         |     
     |          Mulliken Center for Theoretical Chemistry        |     
     |                    University of Bonn                     |     
      -----------------------------------------------------------      

   * xtb version 6.7.1 (edcfbbe) compiled by 'albert@albert-system' on 2024-07-22

   xtb is free software: you can redistribute it and/or modify it under
   the terms of the GNU Lesser General Public License as published by
   the Free Software Foundation, either version 3 of the License, or
   (at your option) any later version.
   
   xtb is distributed in the hope that it will be useful,
   but WITHOUT ANY WARRANTY; without even the implied warranty of
   MERCHANTABILITY or FITNESS FOR A PARTICULAR PURPOSE.  See the
   GNU Lesser General Public License for more details.
   
   Cite this work as:
   * C. Bannwarth, E. Caldeweyher, S. Ehlert, A. Hansen, P. Pracht,
     J. Seibert, S. Spicher, S. Grimme, WIREs Comput. Mol. Sci., 2020, 11,
     e01493. DOI: 10.1002/wcms.1493
   
   for GFN2-xTB:
   * C. Bannwarth, S. Ehlert and S. Grimme., J. Chem. Theory Comput., 2019,
     15, 1652-1671. DOI: 10.1021/acs.jctc.8b01176
   for GFN1-xTB:
   * S. Grimme, C. Bannwarth, P. Shushkov, J. Chem. Theory Comput., 2017,
     13, 1989-2009. DOI: 10.1021/acs.jctc.7b00118
   for GFN0-xTB:
   * P. Pracht, E. Caldeweyher, S. Ehlert, S. Grimme, ChemRxiv, 2019, preprint.
     DOI: 10.26434/chemrxiv.8326202.v1
   for GFN-FF:
   * S. Spicher and S. Grimme, Angew. Chem. Int. Ed., 2020, 59, 15665-15673.
     DOI: 10.1002/anie.202004239
   
   for ALPB and GBSA implicit solvation:
   * S. Ehlert, M. Stahn, S. Spicher, S. Grimme, J. Chem. Theory Comput.,
     2021, 17, 4250-4261. DOI: 10.1021/acs.jctc.1c00471
   
   for ddCOSMO and CPCM-X implicit solvation:
   * M. Stahn, S. Ehlert, S. Grimme, J. Phys. Chem. A,
     2023, XX, XXXX-XXXX. DOI: 10.1021/acs.jpca.3c04382
   
   for DFT-D4:
   * E. Caldeweyher, C. Bannwarth and S. Grimme, J. Chem. Phys., 2017,
     147, 034112. DOI: 10.1063/1.4993215
   * E. Caldeweyher, S. Ehlert, A. Hansen, H. Neugebauer, S. Spicher,
     C. Bannwarth and S. Grimme, J. Chem. Phys., 2019, 150, 154122.
     DOI: 10.1063/1.5090222
   * E. Caldeweyher, J.-M. Mewes, S. Ehlert and S. Grimme, Phys. Chem. Chem. Phys.
     2020, 22, 8499-8512. DOI: 10.1039/D0CP00502A
   
   for sTDA-xTB:
   * S. Grimme and C. Bannwarth, J. Chem. Phys., 2016, 145, 054103.
     DOI: 10.1063/1.4959605
   
   in the mass-spec context:
   * V. Asgeirsson, C. Bauer and S. Grimme, Chem. Sci., 2017, 8, 4879.
     DOI: 10.1039/c7sc00601b
   * J. Koopman and S. Grimme, ACS Omega 2019, 4, 12, 15120-15133.
     DOI: 10.1021/acsomega.9b02011
   
   for metadynamics refer to:
   * S. Grimme, J. Chem. Theory Comput., 2019, 155, 2847-2862
     DOI: 10.1021/acs.jctc.9b00143
   
   for SPH calculations refer to:
   * S. Spicher and S. Grimme, J. Chem. Theory Comput., 2021, 17, 1701-1714
     DOI: 10.1021/acs.jctc.0c01306
   
   for ONIOM refer to:
   * C. Plett, A. Katbashev, S. Ehlert, S. Grimme, M. Bursch,
     Phys. Chem. Chem. Phys., 2023, 25, 17860-17868. DOI: 10.1039/D3CP02178E
   
   for DIPRO refer to:
   * J. Kohn, N. Gildemeister, S. Grimme, D. Fazzi, A. Hansen,
     J. Chem. Phys., 2023, just accepted.
   
   for PTB refer to:
   * S. Grimme, M. Mueller, A. Hansen, J. Chem. Phys., 2023, 158, 124111.
     DOI: 10.1063/5.0137838
   
   with help from (in alphabetical order)
   P. Atkinson, C. Bannwarth, F. Bohle, G. Brandenburg, E. Caldeweyher
   M. Checinski, S. Dohm, S. Ehlert, S. Ehrlich, I. Gerasimov, C. Hölzer
   A. Katbashev, J. Kohn, J. Koopman, C. Lavigne, S. Lehtola, F. März, M. Müller,
   F. Musil, H. Neugebauer, J. Pisarek, C. Plett, P. Pracht, F. Pultar,
   J. Seibert, P. Shushkov, S. Spicher, M. Stahn, M. Steiner, T. Strunk,
   J. Stückrath, T. Rose, and J. Unsleber
   
 * started run on 2025/12/01 at 14:18:58.837     
   ID    Z sym.   atoms
    1    6 C      1-4, 7, 8
    2    8 O      5, 6
    3    9 F      9-11
    4    1 H      12-18

           -------------------------------------------------
          |                Calculation Setup                |
           -------------------------------------------------

          program call               : xtb pipeline_data/3_conformer_xyz/acrylates/rdkit/QTKPMCIBUROOGY-UHFFFAOYSA-N_conf142.xyz --opt --gfn 2-xTB --iterations 250
          coordinate file            : pipeline_data/3_conformer_xyz/acrylates/rdkit/QTKPMCIBUROOGY-UHFFFAOYSA-N_conf142.xyz
          omp threads                :                    24

########################################################################
[WARNING] Please study the warnings concerning your input carefully
-1- readin_getIntValue: could not parse '2-xTB'
########################################################################

           -------------------------------------------------
          |                 G F N 2 - x T B                 |
           -------------------------------------------------

        Reference                      10.1021/acs.jctc.8b01176
      * Hamiltonian:
        H0-scaling (s, p, d)           1.850000    2.230000    2.230000
        zeta-weighting                 0.500000
      * Dispersion:
        s8                             2.700000
        a1                             0.520000
        a2                             5.000000
        s9                             5.000000
      * Repulsion:
        kExp                           1.500000    1.000000
        rExp                           1.000000
      * Coulomb:
        alpha                          2.000000
        third order                    shell-resolved
        anisotropic                    true
        a3                             3.000000
        a5                             4.000000
        cn-shift                       1.200000
        cn-exp                         4.000000
        max-rad                        5.000000

q/qsh data taken from xtbrestart
CAMM data taken from xtbrestart

          ...................................................
          :                      SETUP                      :
          :.................................................:
          :  # basis functions                  51          :
          :  # atomic orbitals                  51          :
          :  # shells                           29          :
          :  # electrons                        64          :
          :  max. iterations                   250          :
          :  Hamiltonian                  GFN2-xTB          :
          :  restarted?                       true          :
          :  GBSA solvation                  false          :
          :  PC potential                    false          :
          :  electronic temp.          300.0000000     K    :
          :  accuracy                    1.0000000          :
          :  -> integral cutoff          0.2500000E+02      :
          :  -> integral neglect         0.1000000E-07      :
          :  -> SCF convergence          0.1000000E-05 Eh   :
          :  -> wf. convergence          0.1000000E-03 e    :
          :  Broyden damping             0.4000000          :
          :  net charge                          0          :
          :  unpaired electrons                  0          :
          ...................................................

 iter      E             dE          RMSdq      gap      omega  full diag
   1    -38.9834193 -0.389834E+02  0.353E+00    3.35       0.0  T
   2    -38.9890243 -0.560499E-02  0.215E+00    3.55       1.0  T
   3    -38.9794250  0.959925E-02  0.975E-01    3.42       1.0  T
   4    -38.9921983 -0.127732E-01  0.304E-01    3.52       1.0  T
   5    -38.9926416 -0.443321E-03  0.130E-01    3.53       1.0  T
   6    -38.9926628 -0.212498E-04  0.255E-02    3.53       1.0  T
   7    -38.9926658 -0.299884E-05  0.124E-02    3.53       1.9  T
   8    -38.9926662 -0.387358E-06  0.394E-03    3.52       6.0  T
   9    -38.9926663 -0.823499E-07  0.212E-03    3.52      11.1  T
  10    -38.9926663 -0.133564E-07  0.512E-04    3.52      46.0  T
  11    -38.9926663 -0.462983E-09  0.223E-04    3.52     105.5  T

   *** convergence criteria satisfied after 11 iterations ***

         #    Occupation            Energy/Eh            Energy/eV
      -------------------------------------------------------------
         1        2.0000           -0.8867502             -24.1297
       ...           ...                  ...                  ...
        26        2.0000           -0.5067761             -13.7901
        27        2.0000           -0.4978841             -13.5481
        28        2.0000           -0.4852478             -13.2043
        29        2.0000           -0.4744283             -12.9098
        30        2.0000           -0.4672530             -12.7146
        31        2.0000           -0.4371798             -11.8963
        32        2.0000           -0.4346993             -11.8288 (HOMO)
        33                         -0.3052094              -8.3052 (LUMO)
        34                         -0.1901583              -5.1745
        35                         -0.1006684              -2.7393
        36                         -0.0424794              -1.1559
        37                         -0.0358340              -0.9751
       ...                                ...                  ...
        51                          0.5841546              15.8957
      -------------------------------------------------------------
                  HL-Gap            0.1294900 Eh            3.5236 eV
             Fermi-level           -0.3699543 Eh          -10.0670 eV

 SCC (total)                   0 d,  0 h,  0 min,  0.026 sec
 SCC setup                      ...        0 min,  0.000 sec (  1.775%)
 Dispersion                     ...        0 min,  0.000 sec (  1.269%)
 classical contributions        ...        0 min,  0.000 sec (  0.491%)
 integral evaluation            ...        0 min,  0.001 sec (  4.136%)
 iterations                     ...        0 min,  0.021 sec ( 80.867%)
 molecular gradient             ...        0 min,  0.003 sec ( 10.205%)
 printout                       ...        0 min,  0.000 sec (  1.126%)

         :::::::::::::::::::::::::::::::::::::::::::::::::::::
         ::                     SUMMARY                     ::
         :::::::::::::::::::::::::::::::::::::::::::::::::::::
         :: total energy             -38.714623663604 Eh    ::
         :: gradient norm              0.136776572674 Eh/a0 ::
         :: HOMO-LUMO gap              3.523601188649 eV    ::
         ::.................................................::
         :: SCC energy               -38.992661766916 Eh    ::
         :: -> isotropic ES            0.088868906346 Eh    ::
         :: -> anisotropic ES          0.000940306033 Eh    ::
         :: -> anisotropic XC         -0.010767703888 Eh    ::
         :: -> dispersion             -0.011636382478 Eh    ::
         :: repulsion energy           0.278038103312 Eh    ::
         :: add. restraining           0.000000000000 Eh    ::
         :: total charge               0.000000000000 e     ::
         :::::::::::::::::::::::::::::::::::::::::::::::::::::

      ----------------------------------------------------------- 
     |                   =====================                   |
     |                        A N C O P T                        |
     |                   =====================                   |
     |               Approximate Normal Coordinate               |
     |                Rational Function Optimizer                |
      ----------------------------------------------------------- 
      ----------------------------------------------------------- 
     |                   =====================                   |
     |                        A N C O P T                        |
     |                   =====================                   |
     |               Approximate Normal Coordinate               |
     |                Rational Function Optimizer                |
      ----------------------------------------------------------- 

          ...................................................
          :                      SETUP                      :
          :.................................................:
          :   optimization level            normal          :
          :   max. optcycles                   200          :
          :   ANC micro-cycles                  20          :
          :   degrees of freedom                48          :
          :.................................................:
          :   RF solver                   davidson          :
          :   write xtbopt.log                true          :
          :   linear?                        false          :
          :   energy convergence         0.5000000E-05 Eh   :
          :   grad. convergence          0.1000000E-02 Eh/α :
          :   maxmium RF displ.          1.0000000          :
          :   Hlow (freq-cutoff)         0.1000000E-01      :
          :   Hmax (freq-cutoff)         5.0000000          :
          :   S6 in model hess.         20.0000000          :
          ...................................................

generating ANC from exact Hessian ...
Using Lindh-Hessian (1995)
 Shifting diagonal of input Hessian by   8.607124353860384E-003
 Lowest  eigenvalues of input Hessian
    0.000000    0.000000    0.000000    0.000000    0.000000    0.000000
    0.010000    0.010962    0.012062    0.017316    0.018610    0.020553
    0.022733    0.027445    0.028696    0.038261    0.041001    0.057686
 Highest eigenvalues
    1.486201    1.520508    1.576449    1.784583    1.865238    2.140214
 

........................................................................
.............................. CYCLE    1 ..............................
........................................................................

 iter      E             dE          RMSdq      gap      omega  full diag
   1    -38.9926663 -0.389927E+02  0.634E-05    3.52       0.0  T
   2    -38.9926663 -0.399325E-11  0.413E-05    3.52     571.4  T
   3    -38.9926663 -0.203215E-11  0.326E-05    3.52     722.1  T
     SCC iter.                  ...        0 min,  0.003 sec
     gradient                   ...        0 min,  0.002 sec
 * total energy  :   -38.7146237 Eh     change       -0.1879954E-09 Eh
   gradient norm :     0.1367792 Eh/α   predicted     0.0000000E+00 (-100.00%)
   displ. norm   :     0.3097187 α      lambda       -0.2119808E-01
   maximum displ.:     0.1582271 α      in ANC's #8, #7, #17, ...

........................................................................
.............................. CYCLE    2 ..............................
........................................................................

 iter      E             dE          RMSdq      gap      omega  full diag
   1    -39.0252481 -0.390252E+02  0.318E-01    3.74       0.0  T
   2    -39.0255634 -0.315324E-03  0.196E-01    3.68       1.0  T
   3    -39.0255525  0.109540E-04  0.912E-02    3.69       1.0  T
   4    -39.0255637 -0.112048E-04  0.472E-02    3.68       1.0  T
   5    -39.0255931 -0.293783E-04  0.100E-02    3.68       2.4  T
   6    -39.0255936 -0.495284E-06  0.495E-03    3.68       4.8  T
   7    -39.0255936 -0.602347E-07  0.170E-03    3.68      13.9  T
   8    -39.0255936 -0.812899E-08  0.763E-04    3.68      30.9  T
   9    -39.0255936 -0.153005E-08  0.183E-04    3.68     128.8  T
     SCC iter.                  ...        0 min,  0.007 sec
     gradient                   ...        0 min,  0.002 sec
 * total energy  :   -38.7296507 Eh     change       -0.1502706E-01 Eh
   gradient norm :     0.0580164 Eh/α   predicted    -0.1161576E-01 ( -22.70%)
   displ. norm   :     0.3145438 α      lambda       -0.7320664E-02
   maximum displ.:     0.2029168 α      in ANC's #7, #8, #24, ...

........................................................................
.............................. CYCLE    3 ..............................
........................................................................

 iter      E             dE          RMSdq      gap      omega  full diag
   1    -39.0430710 -0.390431E+02  0.237E-01    3.84       0.0  T
   2    -39.0432403 -0.169298E-03  0.144E-01    3.79       1.0  T
   3    -39.0432407 -0.401287E-06  0.619E-02    3.79       1.0  T
   4    -39.0432422 -0.152907E-05  0.278E-02    3.79       1.0  T
   5    -39.0432524 -0.101313E-04  0.664E-03    3.79       3.6  T
   6    -39.0432526 -0.245858E-06  0.244E-03    3.79       9.6  T
   7    -39.0432526 -0.104016E-07  0.897E-04    3.79      26.3  T
   8    -39.0432526 -0.158180E-08  0.408E-04    3.79      57.8  T
     SCC iter.                  ...        0 min,  0.006 sec
     gradient                   ...        0 min,  0.002 sec
 * total energy  :   -38.7336317 Eh     change       -0.3981011E-02 Eh
   gradient norm :     0.0155461 Eh/α   predicted    -0.4022472E-02 (   1.04%)
   displ. norm   :     0.1707337 α      lambda       -0.8034271E-03
   maximum displ.:     0.1240775 α      in ANC's #7, #8, #3, ...

........................................................................
.............................. CYCLE    4 ..............................
........................................................................

 iter      E             dE          RMSdq      gap      omega  full diag
   1    -39.0425614 -0.390426E+02  0.638E-02    3.79       0.0  T
   2    -39.0425711 -0.976246E-05  0.404E-02    3.79       1.0  T
   3    -39.0425689  0.224311E-05  0.220E-02    3.79       1.1  T
   4    -39.0425711 -0.221890E-05  0.998E-03    3.79       2.4  T
   5    -39.0425724 -0.128828E-05  0.117E-03    3.79      20.2  T
   6    -39.0425724 -0.484649E-08  0.545E-04    3.79      43.3  T
   7    -39.0425724 -0.257138E-09  0.133E-04    3.79     177.3  T
     SCC iter.                  ...        0 min,  0.006 sec
     gradient                   ...        0 min,  0.002 sec
 * total energy  :   -38.7342067 Eh     change       -0.5749787E-03 Eh
   gradient norm :     0.0076065 Eh/α   predicted    -0.4134253E-03 ( -28.10%)
   displ. norm   :     0.1709259 α      lambda       -0.4156111E-03
   maximum displ.:     0.1227400 α      in ANC's #7, #8, #3, ...

........................................................................
.............................. CYCLE    5 ..............................
........................................................................

 iter      E             dE          RMSdq      gap      omega  full diag
   1    -39.0423404 -0.390423E+02  0.536E-02    3.80       0.0  T
   2    -39.0423482 -0.779926E-05  0.321E-02    3.80       1.0  T
   3    -39.0423484 -0.148423E-06  0.128E-02    3.80       1.8  T
   4    -39.0423485 -0.970169E-07  0.223E-03    3.80      10.5  T
   5    -39.0423485 -0.376271E-07  0.987E-04    3.80      23.9  T
   6    -39.0423485 -0.279131E-08  0.551E-04    3.80      42.8  T
     SCC iter.                  ...        0 min,  0.005 sec
     gradient                   ...        0 min,  0.002 sec
 * total energy  :   -38.7344479 Eh     change       -0.2412019E-03 Eh
   gradient norm :     0.0040493 Eh/α   predicted    -0.2138780E-03 ( -11.33%)
   displ. norm   :     0.0536614 α      lambda       -0.6080894E-04
   maximum displ.:     0.0289338 α      in ANC's #7, #3, #8, ...

........................................................................
.............................. CYCLE    6 ..............................
........................................................................

 iter      E             dE          RMSdq      gap      omega  full diag
   1    -39.0428722 -0.390429E+02  0.202E-02    3.81       0.0  T
   2    -39.0428726 -0.447791E-06  0.119E-02    3.81       2.0  T
   3    -39.0428722  0.373765E-06  0.752E-03    3.81       3.1  T
   4    -39.0428728 -0.510341E-06  0.214E-03    3.81      11.0  T
   5    -39.0428728 -0.419161E-07  0.535E-04    3.81      44.0  T
   6    -39.0428728 -0.768139E-09  0.241E-04    3.81      97.7  T
     SCC iter.                  ...        0 min,  0.005 sec
     gradient                   ...        0 min,  0.001 sec
 * total energy  :   -38.7344876 Eh     change       -0.3971726E-04 Eh
   gradient norm :     0.0021329 Eh/α   predicted    -0.3049102E-04 ( -23.23%)
   displ. norm   :     0.0526355 α      lambda       -0.3263672E-04
   maximum displ.:     0.0348474 α      in ANC's #4, #3, #9, ...

........................................................................
.............................. CYCLE    7 ..............................
........................................................................

 iter      E             dE          RMSdq      gap      omega  full diag
   1    -39.0432815 -0.390433E+02  0.234E-02    3.81       0.0  T
   2    -39.0432816 -0.115986E-06  0.141E-02    3.81       1.7  T
   3    -39.0432807  0.906280E-06  0.942E-03    3.81       2.5  T
   4    -39.0432818 -0.110971E-05  0.996E-04    3.81      23.7  T
   5    -39.0432818 -0.337521E-08  0.401E-04    3.81      58.7  T
   6    -39.0432818 -0.332328E-09  0.160E-04    3.81     147.5  T
     SCC iter.                  ...        0 min,  0.005 sec
     gradient                   ...        0 min,  0.002 sec
 * total energy  :   -38.7345079 Eh     change       -0.2027626E-04 Eh
   gradient norm :     0.0011738 Eh/α   predicted    -0.1636385E-04 ( -19.30%)
   displ. norm   :     0.0769168 α      lambda       -0.1858638E-04
   maximum displ.:     0.0586036 α      in ANC's #4, #3, #1, ...

........................................................................
.............................. CYCLE    8 ..............................
........................................................................

 iter      E             dE          RMSdq      gap      omega  full diag
   1    -39.0433940 -0.390434E+02  0.286E-02    3.81       0.0  T
   2    -39.0433941 -0.123906E-06  0.173E-02    3.81       1.4  T
   3    -39.0433929  0.115568E-05  0.100E-02    3.81       2.4  T
   4    -39.0433943 -0.132904E-05  0.926E-04    3.81      25.5  T
   5    -39.0433943 -0.373853E-08  0.435E-04    3.81      54.2  T
   6    -39.0433943 -0.372431E-09  0.159E-04    3.81     147.9  T
     SCC iter.                  ...        0 min,  0.005 sec
     gradient                   ...        0 min,  0.002 sec
 * total energy  :   -38.7345276 Eh     change       -0.1965262E-04 Eh
   gradient norm :     0.0020965 Eh/α   predicted    -0.9318398E-05 ( -52.58%)
   displ. norm   :     0.1162729 α      lambda       -0.3576899E-04
   maximum displ.:     0.0958889 α      in ANC's #4, #3, #1, ...

........................................................................
.............................. CYCLE    9 ..............................
........................................................................

 iter      E             dE          RMSdq      gap      omega  full diag
   1    -39.0431113 -0.390431E+02  0.395E-02    3.81       0.0  T
   2    -39.0431115 -0.216725E-06  0.236E-02    3.81       1.0  T
   3    -39.0431110  0.529185E-06  0.679E-03    3.81       3.5  T
   4    -39.0431116 -0.614325E-06  0.134E-03    3.81      17.7  T
   5    -39.0431116 -0.148225E-07  0.601E-04    3.81      39.2  T
   6    -39.0431116 -0.514980E-09  0.237E-04    3.81      99.4  T
     SCC iter.                  ...        0 min,  0.005 sec
     gradient                   ...        0 min,  0.002 sec
 * total energy  :   -38.7345579 Eh     change       -0.3031143E-04 Eh
   gradient norm :     0.0031020 Eh/α   predicted    -0.1812569E-04 ( -40.20%)
   displ. norm   :     0.1096105 α      lambda       -0.4136471E-04
   maximum displ.:     0.0894426 α      in ANC's #4, #3, #1, ...

........................................................................
.............................. CYCLE   10 ..............................
........................................................................

 iter      E             dE          RMSdq      gap      omega  full diag
   1    -39.0427965 -0.390428E+02  0.375E-02    3.80       0.0  T
   2    -39.0427967 -0.155056E-06  0.224E-02    3.80       1.1  T
   3    -39.0427967 -0.178500E-07  0.185E-03    3.80      12.8  T
   4    -39.0427967 -0.283133E-07  0.781E-04    3.80      30.2  T
   5    -39.0427967 -0.530768E-09  0.460E-04    3.80      51.2  T
     SCC iter.                  ...        0 min,  0.004 sec
     gradient                   ...        0 min,  0.001 sec
 * total energy  :   -38.7345928 Eh     change       -0.3493834E-04 Eh
   gradient norm :     0.0033022 Eh/α   predicted    -0.2093253E-04 ( -40.09%)
   displ. norm   :     0.1473305 α      lambda       -0.5522846E-04
   maximum displ.:     0.1211970 α      in ANC's #4, #2, #1, ...

........................................................................
.............................. CYCLE   11 ..............................
........................................................................

 iter      E             dE          RMSdq      gap      omega  full diag
   1    -39.0424430 -0.390424E+02  0.483E-02    3.81       0.0  T
   2    -39.0424432 -0.234590E-06  0.288E-02    3.81       1.0  T
   3    -39.0424432  0.196826E-07  0.295E-03    3.81       8.0  T
   4    -39.0424433 -0.752271E-07  0.160E-03    3.81      14.7  T
   5    -39.0424433 -0.223415E-07  0.700E-04    3.81      33.7  T
   6    -39.0424433 -0.124039E-08  0.221E-04    3.81     106.4  T
     SCC iter.                  ...        0 min,  0.004 sec
     gradient                   ...        0 min,  0.001 sec
 * total energy  :   -38.7346369 Eh     change       -0.4406840E-04 Eh
   gradient norm :     0.0034974 Eh/α   predicted    -0.2821368E-04 ( -35.98%)
   displ. norm   :     0.2271885 α      lambda       -0.7572409E-04
   maximum displ.:     0.1905248 α      in ANC's #4, #1, #2, ...

........................................................................
.............................. CYCLE   12 ..............................
........................................................................

 iter      E             dE          RMSdq      gap      omega  full diag
   1    -39.0415148 -0.390415E+02  0.772E-02    3.81       0.0  T
   2    -39.0415156 -0.793912E-06  0.458E-02    3.81       1.0  T
   3    -39.0415158 -0.149953E-06  0.308E-03    3.81       7.7  T
   4    -39.0415158 -0.259792E-07  0.160E-03    3.81      14.7  T
   5    -39.0415158 -0.505835E-10  0.107E-03    3.81      22.0  T
   6    -39.0415158 -0.799444E-08  0.363E-04    3.81      65.0  T
   7    -39.0415158 -0.873101E-09  0.130E-04    3.81     181.4  T
     SCC iter.                  ...        0 min,  0.005 sec
     gradient                   ...        0 min,  0.005 sec
 * total energy  :   -38.7346802 Eh     change       -0.4327328E-04 Eh
   gradient norm :     0.0055898 Eh/α   predicted    -0.3981671E-04 (  -7.99%)
   displ. norm   :     0.0764531 α      lambda       -0.7017213E-04
   maximum displ.:     0.0593790 α      in ANC's #4, #1, #2, ...

........................................................................
.............................. CYCLE   13 ..............................
........................................................................

 iter      E             dE          RMSdq      gap      omega  full diag
   1    -39.0427138 -0.390427E+02  0.316E-02    3.82       0.0  T
   2    -39.0427142 -0.404562E-06  0.184E-02    3.81       1.3  T
   3    -39.0427142 -0.271651E-07  0.253E-03    3.82       9.3  T
   4    -39.0427142 -0.225954E-07  0.847E-04    3.82      27.8  T
   5    -39.0427142 -0.195970E-08  0.417E-04    3.82      56.5  T
     SCC iter.                  ...        0 min,  0.004 sec
     gradient                   ...        0 min,  0.001 sec
 * total energy  :   -38.7347302 Eh     change       -0.4999811E-04 Eh
   gradient norm :     0.0033916 Eh/α   predicted    -0.3529116E-04 ( -29.42%)
   displ. norm   :     0.2439117 α      lambda       -0.9802724E-04
   maximum displ.:     0.2027953 α      in ANC's #4, #1, #2, ...

........................................................................
.............................. CYCLE   14 ..............................
........................................................................

 iter      E             dE          RMSdq      gap      omega  full diag
   1    -39.0424604 -0.390425E+02  0.806E-02    3.83       0.0  T
   2    -39.0424612 -0.796984E-06  0.479E-02    3.83       1.0  T
   3    -39.0424576  0.352512E-05  0.168E-02    3.83       1.4  T
   4    -39.0424616 -0.400934E-05  0.238E-03    3.83       9.9  T
   5    -39.0424617 -0.307150E-07  0.112E-03    3.83      21.0  T
   6    -39.0424617 -0.107415E-08  0.370E-04    3.83      63.6  T
   7    -39.0424617 -0.423270E-09  0.141E-04    3.83     166.8  T
     SCC iter.                  ...        0 min,  0.005 sec
     gradient                   ...        0 min,  0.002 sec
 * total energy  :   -38.7348010 Eh     change       -0.7086502E-04 Eh
   gradient norm :     0.0049127 Eh/α   predicted    -0.5193141E-04 ( -26.72%)
   displ. norm   :     0.2015485 α      lambda       -0.1232327E-03
   maximum displ.:     0.1535575 α      in ANC's #4, #1, #2, ...

........................................................................
.............................. CYCLE   15 ..............................
........................................................................

 iter      E             dE          RMSdq      gap      omega  full diag
   1    -39.0435072 -0.390435E+02  0.688E-02    3.84       0.0  T
   2    -39.0435077 -0.489850E-06  0.414E-02    3.84       1.0  T
   3    -39.0435006  0.709899E-05  0.247E-02    3.84       1.0  T
   4    -39.0435089 -0.824598E-05  0.216E-03    3.84      10.9  T
   5    -39.0435089 -0.172589E-07  0.117E-03    3.84      20.2  T
   6    -39.0435089 -0.230064E-08  0.274E-04    3.84      85.9  T
   7    -39.0435089 -0.258375E-09  0.113E-04    3.84     208.1  T
     SCC iter.                  ...        0 min,  0.005 sec
     gradient                   ...        0 min,  0.001 sec
 * total energy  :   -38.7348784 Eh     change       -0.7739346E-04 Eh
   gradient norm :     0.0036163 Eh/α   predicted    -0.6412014E-04 ( -17.15%)
   displ. norm   :     0.2243355 α      lambda       -0.6538704E-04
   maximum displ.:     0.1839856 α      in ANC's #4, #2, #1, ...

........................................................................
.............................. CYCLE   16 ..............................
........................................................................

 iter      E             dE          RMSdq      gap      omega  full diag
   1    -39.0419681 -0.390420E+02  0.772E-02    3.85       0.0  T
   2    -39.0419699 -0.175687E-05  0.456E-02    3.85       1.0  T
   3    -39.0419646  0.528669E-05  0.219E-02    3.85       1.1  T
   4    -39.0419706 -0.603358E-05  0.311E-03    3.85       7.6  T
   5    -39.0419707 -0.947326E-07  0.118E-03    3.85      20.0  T
   6    -39.0419707 -0.138509E-08  0.501E-04    3.85      47.1  T
   7    -39.0419707 -0.715843E-09  0.124E-04    3.85     190.1  T
     SCC iter.                  ...        0 min,  0.005 sec
     gradient                   ...        0 min,  0.001 sec
 * total energy  :   -38.7349011 Eh     change       -0.2270636E-04 Eh
   gradient norm :     0.0060875 Eh/α   predicted    -0.3433831E-04 (  51.23%)
   displ. norm   :     0.0864255 α      lambda       -0.1293750E-03
   maximum displ.:     0.0621597 α      in ANC's #3, #4, #2, ...

........................................................................
.............................. CYCLE   17 ..............................
........................................................................

 iter      E             dE          RMSdq      gap      omega  full diag
   1    -39.0444040 -0.390444E+02  0.421E-02    3.85       0.0  T
   2    -39.0444060 -0.202501E-05  0.247E-02    3.85       1.0  T
   3    -39.0444050  0.104853E-05  0.124E-02    3.85       1.9  T
   4    -39.0444062 -0.123762E-05  0.463E-03    3.85       5.1  T
   5    -39.0444064 -0.222547E-06  0.108E-03    3.85      21.8  T
   6    -39.0444064 -0.141209E-08  0.309E-04    3.85      76.2  T
   7    -39.0444064 -0.227715E-09  0.130E-04    3.85     180.8  T
     SCC iter.                  ...        0 min,  0.005 sec
     gradient                   ...        0 min,  0.001 sec
 * total energy  :   -38.7349370 Eh     change       -0.3585948E-04 Eh
   gradient norm :     0.0038987 Eh/α   predicted    -0.6516945E-04 (  81.74%)
   displ. norm   :     0.0759006 α      lambda       -0.5161837E-04
   maximum displ.:     0.0618721 α      in ANC's #4, #2, #1, ...

........................................................................
.............................. CYCLE   18 ..............................
........................................................................

 iter      E             dE          RMSdq      gap      omega  full diag
   1    -39.0438679 -0.390439E+02  0.262E-02    3.86       0.0  T
   2    -39.0438682 -0.267926E-06  0.153E-02    3.86       1.5  T
   3    -39.0438681  0.416646E-07  0.317E-03    3.85       7.4  T
   4    -39.0438682 -0.614830E-07  0.145E-03    3.85      16.3  T
   5    -39.0438682 -0.242069E-07  0.563E-04    3.85      41.9  T
   6    -39.0438682 -0.101129E-08  0.149E-04    3.85     158.3  T
     SCC iter.                  ...        0 min,  0.004 sec
     gradient                   ...        0 min,  0.001 sec
 * total energy  :   -38.7349680 Eh     change       -0.3098618E-04 Eh
   gradient norm :     0.0018014 Eh/α   predicted    -0.2595816E-04 ( -16.23%)
   displ. norm   :     0.1052215 α      lambda       -0.1618949E-04
   maximum displ.:     0.0902927 α      in ANC's #4, #2, #1, ...

........................................................................
.............................. CYCLE   19 ..............................
........................................................................

 iter      E             dE          RMSdq      gap      omega  full diag
   1    -39.0433661 -0.390434E+02  0.355E-02    3.86       0.0  T
   2    -39.0433663 -0.227430E-06  0.210E-02    3.86       1.1  T
   3    -39.0433663 -0.216708E-07  0.192E-03    3.86      12.3  T
   4    -39.0433664 -0.164109E-07  0.100E-03    3.86      23.5  T
   5    -39.0433664 -0.704125E-08  0.577E-04    3.86      40.8  T
   6    -39.0433664 -0.180718E-08  0.146E-04    3.86     161.6  T
     SCC iter.                  ...        0 min,  0.007 sec
     gradient                   ...        0 min,  0.002 sec
 * total energy  :   -38.7349804 Eh     change       -0.1243931E-04 Eh
   gradient norm :     0.0028925 Eh/α   predicted    -0.8134605E-05 ( -34.61%)
   displ. norm   :     0.0261020 α      lambda       -0.1702983E-04
   maximum displ.:     0.0137453 α      in ANC's #4, #3, #7, ...

........................................................................
.............................. CYCLE   20 ..............................
........................................................................

 iter      E             dE          RMSdq      gap      omega  full diag
   1    -39.0440018 -0.390440E+02  0.123E-02    3.86       0.0  T
   2    -39.0440019 -0.155282E-06  0.727E-03    3.86       3.2  T
   3    -39.0440018  0.114281E-06  0.396E-03    3.86       6.0  T
   4    -39.0440020 -0.140471E-06  0.104E-03    3.86      22.6  T
   5    -39.0440020 -0.119669E-07  0.307E-04    3.86      76.7  T
   6    -39.0440020 -0.316049E-09  0.135E-04    3.86     175.0  T
     SCC iter.                  ...        0 min,  0.004 sec
     gradient                   ...        0 min,  0.002 sec
 * total energy  :   -38.7349910 Eh     change       -0.1062590E-04 Eh
   gradient norm :     0.0019104 Eh/α   predicted    -0.8522894E-05 ( -19.79%)
   displ. norm   :     0.1205603 α      lambda       -0.1604695E-04
   maximum displ.:     0.1055609 α      in ANC's #4, #2, #29, ...
 * RMSD in coord.:     0.4812665 α      energy gain  -0.2036737E-01 Eh

generating ANC from exact Hessian ...
Using Lindh-Hessian (1995)
 Shifting diagonal of input Hessian by   8.514165201119892E-003
 Lowest  eigenvalues of input Hessian
    0.000000    0.000000    0.000000    0.000000    0.000000    0.000000
    0.010000    0.011009    0.012386    0.017637    0.019404    0.021541
    0.023106    0.027174    0.030621    0.039422    0.044454    0.060569
 Highest eigenvalues
    1.516523    1.754611    1.760429    1.835184    1.908249    2.376139
 

........................................................................
.............................. CYCLE   21 ..............................
........................................................................

 iter      E             dE          RMSdq      gap      omega  full diag
   1    -39.0440681 -0.390441E+02  0.361E-02    3.86       0.0  T
   2    -39.0440682 -0.132003E-06  0.216E-02    3.86       1.1  T
   3    -39.0440674  0.882611E-06  0.839E-03    3.86       2.8  T
   4    -39.0440684 -0.101296E-05  0.895E-04    3.86      26.3  T
   5    -39.0440684 -0.278525E-08  0.461E-04    3.86      51.1  T
   6    -39.0440684 -0.229555E-09  0.108E-04    3.86     218.0  T
     SCC iter.                  ...        0 min,  0.004 sec
     gradient                   ...        0 min,  0.002 sec
 * total energy  :   -38.7350081 Eh     change       -0.1704625E-04 Eh
   gradient norm :     0.0015195 Eh/α   predicted     0.0000000E+00 (-100.00%)
   displ. norm   :     0.0248628 α      lambda       -0.7713366E-05
   maximum displ.:     0.0103493 α      in ANC's #4, #3, #2, ...

........................................................................
.............................. CYCLE   22 ..............................
........................................................................

 iter      E             dE          RMSdq      gap      omega  full diag
   1    -39.0443355 -0.390443E+02  0.111E-02    3.86       0.0  T
   2    -39.0443356 -0.495754E-07  0.663E-03    3.86       3.6  T
   3    -39.0443355  0.212382E-07  0.166E-03    3.86      14.2  T
   4    -39.0443356 -0.267547E-07  0.732E-04    3.86      32.2  T
   5    -39.0443356 -0.528006E-08  0.230E-04    3.86     102.3  T
     SCC iter.                  ...        0 min,  0.009 sec
     gradient                   ...        0 min,  0.005 sec
 * total energy  :   -38.7350162 Eh     change       -0.8156522E-05 Eh
   gradient norm :     0.0005368 Eh/α   predicted    -0.3858211E-05 ( -52.70%)
   displ. norm   :     0.0481701 α      lambda       -0.7063948E-05
   maximum displ.:     0.0219373 α      in ANC's #2, #4, #1, ...

........................................................................
.............................. CYCLE   23 ..............................
........................................................................

 iter      E             dE          RMSdq      gap      omega  full diag
   1    -39.0443827 -0.390444E+02  0.166E-02    3.86       0.0  T
   2    -39.0443828 -0.655326E-07  0.996E-03    3.86       2.4  T
   3    -39.0443828 -0.619858E-08  0.129E-03    3.86      18.2  T
   4    -39.0443828 -0.150485E-07  0.524E-04    3.86      45.0  T
   5    -39.0443828 -0.639041E-09  0.185E-04    3.86     127.6  T
     SCC iter.                  ...        0 min,  0.006 sec
     gradient                   ...        0 min,  0.004 sec
 * total energy  :   -38.7350243 Eh     change       -0.8042342E-05 Eh
   gradient norm :     0.0007359 Eh/α   predicted    -0.3536063E-05 ( -56.03%)
   displ. norm   :     0.0921550 α      lambda       -0.9686735E-05
   maximum displ.:     0.0443236 α      in ANC's #4, #1, #2, ...

........................................................................
.............................. CYCLE   24 ..............................
........................................................................

 iter      E             dE          RMSdq      gap      omega  full diag
   1    -39.0442756 -0.390443E+02  0.330E-02    3.86       0.0  T
   2    -39.0442758 -0.173143E-06  0.198E-02    3.86       1.2  T
   3    -39.0442757  0.113023E-06  0.380E-03    3.86       6.2  T
   4    -39.0442759 -0.185845E-06  0.125E-03    3.86      18.8  T
   5    -39.0442759 -0.902389E-08  0.553E-04    3.86      42.6  T
   6    -39.0442759 -0.489045E-09  0.208E-04    3.86     113.2  T
     SCC iter.                  ...        0 min,  0.008 sec
     gradient                   ...        0 min,  0.003 sec
 * total energy  :   -38.7350356 Eh     change       -0.1135555E-04 Eh
   gradient norm :     0.0013666 Eh/α   predicted    -0.4861298E-05 ( -57.19%)
   displ. norm   :     0.1728514 α      lambda       -0.1566210E-04
   maximum displ.:     0.0860681 α      in ANC's #4, #1, #2, ...

........................................................................
.............................. CYCLE   25 ..............................
........................................................................

 iter      E             dE          RMSdq      gap      omega  full diag
   1    -39.0437621 -0.390438E+02  0.618E-02    3.86       0.0  T
   2    -39.0437627 -0.636201E-06  0.370E-02    3.86       1.0  T
   3    -39.0437619  0.826392E-06  0.903E-03    3.86       2.6  T
   4    -39.0437630 -0.111454E-05  0.237E-03    3.86       9.9  T
   5    -39.0437630 -0.338796E-07  0.110E-03    3.86      21.4  T
   6    -39.0437630 -0.693248E-09  0.329E-04    3.86      71.6  T
   7    -39.0437630 -0.661053E-09  0.985E-05    3.86     239.3  T
     SCC iter.                  ...        0 min,  0.012 sec
     gradient                   ...        0 min,  0.003 sec
 * total energy  :   -38.7350509 Eh     change       -0.1525542E-04 Eh
   gradient norm :     0.0022217 Eh/α   predicted    -0.7935596E-05 ( -47.98%)
   displ. norm   :     0.1080546 α      lambda       -0.1565616E-04
   maximum displ.:     0.0552370 α      in ANC's #1, #4, #5, ...

........................................................................
.............................. CYCLE   26 ..............................
........................................................................

 iter      E             dE          RMSdq      gap      omega  full diag
   1    -39.0435695 -0.390436E+02  0.409E-02    3.86       0.0  T
   2    -39.0435697 -0.205078E-06  0.244E-02    3.86       1.0  T
   3    -39.0435694  0.223053E-06  0.503E-03    3.86       4.7  T
   4    -39.0435698 -0.347311E-06  0.137E-03    3.86      17.2  T
   5    -39.0435698 -0.611405E-08  0.662E-04    3.86      35.6  T
   6    -39.0435698 -0.565038E-09  0.162E-04    3.86     145.6  T
     SCC iter.                  ...        0 min,  0.004 sec
     gradient                   ...        0 min,  0.002 sec
 * total energy  :   -38.7350618 Eh     change       -0.1089563E-04 Eh
   gradient norm :     0.0023588 Eh/α   predicted    -0.7919075E-05 ( -27.32%)
   displ. norm   :     0.1013977 α      lambda       -0.1973206E-04
   maximum displ.:     0.0558296 α      in ANC's #1, #5, #4, ...

........................................................................
.............................. CYCLE   27 ..............................
........................................................................

 iter      E             dE          RMSdq      gap      omega  full diag
   1    -39.0438315 -0.390438E+02  0.383E-02    3.86       0.0  T
   2    -39.0438317 -0.174168E-06  0.228E-02    3.86       1.0  T
   3    -39.0438314  0.318172E-06  0.569E-03    3.86       4.1  T
   4    -39.0438318 -0.443954E-06  0.125E-03    3.86      18.8  T
   5    -39.0438318 -0.272245E-08  0.473E-04    3.86      49.9  T
   6    -39.0438318 -0.629029E-09  0.164E-04    3.86     143.4  T
     SCC iter.                  ...        0 min,  0.004 sec
     gradient                   ...        0 min,  0.003 sec
 * total energy  :   -38.7350770 Eh     change       -0.1525166E-04 Eh
   gradient norm :     0.0015993 Eh/α   predicted    -0.9968613E-05 ( -34.64%)
   displ. norm   :     0.1833173 α      lambda       -0.1959162E-04
   maximum displ.:     0.1052624 α      in ANC's #1, #5, #4, ...

........................................................................
.............................. CYCLE   28 ..............................
........................................................................

 iter      E             dE          RMSdq      gap      omega  full diag
   1    -39.0439174 -0.390439E+02  0.704E-02    3.85       0.0  T
   2    -39.0439181 -0.632010E-06  0.419E-02    3.85       1.0  T
   3    -39.0439167  0.139666E-05  0.115E-02    3.85       2.1  T
   4    -39.0439185 -0.184946E-05  0.238E-03    3.85       9.9  T
   5    -39.0439185 -0.119215E-07  0.852E-04    3.85      27.7  T
   6    -39.0439185 -0.133102E-08  0.344E-04    3.85      68.5  T
     SCC iter.                  ...        0 min,  0.004 sec
     gradient                   ...        0 min,  0.002 sec
 * total energy  :   -38.7350933 Eh     change       -0.1626451E-04 Eh
   gradient norm :     0.0018358 Eh/α   predicted    -0.9939565E-05 ( -38.89%)
   displ. norm   :     0.0384177 α      lambda       -0.7102805E-05
   maximum displ.:     0.0268112 α      in ANC's #3, #1, #5, ...

........................................................................
.............................. CYCLE   29 ..............................
........................................................................

 iter      E             dE          RMSdq      gap      omega  full diag
   1    -39.0447149 -0.390447E+02  0.136E-02    3.86       0.0  T
   2    -39.0447151 -0.252122E-06  0.808E-03    3.86       2.9  T
   3    -39.0447151  0.386355E-07  0.297E-03    3.86       7.9  T
   4    -39.0447151 -0.306068E-07  0.163E-03    3.86      14.4  T
   5    -39.0447151 -0.344042E-07  0.312E-04    3.86      75.6  T
   6    -39.0447151 -0.601688E-10  0.134E-04    3.86     175.3  T
     SCC iter.                  ...        0 min,  0.004 sec
     gradient                   ...        0 min,  0.002 sec
 * total energy  :   -38.7350987 Eh     change       -0.5367116E-05 Eh
   gradient norm :     0.0015213 Eh/α   predicted    -0.3555097E-05 ( -33.76%)
   displ. norm   :     0.1776982 α      lambda       -0.1317674E-04
   maximum displ.:     0.1044004 α      in ANC's #1, #5, #4, ...

........................................................................
.............................. CYCLE   30 ..............................
........................................................................

 iter      E             dE          RMSdq      gap      omega  full diag
   1    -39.0436775 -0.390437E+02  0.690E-02    3.85       0.0  T
   2    -39.0436784 -0.949276E-06  0.411E-02    3.86       1.0  T
   3    -39.0436782  0.204119E-06  0.668E-03    3.85       3.5  T
   4    -39.0436788 -0.518017E-06  0.294E-03    3.86       8.0  T
   5    -39.0436788 -0.669286E-07  0.144E-03    3.86      16.4  T
   6    -39.0436788 -0.587728E-08  0.548E-04    3.86      43.0  T
   7    -39.0436788 -0.687173E-09  0.104E-04    3.86     227.5  T
     SCC iter.                  ...        0 min,  0.005 sec
     gradient                   ...        0 min,  0.002 sec
 * total energy  :   -38.7351087 Eh     change       -0.1006668E-04 Eh
   gradient norm :     0.0017314 Eh/α   predicted    -0.6682157E-05 ( -33.62%)
   displ. norm   :     0.0379725 α      lambda       -0.7095350E-05
   maximum displ.:     0.0228273 α      in ANC's #1, #3, #7, ...

........................................................................
.............................. CYCLE   31 ..............................
........................................................................

 iter      E             dE          RMSdq      gap      omega  full diag
   1    -39.0440208 -0.390440E+02  0.202E-02    3.85       0.0  T
   2    -39.0440209 -0.141372E-06  0.120E-02    3.86       2.0  T
   3    -39.0440209 -0.162661E-07  0.147E-03    3.86      16.0  T
   4    -39.0440210 -0.126861E-07  0.545E-04    3.86      43.2  T
   5    -39.0440210 -0.435591E-09  0.267E-04    3.86      88.3  T
     SCC iter.                  ...        0 min,  0.004 sec
     gradient                   ...        0 min,  0.002 sec
 * total energy  :   -38.7351127 Eh     change       -0.3962009E-05 Eh
   gradient norm :     0.0014293 Eh/α   predicted    -0.3548488E-05 ( -10.44%)
   displ. norm   :     0.0380143 α      lambda       -0.3927513E-05
   maximum displ.:     0.0261972 α      in ANC's #1, #5, #7, ...

........................................................................
.............................. CYCLE   32 ..............................
........................................................................

 iter      E             dE          RMSdq      gap      omega  full diag
   1    -39.0442867 -0.390443E+02  0.137E-02    3.86       0.0  T
   2    -39.0442868 -0.622084E-07  0.825E-03    3.86       2.9  T
   3    -39.0442867  0.468805E-07  0.224E-03    3.86      10.5  T
   4    -39.0442868 -0.663941E-07  0.703E-04    3.86      33.5  T
   5    -39.0442868 -0.413368E-08  0.307E-04    3.86      76.8  T
     SCC iter.                  ...        0 min,  0.004 sec
     gradient                   ...        0 min,  0.002 sec
 * total energy  :   -38.7351164 Eh     change       -0.3673178E-05 Eh
   gradient norm :     0.0005520 Eh/α   predicted    -0.1965766E-05 ( -46.48%)
   displ. norm   :     0.0723346 α      lambda       -0.1806056E-05
   maximum displ.:     0.0471271 α      in ANC's #1, #5, #4, ...

   *** GEOMETRY OPTIMIZATION CONVERGED AFTER 32 ITERATIONS ***

------------------------------------------------------------------------
 total energy gain   :        -0.0204927 Eh      -12.8594 kcal/mol
 total RMSD          :         0.5833129 a0        0.3087 Å
 total power (kW/mol):        -1.6813622 (step) -186.1556 (real)
------------------------------------------------------------------------

 ANCopt (total)                0 d,  0 h,  0 min,  0.289 sec
 optimizer setup                ...        0 min,  0.000 sec (  0.035%)
 model hessian                  ...        0 min,  0.006 sec (  2.042%)
 ANC generation                 ...        0 min,  0.001 sec (  0.282%)
 coordinate transformation      ...        0 min,  0.000 sec (  0.081%)
 single point calculation       ...        0 min,  0.269 sec ( 93.082%)
 optimization log               ...        0 min,  0.003 sec (  0.950%)
 hessian update                 ...        0 min,  0.005 sec (  1.657%)
 rational function              ...        0 min,  0.004 sec (  1.410%)

================
 final structure:
================
18
 xtb: 6.7.1 (edcfbbe)
C           -2.93022766095966        0.55464712184601       -0.24686790635413
C           -1.65415392881091       -0.21957303378432       -0.15411182528963
C           -1.57955184542854       -1.54731939347369       -0.16673213009958
C           -0.44062438800058        0.61984985076374       -0.03100097149000
O           -0.42916146882655        1.81915530731169        0.06652690115720
O            0.70629790107817       -0.10810730588840       -0.03747693333059
C            1.89673348910188        0.63723823140503        0.08863236005956
C            3.04578219211195       -0.35547533501510        0.20228048317392
F            3.16143141320779       -1.12670374335293       -0.88198218129741
F            4.21418179759248        0.28540047039759        0.35102017144049
F            2.91235449484975       -1.17031554802481        1.25169750474656
H           -3.78563093294915       -0.11278815376513       -0.28654005901682
H           -2.91927858913645        1.18114408925370       -1.13737825700500
H           -3.02376096810348        1.21753494008275        0.61142820167823
H           -2.46574749741549       -2.15383354125287       -0.24990682946003
H           -0.63875967024667       -2.06319193047200       -0.09384441543049
H            1.87219405656461        1.26814654681460        0.98590272824008
H            2.05792260537093        1.27419242715428       -0.79004084172246
 
 Bond Distances (Angstroems)
 ---------------------------
C1-C2=1.4955         C1-H12=1.0857        C1-H13=1.0889        C1-H14=1.0885        C2-C1=1.4955         C2-C3=1.3299         
C2-C4=1.4807         C3-C2=1.3299         C3-H15=1.0771        C3-H16=1.0754        C4-C2=1.4807         C4-O5=1.2033         
C4-O6=1.3585         O5-C4=1.2033         O6-C4=1.3585         O6-C7=1.4102         C7-O6=1.4102         C7-C8=1.5227         
C7-H17=1.0972        C7-H18=1.0972        C8-C7=1.5227         C8-F9=1.3356         C8-F10=1.3409        C8-F11=1.3353        
F9-C8=1.3356         F10-C8=1.3409        F11-C8=1.3353        H12-C1=1.0857        H13-C1=1.0889        H14-C1=1.0885        
H15-C3=1.0771        H16-C3=1.0754        H17-C7=1.0972        H18-C7=1.0972        
 C  H  Rav=1.0871 sigma=0.0080  Rmin=1.0754  Rmax=1.0972     7
 C  C  Rav=1.4572 sigma=0.0750  Rmin=1.3299  Rmax=1.5227     4
 O  C  Rav=1.3240 sigma=0.0879  Rmin=1.2033  Rmax=1.4102     3
 F  C  Rav=1.3373 sigma=0.0026  Rmin=1.3353  Rmax=1.3409     3
 
 selected bond angles (degree)
 --------------------
H12-C1-C2=110.87               H13-C1-C2=109.88               H13-C1-H12=109.37              H14-C1-C2=109.86               
H14-C1-H12=109.60              H14-C1-H13=107.18              C3-C2-C1=124.34                C4-C2-C1=114.27                
C4-C2-C3=121.39                H15-C3-C2=121.12               H16-C3-C2=121.83               H16-C3-H15=117.06              
O5-C4-C2=125.42                O6-C4-C2=112.82                O6-C4-O5=121.76                C7-O6-C4=115.41                
C8-C7-O6=107.40                H17-C7-O6=110.99               H17-C7-C8=109.31               H18-C7-O6=111.05               
H18-C7-C8=109.11               H18-C7-H17=108.93              F9-C8-C7=112.41                F10-C8-C7=110.75               
F10-C8-F9=106.89               F11-C8-C7=112.40               F11-C8-F9=107.12               F11-C8-F10=106.95              
 
 selected dihedral angles (degree)
 ---------------------------------
C3-C2-C1-H12=  2.21           C3-C2-C1-H13=241.18           C3-C2-C1-H14=123.50           C4-C2-C1-H12=182.75           
C4-C2-C1-H13= 61.72           C4-C2-C1-H14=304.04           H15-C3-C2-C1=  0.16           H15-C3-C2-C4=179.59           
H16-C3-C2-C1=180.23           H16-C3-C2-C4=359.66           O5-C4-C2-C1=  4.08            O5-C4-C2-C3=184.60            
O6-C4-C2-C1=184.07            O6-C4-C2-C3=  4.59            C7-O6-C4-C2=180.52            C7-O6-C4-O5=  0.51            
C8-C7-O6-C4=174.36            H17-C7-O6-C4= 54.93           H18-C7-O6-C4=293.59           F9-C8-C7-O6= 61.66            
F9-C8-C7-H17=182.17           F9-C8-C7-H18=301.19           F10-C8-C7-O6=181.15           F10-C8-C7-H17=301.66          
F10-C8-C7-H18= 60.69          F11-C8-C7-O6=300.71           F11-C8-C7-H17= 61.22          F11-C8-C7-H18=180.25          
           -------------------------------------------------
          |                Final Singlepoint                |
           -------------------------------------------------

          ...................................................
          :                      SETUP                      :
          :.................................................:
          :  # basis functions                  51          :
          :  # atomic orbitals                  51          :
          :  # shells                           29          :
          :  # electrons                        64          :
          :  max. iterations                   250          :
          :  Hamiltonian                  GFN2-xTB          :
          :  restarted?                      false          :
          :  GBSA solvation                  false          :
          :  PC potential                    false          :
          :  electronic temp.          300.0000000     K    :
          :  accuracy                    1.0000000          :
          :  -> integral cutoff          0.2500000E+02      :
          :  -> integral neglect         0.1000000E-07      :
          :  -> SCF convergence          0.1000000E-05 Eh   :
          :  -> wf. convergence          0.1000000E-03 e    :
          :  Broyden damping             0.4000000          :
          :  net charge                          0          :
          :  unpaired electrons                  0          :
          ...................................................

 iter      E             dE          RMSdq      gap      omega  full diag
   1    -39.0442868 -0.390443E+02  0.122E-04    3.86       0.0  T
   2    -39.0442868 -0.215650E-10  0.748E-05    3.86     315.0  T
   3    -39.0442868 -0.132161E-11  0.375E-05    3.86     628.9  T

   *** convergence criteria satisfied after 3 iterations ***

         #    Occupation            Energy/Eh            Energy/eV
      -------------------------------------------------------------
         1        2.0000           -0.8970552             -24.4101
       ...           ...                  ...                  ...
        26        2.0000           -0.5024501             -13.6724
        27        2.0000           -0.5019641             -13.6591
        28        2.0000           -0.4846105             -13.1869
        29        2.0000           -0.4812397             -13.0952
        30        2.0000           -0.4700949             -12.7919
        31        2.0000           -0.4360095             -11.8644
        32        2.0000           -0.4335275             -11.7969 (HOMO)
        33                         -0.2917590              -7.9392 (LUMO)
        34                         -0.1817625              -4.9460
        35                         -0.0489011              -1.3307
        36                          0.0157168               0.4277
        37                          0.0317147               0.8630
       ...                                ...                  ...
        51                          0.6815443              18.5458
      -------------------------------------------------------------
                  HL-Gap            0.1417685 Eh            3.8577 eV
             Fermi-level           -0.3626433 Eh           -9.8680 eV

 SCC (total)                   0 d,  0 h,  0 min,  0.005 sec
 SCC setup                      ...        0 min,  0.000 sec (  3.569%)
 Dispersion                     ...        0 min,  0.000 sec (  4.218%)
 classical contributions        ...        0 min,  0.000 sec (  1.248%)
 integral evaluation            ...        0 min,  0.000 sec (  9.086%)
 iterations                     ...        0 min,  0.002 sec ( 44.893%)
 molecular gradient             ...        0 min,  0.002 sec ( 34.697%)
 printout                       ...        0 min,  0.000 sec (  1.878%)

         :::::::::::::::::::::::::::::::::::::::::::::::::::::
         ::                     SUMMARY                     ::
         :::::::::::::::::::::::::::::::::::::::::::::::::::::
         :: total energy             -38.735116368975 Eh    ::
         :: gradient norm              0.000553327129 Eh/a0 ::
         :: HOMO-LUMO gap              3.857717135244 eV    ::
         ::.................................................::
         :: SCC energy               -39.044279852431 Eh    ::
         :: -> isotropic ES            0.084605045607 Eh    ::
         :: -> anisotropic ES          0.002568279258 Eh    ::
         :: -> anisotropic XC         -0.015136777015 Eh    ::
         :: -> dispersion             -0.011897926065 Eh    ::
         :: repulsion energy           0.309163483456 Eh    ::
         :: add. restraining           0.000000000000 Eh    ::
         :: total charge               0.000000000000 e     ::
         :::::::::::::::::::::::::::::::::::::::::::::::::::::

           -------------------------------------------------
          |                Property Printout                |
           -------------------------------------------------

    * Orbital Energies and Occupations

         #    Occupation            Energy/Eh            Energy/eV
      -------------------------------------------------------------
         1        2.0000           -0.8970552             -24.4101
       ...           ...                  ...                  ...
        20        2.0000           -0.5515797             -15.0092
        21        2.0000           -0.5490571             -14.9406
        22        2.0000           -0.5488201             -14.9342
        23        2.0000           -0.5464428             -14.8695
        24        2.0000           -0.5261998             -14.3186
        25        2.0000           -0.5119931             -13.9320
        26        2.0000           -0.5024501             -13.6724
        27        2.0000           -0.5019641             -13.6591
        28        2.0000           -0.4846105             -13.1869
        29        2.0000           -0.4812397             -13.0952
        30        2.0000           -0.4700949             -12.7919
        31        2.0000           -0.4360095             -11.8644
        32        2.0000           -0.4335275             -11.7969 (HOMO)
        33                         -0.2917590              -7.9392 (LUMO)
        34                         -0.1817625              -4.9460
        35                         -0.0489011              -1.3307
        36                          0.0157168               0.4277
        37                          0.0317147               0.8630
        38                          0.0734191               1.9978
        39                          0.0804223               2.1884
        40                          0.0988645               2.6902
        41                          0.1169793               3.1832
        42                          0.1369447               3.7265
        43                          0.1686673               4.5897
       ...                                ...                  ...
        51                          0.6815443              18.5458
      -------------------------------------------------------------
                  HL-Gap            0.1417685 Eh            3.8577 eV
             Fermi-level           -0.3626433 Eh           -9.8680 eV

     #   Z          covCN         q      C6AA      α(0)
     1   6 C        3.759    -0.114    22.737     6.798
     2   6 C        2.938    -0.004    28.112     8.696
     3   6 C        2.845    -0.077    29.910     8.963
     4   6 C        2.734     0.352    21.028     7.508
     5   8 O        0.856    -0.393    21.546     6.223
     6   8 O        1.706    -0.260    18.315     5.778
     7   6 C        3.711     0.068    19.566     6.321
     8   6 C        3.328     0.484    17.413     6.625
     9   9 F        0.791    -0.187    11.102     3.936
    10   9 F        0.791    -0.199    11.225     3.958
    11   9 F        0.791    -0.187    11.099     3.935
    12   1 H        0.925     0.058     2.224     2.332
    13   1 H        0.925     0.068     2.104     2.268
    14   1 H        0.925     0.071     2.073     2.252
    15   1 H        0.926     0.067     2.121     2.277
    16   1 H        0.926     0.072     2.066     2.248
    17   1 H        0.924     0.092     1.862     2.134
    18   1 H        0.924     0.089     1.889     2.149

 Mol. C6AA /au·bohr⁶  :       3286.680057
 Mol. C8AA /au·bohr⁸  :      72526.070440
 Mol. α(0) /au        :         84.401782


Wiberg/Mayer (AO) data.
largest (>0.10) Wiberg bond orders for each atom

 ---------------------------------------------------------------------------
     #   Z sym  total        # sym  WBO       # sym  WBO       # sym  WBO
 ---------------------------------------------------------------------------
     1   6 C    3.992 --     2 C    1.028    12 H    0.984    14 H    0.966
                            13 H    0.965
     2   6 C    3.985 --     3 C    1.864     1 C    1.028     4 C    1.007
     3   6 C    3.985 --     2 C    1.864    15 H    0.973    16 H    0.971
     4   6 C    3.906 --     5 O    1.755     6 O    1.064     2 C    1.007
     5   8 O    2.053 --     4 C    1.755     6 O    0.159
     6   8 O    2.275 --     4 C    1.064     7 C    0.978     5 O    0.159
     7   6 C    3.942 --     6 O    0.978    18 H    0.958    17 H    0.957
                             8 C    0.952
     8   6 C    3.850 --    11 F    0.962     9 F    0.961     7 C    0.952
                            10 F    0.950
     9   9 F    1.089 --     8 C    0.961
    10   9 F    1.074 --     8 C    0.950
    11   9 F    1.089 --     8 C    0.962
    12   1 H    0.996 --     1 C    0.984
    13   1 H    0.995 --     1 C    0.965
    14   1 H    0.995 --     1 C    0.966
    15   1 H    0.995 --     3 C    0.973
    16   1 H    0.995 --     3 C    0.971
    17   1 H    0.992 --     7 C    0.957
    18   1 H    0.992 --     7 C    0.958
 ---------------------------------------------------------------------------

Topologies differ in total number of bonds
Writing topology from bond orders to xtbtopo.mol

molecular dipole:
                 x           y           z       tot (Debye)
 q only:       -1.070      -0.133      -0.141
   full:       -1.020      -0.114      -0.149       2.637
molecular quadrupole (traceless):
                xx          xy          yy          xz          yz          zz
 q only:        0.260       6.838      -1.512       0.020       0.081       1.253
  q+dip:       -1.110       7.501      -1.167      -0.097      -0.094       2.277
   full:       -1.127       7.715      -2.324      -0.176      -0.156       3.451

           -------------------------------------------------
          |                Geometry Summary                 |
           -------------------------------------------------

      molecular mass/u    :      168.1140200
   center of mass at/Å    :        1.0168865      -0.0830190       0.0564658
  moments of inertia/u·Å² :        0.1989361E+03   0.9579129E+03   0.1062543E+04
rotational constants/cm⁻¹ :        0.8473893E-01   0.1759829E-01   0.1586536E-01

 * 15 selected distances

     #   Z          #   Z                                           value/Å
     2   6 C        3   6 C                                       1.3299005
     4   6 C        5   8 O                                       1.2033191
     4   6 C        6   8 O                                       1.3584530
     6   8 O        7   6 C                                       1.4101705
     7   6 C        8   6 C                                       1.5227309 (max)
     8   6 C        9   9 F                                       1.3355875
     8   6 C       10   9 F                                       1.3408964
     8   6 C       11   9 F                                       1.3353067
     1   6 C       12   1 H                                       1.0857065
     1   6 C       13   1 H                                       1.0888651
     1   6 C       14   1 H                                       1.0885041
     3   6 C       15   1 H                                       1.0770889
     3   6 C       16   1 H                                       1.0754196 (min)
     7   6 C       17   1 H                                       1.0971517
     7   6 C       18   1 H                                       1.0971597

 * 4 distinct bonds (by element types)

   Z      Z             #   av. dist./Å        max./Å        min./Å
   1 H    6 C           7     1.0871279     1.0971597     1.0754196
   6 C    6 C           2     1.4263157     1.5227309     1.3299005
   6 C    8 O           3     1.3239809     1.4101705     1.2033191
   6 C    9 F           3     1.3372635     1.3408964     1.3353067


optimized geometry written to: xtbopt.xyz


           -------------------------------------------------
          | TOTAL ENERGY              -38.735116368975 Eh   |
          | GRADIENT NORM               0.000553327129 Eh/α |
          | HOMO-LUMO GAP               3.857717135244 eV   |
           -------------------------------------------------

------------------------------------------------------------------------
 * finished run on 2025/12/01 at 14:18:59.200     
------------------------------------------------------------------------
 total:
 * wall-time:     0 d,  0 h,  0 min,  0.363 sec
 *  cpu-time:     0 d,  0 h,  0 min,  7.519 sec
 * ratio c/w:    20.733 speedup
 SCF:
 * wall-time:     0 d,  0 h,  0 min,  0.027 sec
 *  cpu-time:     0 d,  0 h,  0 min,  0.589 sec
 * ratio c/w:    22.097 speedup
 ANC optimizer:
 * wall-time:     0 d,  0 h,  0 min,  0.295 sec
 *  cpu-time:     0 d,  0 h,  0 min,  6.552 sec
 * ratio c/w:    22.195 speedup

normal termination of xtb
