      -----------------------------------------------------------      
     |                   =====================                   |     
     |                           x T B                           |     
     |                   =====================                   |     
     |                         S. Grimme                         |     
     |          Mulliken Center for Theoretical Chemistry        |     
     |                    University of Bonn                     |     
      -----------------------------------------------------------      

   * xtb version 6.7.1 (edcfbbe) compiled by 'albert@albert-system' on 2024-07-22

   xtb is free software: you can redistribute it and/or modify it under
   the terms of the GNU Lesser General Public License as published by
   the Free Software Foundation, either version 3 of the License, or
   (at your option) any later version.
   
   xtb is distributed in the hope that it will be useful,
   but WITHOUT ANY WARRANTY; without even the implied warranty of
   MERCHANTABILITY or FITNESS FOR A PARTICULAR PURPOSE.  See the
   GNU Lesser General Public License for more details.
   
   Cite this work as:
   * C. Bannwarth, E. Caldeweyher, S. Ehlert, A. Hansen, P. Pracht,
     J. Seibert, S. Spicher, S. Grimme, WIREs Comput. Mol. Sci., 2020, 11,
     e01493. DOI: 10.1002/wcms.1493
   
   for GFN2-xTB:
   * C. Bannwarth, S. Ehlert and S. Grimme., J. Chem. Theory Comput., 2019,
     15, 1652-1671. DOI: 10.1021/acs.jctc.8b01176
   for GFN1-xTB:
   * S. Grimme, C. Bannwarth, P. Shushkov, J. Chem. Theory Comput., 2017,
     13, 1989-2009. DOI: 10.1021/acs.jctc.7b00118
   for GFN0-xTB:
   * P. Pracht, E. Caldeweyher, S. Ehlert, S. Grimme, ChemRxiv, 2019, preprint.
     DOI: 10.26434/chemrxiv.8326202.v1
   for GFN-FF:
   * S. Spicher and S. Grimme, Angew. Chem. Int. Ed., 2020, 59, 15665-15673.
     DOI: 10.1002/anie.202004239
   
   for ALPB and GBSA implicit solvation:
   * S. Ehlert, M. Stahn, S. Spicher, S. Grimme, J. Chem. Theory Comput.,
     2021, 17, 4250-4261. DOI: 10.1021/acs.jctc.1c00471
   
   for ddCOSMO and CPCM-X implicit solvation:
   * M. Stahn, S. Ehlert, S. Grimme, J. Phys. Chem. A,
     2023, XX, XXXX-XXXX. DOI: 10.1021/acs.jpca.3c04382
   
   for DFT-D4:
   * E. Caldeweyher, C. Bannwarth and S. Grimme, J. Chem. Phys., 2017,
     147, 034112. DOI: 10.1063/1.4993215
   * E. Caldeweyher, S. Ehlert, A. Hansen, H. Neugebauer, S. Spicher,
     C. Bannwarth and S. Grimme, J. Chem. Phys., 2019, 150, 154122.
     DOI: 10.1063/1.5090222
   * E. Caldeweyher, J.-M. Mewes, S. Ehlert and S. Grimme, Phys. Chem. Chem. Phys.
     2020, 22, 8499-8512. DOI: 10.1039/D0CP00502A
   
   for sTDA-xTB:
   * S. Grimme and C. Bannwarth, J. Chem. Phys., 2016, 145, 054103.
     DOI: 10.1063/1.4959605
   
   in the mass-spec context:
   * V. Asgeirsson, C. Bauer and S. Grimme, Chem. Sci., 2017, 8, 4879.
     DOI: 10.1039/c7sc00601b
   * J. Koopman and S. Grimme, ACS Omega 2019, 4, 12, 15120-15133.
     DOI: 10.1021/acsomega.9b02011
   
   for metadynamics refer to:
   * S. Grimme, J. Chem. Theory Comput., 2019, 155, 2847-2862
     DOI: 10.1021/acs.jctc.9b00143
   
   for SPH calculations refer to:
   * S. Spicher and S. Grimme, J. Chem. Theory Comput., 2021, 17, 1701-1714
     DOI: 10.1021/acs.jctc.0c01306
   
   for ONIOM refer to:
   * C. Plett, A. Katbashev, S. Ehlert, S. Grimme, M. Bursch,
     Phys. Chem. Chem. Phys., 2023, 25, 17860-17868. DOI: 10.1039/D3CP02178E
   
   for DIPRO refer to:
   * J. Kohn, N. Gildemeister, S. Grimme, D. Fazzi, A. Hansen,
     J. Chem. Phys., 2023, just accepted.
   
   for PTB refer to:
   * S. Grimme, M. Mueller, A. Hansen, J. Chem. Phys., 2023, 158, 124111.
     DOI: 10.1063/5.0137838
   
   with help from (in alphabetical order)
   P. Atkinson, C. Bannwarth, F. Bohle, G. Brandenburg, E. Caldeweyher
   M. Checinski, S. Dohm, S. Ehlert, S. Ehrlich, I. Gerasimov, C. Hölzer
   A. Katbashev, J. Kohn, J. Koopman, C. Lavigne, S. Lehtola, F. März, M. Müller,
   F. Musil, H. Neugebauer, J. Pisarek, C. Plett, P. Pracht, F. Pultar,
   J. Seibert, P. Shushkov, S. Spicher, M. Stahn, M. Steiner, T. Strunk,
   J. Stückrath, T. Rose, and J. Unsleber
   
 * started run on 2025/12/01 at 14:19:14.225     
   ID    Z sym.   atoms
    1    8 O      1, 4, 6, 15
    2    6 C      2, 3, 5, 7-11, 13, 14, 16-25
    3   16 S      12
    4    1 H      26-47

           -------------------------------------------------
          |                Calculation Setup                |
           -------------------------------------------------

          program call               : xtb pipeline_data/3_conformer_xyz/acrylates/rdkit/QXLXSQHHHGJQDK-MDWZMJQESA-N_conf160.xyz --opt --gfn 2-xTB --iterations 250
          coordinate file            : pipeline_data/3_conformer_xyz/acrylates/rdkit/QXLXSQHHHGJQDK-MDWZMJQESA-N_conf160.xyz
          omp threads                :                    24

########################################################################
[WARNING] Please study the warnings concerning your input carefully
-1- readin_getIntValue: could not parse '2-xTB'
########################################################################

           -------------------------------------------------
          |                 G F N 2 - x T B                 |
           -------------------------------------------------

        Reference                      10.1021/acs.jctc.8b01176
      * Hamiltonian:
        H0-scaling (s, p, d)           1.850000    2.230000    2.230000
        zeta-weighting                 0.500000
      * Dispersion:
        s8                             2.700000
        a1                             0.520000
        a2                             5.000000
        s9                             5.000000
      * Repulsion:
        kExp                           1.500000    1.000000
        rExp                           1.000000
      * Coulomb:
        alpha                          2.000000
        third order                    shell-resolved
        anisotropic                    true
        a3                             3.000000
        a5                             4.000000
        cn-shift                       1.200000
        cn-exp                         4.000000
        max-rad                        5.000000

q/qsh data taken from xtbrestart
CAMM data taken from xtbrestart

          ...................................................
          :                      SETUP                      :
          :.................................................:
          :  # basis functions                 128          :
          :  # atomic orbitals                 127          :
          :  # shells                           73          :
          :  # electrons                       132          :
          :  max. iterations                   250          :
          :  Hamiltonian                  GFN2-xTB          :
          :  restarted?                       true          :
          :  GBSA solvation                  false          :
          :  PC potential                    false          :
          :  electronic temp.          300.0000000     K    :
          :  accuracy                    1.0000000          :
          :  -> integral cutoff          0.2500000E+02      :
          :  -> integral neglect         0.1000000E-07      :
          :  -> SCF convergence          0.1000000E-05 Eh   :
          :  -> wf. convergence          0.1000000E-03 e    :
          :  Broyden damping             0.4000000          :
          :  net charge                          0          :
          :  unpaired electrons                  0          :
          ...................................................

 iter      E             dE          RMSdq      gap      omega  full diag
   1    -74.4278071 -0.744278E+02  0.464E+00    1.63       0.0  T
   2    -74.4392684 -0.114613E-01  0.268E+00    1.52       1.0  T
   3    -74.4307210  0.854739E-02  0.603E-01    1.38       1.0  T
   4    -74.4413176 -0.105965E-01  0.279E-01    1.29       1.0  T
   5    -74.4428730 -0.155546E-02  0.102E-01    1.30       1.0  T
   6    -74.4430338 -0.160761E-03  0.449E-02    1.30       1.0  T
   7    -74.4430631 -0.293248E-04  0.217E-02    1.31       1.0  T
   8    -74.4430650 -0.190052E-05  0.836E-03    1.31       1.7  T
   9    -74.4430663 -0.125715E-05  0.281E-03    1.31       5.2  T
  10    -74.4430664 -0.100979E-06  0.134E-03    1.31      10.9  T
  11    -74.4430664 -0.153484E-07  0.565E-04    1.31      25.8  T
  12    -74.4430664 -0.654994E-08  0.226E-04    1.31      64.6  T

   *** convergence criteria satisfied after 12 iterations ***

         #    Occupation            Energy/Eh            Energy/eV
      -------------------------------------------------------------
         1        2.0000           -0.7316944             -19.9104
       ...           ...                  ...                  ...
        60        2.0000           -0.4218504             -11.4791
        61        2.0000           -0.4196779             -11.4200
        62        2.0000           -0.4120579             -11.2127
        63        2.0000           -0.4096028             -11.1459
        64        2.0000           -0.4076804             -11.0935
        65        2.0000           -0.3948803             -10.7452
        66        2.0000           -0.3587908              -9.7632 (HOMO)
        67                         -0.3105815              -8.4514 (LUMO)
        68                         -0.2533035              -6.8927
        69                         -0.2380789              -6.4785
        70                         -0.2373057              -6.4574
        71                         -0.2340147              -6.3679
       ...                                ...                  ...
       127                          0.7053613              19.1939
      -------------------------------------------------------------
                  HL-Gap            0.0482093 Eh            1.3118 eV
             Fermi-level           -0.3346862 Eh           -9.1073 eV

 SCC (total)                   0 d,  0 h,  0 min,  0.059 sec
 SCC setup                      ...        0 min,  0.000 sec (  0.621%)
 Dispersion                     ...        0 min,  0.001 sec (  1.483%)
 classical contributions        ...        0 min,  0.000 sec (  0.558%)
 integral evaluation            ...        0 min,  0.008 sec ( 13.823%)
 iterations                     ...        0 min,  0.044 sec ( 74.033%)
 molecular gradient             ...        0 min,  0.005 sec (  8.909%)
 printout                       ...        0 min,  0.000 sec (  0.517%)

         :::::::::::::::::::::::::::::::::::::::::::::::::::::
         ::                     SUMMARY                     ::
         :::::::::::::::::::::::::::::::::::::::::::::::::::::
         :: total energy             -73.446794062725 Eh    ::
         :: gradient norm              0.164241482017 Eh/a0 ::
         :: HOMO-LUMO gap              1.311841055721 eV    ::
         ::.................................................::
         :: SCC energy               -74.442985507153 Eh    ::
         :: -> isotropic ES            0.093561516641 Eh    ::
         :: -> anisotropic ES          0.000815810273 Eh    ::
         :: -> anisotropic XC          0.026762889144 Eh    ::
         :: -> dispersion             -0.051068286859 Eh    ::
         :: repulsion energy           0.996191444428 Eh    ::
         :: add. restraining           0.000000000000 Eh    ::
         :: total charge              -0.000000000000 e     ::
         :::::::::::::::::::::::::::::::::::::::::::::::::::::

      ----------------------------------------------------------- 
     |                   =====================                   |
     |                        A N C O P T                        |
     |                   =====================                   |
     |               Approximate Normal Coordinate               |
     |                Rational Function Optimizer                |
      ----------------------------------------------------------- 
      ----------------------------------------------------------- 
     |                   =====================                   |
     |                        A N C O P T                        |
     |                   =====================                   |
     |               Approximate Normal Coordinate               |
     |                Rational Function Optimizer                |
      ----------------------------------------------------------- 

          ...................................................
          :                      SETUP                      :
          :.................................................:
          :   optimization level            normal          :
          :   max. optcycles                   200          :
          :   ANC micro-cycles                  20          :
          :   degrees of freedom               135          :
          :.................................................:
          :   RF solver                   davidson          :
          :   write xtbopt.log                true          :
          :   linear?                        false          :
          :   energy convergence         0.5000000E-05 Eh   :
          :   grad. convergence          0.1000000E-02 Eh/α :
          :   maxmium RF displ.          1.0000000          :
          :   Hlow (freq-cutoff)         0.1000000E-01      :
          :   Hmax (freq-cutoff)         5.0000000          :
          :   S6 in model hess.         20.0000000          :
          ...................................................

generating ANC from exact Hessian ...
Using Lindh-Hessian (1995)
 Shifting diagonal of input Hessian by   9.886970002724510E-003
 Lowest  eigenvalues of input Hessian
    0.000000    0.000000    0.000000    0.000000    0.000000    0.000000
    0.010000    0.010099    0.010359    0.010552    0.010810    0.011109
    0.011624    0.012262    0.012411    0.012758    0.013204    0.014668
 Highest eigenvalues
    1.967256    1.983513    2.002922    2.034746    2.062486    2.162754
 

........................................................................
.............................. CYCLE    1 ..............................
........................................................................

 iter      E             dE          RMSdq      gap      omega  full diag
   1    -74.4430664 -0.744431E+02  0.745E-05    1.31       0.0  T
   2    -74.4430664 -0.341061E-10  0.446E-05    1.31     327.2  T
   3    -74.4430664 -0.134577E-10  0.287E-05    1.31     507.6  T
     SCC iter.                  ...        0 min,  0.010 sec
     gradient                   ...        0 min,  0.006 sec
 * total energy  :   -73.4467941 Eh     change       -0.1116959E-08 Eh
   gradient norm :     0.1642424 Eh/α   predicted     0.0000000E+00 (-100.00%)
   displ. norm   :     0.4302531 α      lambda       -0.3560782E-01
   maximum displ.:     0.1372085 α      in ANC's #27, #26, #32, ...

........................................................................
.............................. CYCLE    2 ..............................
........................................................................

 iter      E             dE          RMSdq      gap      omega  full diag
   1    -74.4757653 -0.744758E+02  0.285E-01    1.47       0.0  T
   2    -74.4763214 -0.556132E-03  0.172E-01    1.47       1.0  T
   3    -74.4763216 -0.214929E-06  0.747E-02    1.47       1.0  T
   4    -74.4763552 -0.335344E-04  0.282E-02    1.47       1.0  T
   5    -74.4763792 -0.240366E-04  0.117E-02    1.46       1.2  T
   6    -74.4763823 -0.313890E-05  0.493E-03    1.46       3.0  T
   7    -74.4763827 -0.347352E-06  0.252E-03    1.46       5.8  T
   8    -74.4763828 -0.759644E-07  0.929E-04    1.46      15.7  T
   9    -74.4763828 -0.829425E-08  0.313E-04    1.46      46.6  T
     SCC iter.                  ...        0 min,  0.027 sec
     gradient                   ...        0 min,  0.007 sec
 * total energy  :   -73.4716404 Eh     change       -0.2484637E-01 Eh
   gradient norm :     0.0663083 Eh/α   predicted    -0.2113636E-01 ( -14.93%)
   displ. norm   :     0.4181333 α      lambda       -0.1234912E-01
   maximum displ.:     0.1633046 α      in ANC's #12, #27, #9, ...

........................................................................
.............................. CYCLE    3 ..............................
........................................................................

 iter      E             dE          RMSdq      gap      omega  full diag
   1    -74.4901795 -0.744902E+02  0.195E-01    1.56       0.0  T
   2    -74.4904978 -0.318364E-03  0.117E-01    1.56       1.0  T
   3    -74.4905006 -0.270430E-05  0.554E-02    1.54       1.0  T
   4    -74.4905131 -0.125125E-04  0.216E-02    1.55       1.0  T
   5    -74.4905302 -0.171584E-04  0.771E-03    1.55       1.9  T
   6    -74.4905318 -0.159698E-05  0.291E-03    1.55       5.0  T
   7    -74.4905319 -0.120065E-06  0.163E-03    1.55       9.0  T
   8    -74.4905320 -0.492619E-07  0.607E-04    1.55      24.0  T
   9    -74.4905320 -0.436475E-08  0.226E-04    1.55      64.5  T
     SCC iter.                  ...        0 min,  0.027 sec
     gradient                   ...        0 min,  0.008 sec
 * total energy  :   -73.4795481 Eh     change       -0.7907634E-02 Eh
   gradient norm :     0.0193269 Eh/α   predicted    -0.7254093E-02 (  -8.26%)
   displ. norm   :     0.3976790 α      lambda       -0.3537623E-02
   maximum displ.:     0.2144531 α      in ANC's #12, #9, #20, ...

........................................................................
.............................. CYCLE    4 ..............................
........................................................................

 iter      E             dE          RMSdq      gap      omega  full diag
   1    -74.4872082 -0.744872E+02  0.118E-01    1.56       0.0  T
   2    -74.4872296 -0.213753E-04  0.703E-02    1.57       1.0  T
   3    -74.4872141  0.155130E-04  0.243E-02    1.56       1.0  T
   4    -74.4872341 -0.200518E-04  0.692E-03    1.56       2.1  T
   5    -74.4872354 -0.127493E-05  0.305E-03    1.56       4.8  T
   6    -74.4872356 -0.190525E-06  0.136E-03    1.56      10.7  T
   7    -74.4872356 -0.117692E-07  0.688E-04    1.56      21.2  T
   8    -74.4872356 -0.739348E-08  0.313E-04    1.56      46.6  T
     SCC iter.                  ...        0 min,  0.028 sec
     gradient                   ...        0 min,  0.007 sec
 * total energy  :   -73.4821060 Eh     change       -0.2557886E-02 Eh
   gradient norm :     0.0157580 Eh/α   predicted    -0.2048861E-02 ( -19.90%)
   displ. norm   :     0.4338163 α      lambda       -0.2105503E-02
   maximum displ.:     0.2517666 α      in ANC's #12, #9, #6, ...

........................................................................
.............................. CYCLE    5 ..............................
........................................................................

 iter      E             dE          RMSdq      gap      omega  full diag
   1    -74.4858902 -0.744859E+02  0.108E-01    1.57       0.0  T
   2    -74.4858980 -0.781609E-05  0.636E-02    1.58       1.0  T
   3    -74.4858847  0.133768E-04  0.205E-02    1.57       1.0  T
   4    -74.4859009 -0.162645E-04  0.568E-03    1.57       2.6  T
   5    -74.4859015 -0.521225E-06  0.255E-03    1.57       5.7  T
   6    -74.4859016 -0.139531E-06  0.106E-03    1.57      13.7  T
   7    -74.4859016 -0.219698E-07  0.565E-04    1.57      25.8  T
   8    -74.4859016 -0.570685E-08  0.230E-04    1.57      63.3  T
     SCC iter.                  ...        0 min,  0.032 sec
     gradient                   ...        0 min,  0.007 sec
 * total energy  :   -73.4836469 Eh     change       -0.1540917E-02 Eh
   gradient norm :     0.0152005 Eh/α   predicted    -0.1250879E-02 ( -18.82%)
   displ. norm   :     0.4286544 α      lambda       -0.1400733E-02
   maximum displ.:     0.2458277 α      in ANC's #12, #9, #6, ...

........................................................................
.............................. CYCLE    6 ..............................
........................................................................

 iter      E             dE          RMSdq      gap      omega  full diag
   1    -74.4876935 -0.744877E+02  0.989E-02    1.58       0.0  T
   2    -74.4876979 -0.440907E-05  0.578E-02    1.58       1.0  T
   3    -74.4876889  0.895562E-05  0.167E-02    1.57       1.0  T
   4    -74.4876997 -0.107342E-04  0.526E-03    1.58       2.8  T
   5    -74.4877000 -0.360928E-06  0.247E-03    1.58       5.9  T
   6    -74.4877002 -0.151593E-06  0.872E-04    1.58      16.7  T
   7    -74.4877002 -0.180380E-07  0.453E-04    1.58      32.2  T
     SCC iter.                  ...        0 min,  0.025 sec
     gradient                   ...        0 min,  0.007 sec
 * total energy  :   -73.4846940 Eh     change       -0.1047146E-02 Eh
   gradient norm :     0.0120261 Eh/α   predicted    -0.8290806E-03 ( -20.82%)
   displ. norm   :     0.4250768 α      lambda       -0.1032950E-02
   maximum displ.:     0.2413036 α      in ANC's #9, #12, #6, ...

........................................................................
.............................. CYCLE    7 ..............................
........................................................................

 iter      E             dE          RMSdq      gap      omega  full diag
   1    -74.4904346 -0.744904E+02  0.102E-01    1.58       0.0  T
   2    -74.4904394 -0.472207E-05  0.597E-02    1.58       1.0  T
   3    -74.4904326  0.679146E-05  0.150E-02    1.58       1.0  T
   4    -74.4904409 -0.831360E-05  0.539E-03    1.58       2.7  T
   5    -74.4904413 -0.466823E-06  0.260E-03    1.58       5.6  T
   6    -74.4904415 -0.143702E-06  0.927E-04    1.58      15.7  T
   7    -74.4904415 -0.159949E-07  0.503E-04    1.58      29.0  T
     SCC iter.                  ...        0 min,  0.045 sec
     gradient                   ...        0 min,  0.011 sec
 * total energy  :   -73.4854528 Eh     change       -0.7588217E-03 Eh
   gradient norm :     0.0123228 Eh/α   predicted    -0.6097971E-03 ( -19.64%)
   displ. norm   :     0.4083879 α      lambda       -0.8157546E-03
   maximum displ.:     0.2233029 α      in ANC's #9, #12, #6, ...

........................................................................
.............................. CYCLE    8 ..............................
........................................................................

 iter      E             dE          RMSdq      gap      omega  full diag
   1    -74.4946007 -0.744946E+02  0.106E-01    1.58       0.0  T
   2    -74.4946053 -0.460140E-05  0.614E-02    1.58       1.0  T
   3    -74.4946014  0.390006E-05  0.119E-02    1.58       1.2  T
   4    -74.4946064 -0.507073E-05  0.453E-03    1.58       3.2  T
   5    -74.4946067 -0.279639E-06  0.183E-03    1.58       8.0  T
   6    -74.4946068 -0.733052E-07  0.776E-04    1.58      18.8  T
   7    -74.4946068 -0.925854E-08  0.439E-04    1.58      33.2  T
     SCC iter.                  ...        0 min,  0.023 sec
     gradient                   ...        0 min,  0.005 sec
 * total energy  :   -73.4859329 Eh     change       -0.4800386E-03 Eh
   gradient norm :     0.0113189 Eh/α   predicted    -0.4759059E-03 (  -0.86%)
   displ. norm   :     0.4179376 α      lambda       -0.7009602E-03
   maximum displ.:     0.2442311 α      in ANC's #9, #8, #12, ...

........................................................................
.............................. CYCLE    9 ..............................
........................................................................

 iter      E             dE          RMSdq      gap      omega  full diag
   1    -74.4933128 -0.744933E+02  0.116E-01    1.59       0.0  T
   2    -74.4933191 -0.638727E-05  0.676E-02    1.59       1.0  T
   3    -74.4933152  0.395517E-05  0.129E-02    1.59       1.1  T
   4    -74.4933209 -0.573310E-05  0.496E-03    1.59       2.9  T
   5    -74.4933214 -0.470735E-06  0.210E-03    1.59       7.0  T
   6    -74.4933214 -0.468356E-07  0.899E-04    1.59      16.2  T
   7    -74.4933214 -0.470972E-08  0.512E-04    1.59      28.5  T
     SCC iter.                  ...        0 min,  0.023 sec
     gradient                   ...        0 min,  0.007 sec
 * total energy  :   -73.4862567 Eh     change       -0.3237942E-03 Eh
   gradient norm :     0.0133243 Eh/α   predicted    -0.4117017E-03 (  27.15%)
   displ. norm   :     0.1699946 α      lambda       -0.3413874E-03
   maximum displ.:     0.1073520 α      in ANC's #8, #9, #6, ...

........................................................................
.............................. CYCLE   10 ..............................
........................................................................

 iter      E             dE          RMSdq      gap      omega  full diag
   1    -74.4948551 -0.744949E+02  0.479E-02    1.59       0.0  T
   2    -74.4948560 -0.879253E-06  0.279E-02    1.59       1.0  T
   3    -74.4948552  0.827026E-06  0.500E-03    1.59       2.9  T
   4    -74.4948562 -0.103525E-05  0.209E-03    1.59       7.0  T
   5    -74.4948563 -0.807902E-07  0.903E-04    1.59      16.2  T
   6    -74.4948563 -0.220049E-07  0.404E-04    1.59      36.1  T
     SCC iter.                  ...        0 min,  0.019 sec
     gradient                   ...        0 min,  0.007 sec
 * total energy  :   -73.4865278 Eh     change       -0.2711572E-03 Eh
   gradient norm :     0.0060529 Eh/α   predicted    -0.1756267E-03 ( -35.23%)
   displ. norm   :     0.3769041 α      lambda       -0.4321357E-03
   maximum displ.:     0.2403554 α      in ANC's #8, #9, #6, ...

........................................................................
.............................. CYCLE   11 ..............................
........................................................................

 iter      E             dE          RMSdq      gap      omega  full diag
   1    -74.4943824 -0.744944E+02  0.103E-01    1.58       0.0  T
   2    -74.4943850 -0.261307E-05  0.604E-02    1.59       1.0  T
   3    -74.4943803  0.468552E-05  0.105E-02    1.58       1.4  T
   4    -74.4943858 -0.551011E-05  0.362E-03    1.59       4.0  T
   5    -74.4943860 -0.197738E-06  0.172E-03    1.59       8.5  T
   6    -74.4943861 -0.902635E-07  0.653E-04    1.59      22.3  T
   7    -74.4943861 -0.608367E-08  0.300E-04    1.59      48.7  T
     SCC iter.                  ...        0 min,  0.071 sec
     gradient                   ...        0 min,  0.007 sec
 * total energy  :   -73.4868386 Eh     change       -0.3107833E-03 Eh
   gradient norm :     0.0056988 Eh/α   predicted    -0.2467621E-03 ( -20.60%)
   displ. norm   :     0.3003230 α      lambda       -0.2422982E-03
   maximum displ.:     0.2044382 α      in ANC's #8, #9, #2, ...

........................................................................
.............................. CYCLE   12 ..............................
........................................................................

 iter      E             dE          RMSdq      gap      omega  full diag
   1    -74.4948792 -0.744949E+02  0.843E-02    1.58       0.0  T
   2    -74.4948805 -0.130127E-05  0.493E-02    1.58       1.0  T
   3    -74.4948779  0.261140E-05  0.770E-03    1.58       1.9  T
   4    -74.4948810 -0.306865E-05  0.243E-03    1.58       6.0  T
   5    -74.4948811 -0.803341E-07  0.124E-03    1.58      11.8  T
   6    -74.4948811 -0.441740E-07  0.469E-04    1.58      31.1  T
   7    -74.4948811 -0.359088E-08  0.214E-04    1.58      68.2  T
     SCC iter.                  ...        0 min,  0.073 sec
     gradient                   ...        0 min,  0.007 sec
 * total energy  :   -73.4870300 Eh     change       -0.1913938E-03 Eh
   gradient norm :     0.0060109 Eh/α   predicted    -0.1320780E-03 ( -30.99%)
   displ. norm   :     0.3483681 α      lambda       -0.2519629E-03
   maximum displ.:     0.2300640 α      in ANC's #8, #9, #13, ...

........................................................................
.............................. CYCLE   13 ..............................
........................................................................

 iter      E             dE          RMSdq      gap      omega  full diag
   1    -74.4936861 -0.744937E+02  0.998E-02    1.58       0.0  T
   2    -74.4936876 -0.143064E-05  0.585E-02    1.58       1.0  T
   3    -74.4936848  0.278199E-05  0.803E-03    1.58       1.8  T
   4    -74.4936882 -0.339197E-05  0.244E-03    1.58       6.0  T
   5    -74.4936882 -0.578405E-07  0.116E-03    1.58      12.6  T
   6    -74.4936883 -0.308863E-07  0.535E-04    1.58      27.3  T
   7    -74.4936883 -0.656395E-08  0.243E-04    1.58      60.1  T
     SCC iter.                  ...        0 min,  0.064 sec
     gradient                   ...        0 min,  0.010 sec
 * total energy  :   -73.4872244 Eh     change       -0.1943782E-03 Eh
   gradient norm :     0.0052841 Eh/α   predicted    -0.1412754E-03 ( -27.32%)
   displ. norm   :     0.3680314 α      lambda       -0.2881338E-03
   maximum displ.:     0.2615268 α      in ANC's #8, #9, #1, ...

........................................................................
.............................. CYCLE   14 ..............................
........................................................................

 iter      E             dE          RMSdq      gap      omega  full diag
   1    -74.4959952 -0.744960E+02  0.112E-01    1.58       0.0  T
   2    -74.4959969 -0.170623E-05  0.661E-02    1.58       1.0  T
   3    -74.4959942  0.272730E-05  0.803E-03    1.58       1.8  T
   4    -74.4959975 -0.335854E-05  0.236E-03    1.58       6.2  T
   5    -74.4959976 -0.749061E-07  0.134E-03    1.58      10.9  T
   6    -74.4959976 -0.296884E-07  0.618E-04    1.58      23.6  T
   7    -74.4959976 -0.936011E-08  0.258E-04    1.58      56.5  T
     SCC iter.                  ...        0 min,  0.039 sec
     gradient                   ...        0 min,  0.006 sec
 * total energy  :   -73.4874207 Eh     change       -0.1962836E-03 Eh
   gradient norm :     0.0051861 Eh/α   predicted    -0.1635823E-03 ( -16.66%)
   displ. norm   :     0.3890703 α      lambda       -0.2281185E-03
   maximum displ.:     0.2610885 α      in ANC's #8, #9, #13, ...

........................................................................
.............................. CYCLE   15 ..............................
........................................................................

 iter      E             dE          RMSdq      gap      omega  full diag
   1    -74.4942977 -0.744943E+02  0.122E-01    1.58       0.0  T
   2    -74.4942999 -0.217961E-05  0.715E-02    1.58       1.0  T
   3    -74.4942968  0.301419E-05  0.876E-03    1.58       1.7  T
   4    -74.4943007 -0.384372E-05  0.264E-03    1.58       5.5  T
   5    -74.4943008 -0.901441E-07  0.102E-03    1.58      14.3  T
   6    -74.4943008 -0.828004E-08  0.508E-04    1.58      28.7  T
   7    -74.4943008 -0.461732E-08  0.285E-04    1.58      51.2  T
     SCC iter.                  ...        0 min,  0.025 sec
     gradient                   ...        0 min,  0.007 sec
 * total energy  :   -73.4875621 Eh     change       -0.1413972E-03 Eh
   gradient norm :     0.0068569 Eh/α   predicted    -0.1313303E-03 (  -7.12%)
   displ. norm   :     0.2729284 α      lambda       -0.2144846E-03
   maximum displ.:     0.1804053 α      in ANC's #8, #1, #9, ...

........................................................................
.............................. CYCLE   16 ..............................
........................................................................

 iter      E             dE          RMSdq      gap      omega  full diag
   1    -74.4962206 -0.744962E+02  0.899E-02    1.58       0.0  T
   2    -74.4962219 -0.129147E-05  0.528E-02    1.58       1.0  T
   3    -74.4962206  0.124831E-05  0.585E-03    1.58       2.5  T
   4    -74.4962222 -0.160117E-05  0.206E-03    1.58       7.1  T
   5    -74.4962223 -0.756096E-07  0.995E-04    1.58      14.7  T
   6    -74.4962223 -0.150529E-07  0.490E-04    1.58      29.8  T
     SCC iter.                  ...        0 min,  0.025 sec
     gradient                   ...        0 min,  0.008 sec
 * total energy  :   -73.4877099 Eh     change       -0.1477992E-03 Eh
   gradient norm :     0.0059423 Eh/α   predicted    -0.1152319E-03 ( -22.03%)
   displ. norm   :     0.2903198 α      lambda       -0.1963603E-03
   maximum displ.:     0.1674627 α      in ANC's #8, #1, #9, ...

........................................................................
.............................. CYCLE   17 ..............................
........................................................................

 iter      E             dE          RMSdq      gap      omega  full diag
   1    -74.4979995 -0.744980E+02  0.974E-02    1.58       0.0  T
   2    -74.4980007 -0.112940E-05  0.571E-02    1.59       1.0  T
   3    -74.4979999  0.763144E-06  0.550E-03    1.59       2.7  T
   4    -74.4980010 -0.110814E-05  0.226E-03    1.59       6.5  T
   5    -74.4980011 -0.760638E-07  0.832E-04    1.59      17.5  T
   6    -74.4980011 -0.749783E-08  0.482E-04    1.59      30.2  T
     SCC iter.                  ...        0 min,  0.063 sec
     gradient                   ...        0 min,  0.008 sec
 * total energy  :   -73.4878555 Eh     change       -0.1456602E-03 Eh
   gradient norm :     0.0045355 Eh/α   predicted    -0.1064584E-03 ( -26.91%)
   displ. norm   :     0.3881122 α      lambda       -0.2042837E-03
   maximum displ.:     0.2146557 α      in ANC's #8, #1, #9, ...

........................................................................
.............................. CYCLE   18 ..............................
........................................................................

 iter      E             dE          RMSdq      gap      omega  full diag
   1    -74.4960720 -0.744961E+02  0.134E-01    1.59       0.0  T
   2    -74.4960742 -0.223277E-05  0.786E-02    1.59       1.0  T
   3    -74.4960722  0.201823E-05  0.875E-03    1.59       1.7  T
   4    -74.4960749 -0.268478E-05  0.345E-03    1.59       4.2  T
   5    -74.4960750 -0.155756E-06  0.120E-03    1.59      12.1  T
   6    -74.4960750 -0.254849E-07  0.592E-04    1.59      24.6  T
   7    -74.4960750 -0.712267E-08  0.303E-04    1.59      48.1  T
     SCC iter.                  ...        0 min,  0.073 sec
     gradient                   ...        0 min,  0.008 sec
 * total energy  :   -73.4880008 Eh     change       -0.1453093E-03 Eh
   gradient norm :     0.0055682 Eh/α   predicted    -0.1175321E-03 ( -19.12%)
   displ. norm   :     0.2959414 α      lambda       -0.2079944E-03
   maximum displ.:     0.1303066 α      in ANC's #6, #1, #5, ...

........................................................................
.............................. CYCLE   19 ..............................
........................................................................

 iter      E             dE          RMSdq      gap      omega  full diag
   1    -74.4999008 -0.744999E+02  0.930E-02    1.59       0.0  T
   2    -74.4999021 -0.132598E-05  0.541E-02    1.59       1.0  T
   3    -74.4999011  0.103291E-05  0.720E-03    1.59       2.0  T
   4    -74.4999025 -0.141001E-05  0.335E-03    1.60       4.4  T
   5    -74.4999027 -0.166235E-06  0.867E-04    1.59      16.8  T
   6    -74.4999027 -0.140345E-07  0.454E-04    1.59      32.1  T
     SCC iter.                  ...        0 min,  0.026 sec
     gradient                   ...        0 min,  0.006 sec
 * total energy  :   -73.4880994 Eh     change       -0.9855069E-04 Eh
   gradient norm :     0.0069447 Eh/α   predicted    -0.1131087E-03 (  14.77%)
   displ. norm   :     0.4144143 α      lambda       -0.1767123E-03
   maximum displ.:     0.2359672 α      in ANC's #8, #9, #1, ...

........................................................................
.............................. CYCLE   20 ..............................
........................................................................

 iter      E             dE          RMSdq      gap      omega  full diag
   1    -74.4941799 -0.744942E+02  0.150E-01    1.59       0.0  T
   2    -74.4941843 -0.435895E-05  0.874E-02    1.59       1.0  T
   3    -74.4941795  0.476388E-05  0.129E-02    1.59       1.1  T
   4    -74.4941854 -0.592966E-05  0.467E-03    1.59       3.1  T
   5    -74.4941856 -0.181759E-06  0.193E-03    1.59       7.5  T
   6    -74.4941857 -0.127184E-06  0.801E-04    1.59      18.2  T
   7    -74.4941857 -0.169609E-07  0.359E-04    1.59      40.6  T
     SCC iter.                  ...        0 min,  0.023 sec
     gradient                   ...        0 min,  0.006 sec
 * total energy  :   -73.4881806 Eh     change       -0.8122642E-04 Eh
   gradient norm :     0.0065707 Eh/α   predicted    -0.1035460E-03 (  27.48%)
   displ. norm   :     0.0824279 α      lambda       -0.1282540E-03
   maximum displ.:     0.0428236 α      in ANC's #15, #10, #8, ...
 * RMSD in coord.:     0.7420295 α      energy gain  -0.4138655E-01 Eh

generating ANC from exact Hessian ...
Using Lindh-Hessian (1995)
 Shifting diagonal of input Hessian by   9.905092188419978E-003
 Lowest  eigenvalues of input Hessian
    0.000000    0.000000    0.000000    0.000000    0.000000    0.000000
    0.010000    0.010136    0.010277    0.010523    0.010790    0.011137
    0.011537    0.011917    0.012263    0.012585    0.012663    0.014305
 Highest eigenvalues
    1.936900    1.979514    2.010457    2.016447    2.081709    2.185518
 

........................................................................
.............................. CYCLE   21 ..............................
........................................................................

 iter      E             dE          RMSdq      gap      omega  full diag
   1    -74.4965907 -0.744966E+02  0.253E-02    1.59       0.0  T
   2    -74.4965911 -0.450662E-06  0.140E-02    1.59       1.0  T
   3    -74.4965909  0.264623E-06  0.387E-03    1.59       3.8  T
   4    -74.4965913 -0.377514E-06  0.181E-03    1.59       8.0  T
   5    -74.4965913 -0.383043E-07  0.794E-04    1.59      18.4  T
   6    -74.4965913 -0.143191E-07  0.288E-04    1.59      50.7  T
     SCC iter.                  ...        0 min,  0.028 sec
     gradient                   ...        0 min,  0.008 sec
 * total energy  :   -73.4882701 Eh     change       -0.8950606E-04 Eh
   gradient norm :     0.0042810 Eh/α   predicted     0.0000000E+00 (-100.00%)
   displ. norm   :     0.0501343 α      lambda       -0.7068459E-04
   maximum displ.:     0.0255454 α      in ANC's #5, #15, #7, ...

........................................................................
.............................. CYCLE   22 ..............................
........................................................................

 iter      E             dE          RMSdq      gap      omega  full diag
   1    -74.4980809 -0.744981E+02  0.174E-02    1.59       0.0  T
   2    -74.4980810 -0.162939E-06  0.997E-03    1.59       1.5  T
   3    -74.4980809  0.168301E-06  0.268E-03    1.59       5.4  T
   4    -74.4980811 -0.226396E-06  0.882E-04    1.59      16.5  T
   5    -74.4980811 -0.634884E-09  0.458E-04    1.59      31.9  T
     SCC iter.                  ...        0 min,  0.029 sec
     gradient                   ...        0 min,  0.006 sec
 * total energy  :   -73.4883253 Eh     change       -0.5520167E-04 Eh
   gradient norm :     0.0018499 Eh/α   predicted    -0.3560204E-04 ( -35.51%)
   displ. norm   :     0.1787865 α      lambda       -0.8426829E-04
   maximum displ.:     0.0982372 α      in ANC's #5, #15, #7, ...

........................................................................
.............................. CYCLE   23 ..............................
........................................................................

 iter      E             dE          RMSdq      gap      omega  full diag
   1    -74.4998151 -0.744998E+02  0.562E-02    1.59       0.0  T
   2    -74.4998163 -0.123925E-05  0.321E-02    1.60       1.0  T
   3    -74.4998152  0.107304E-05  0.704E-03    1.60       2.1  T
   4    -74.4998166 -0.141305E-05  0.285E-03    1.60       5.1  T
   5    -74.4998167 -0.717248E-07  0.112E-03    1.60      13.0  T
   6    -74.4998167 -0.339757E-07  0.496E-04    1.60      29.4  T
   7    -74.4998167 -0.568353E-08  0.246E-04    1.60      59.2  T
     SCC iter.                  ...        0 min,  0.040 sec
     gradient                   ...        0 min,  0.010 sec
 * total energy  :   -73.4883919 Eh     change       -0.6661609E-04 Eh
   gradient norm :     0.0034497 Eh/α   predicted    -0.4273327E-04 ( -35.85%)
   displ. norm   :     0.0716391 α      lambda       -0.3555132E-04
   maximum displ.:     0.0401985 α      in ANC's #5, #7, #8, ...

........................................................................
.............................. CYCLE   24 ..............................
........................................................................

 iter      E             dE          RMSdq      gap      omega  full diag
   1    -74.4993782 -0.744994E+02  0.226E-02    1.60       0.0  T
   2    -74.4993783 -0.118394E-06  0.132E-02    1.60       1.1  T
   3    -74.4993782  0.140527E-06  0.223E-03    1.60       6.6  T
   4    -74.4993783 -0.179517E-06  0.820E-04    1.60      17.8  T
   5    -74.4993783 -0.619288E-08  0.287E-04    1.60      50.9  T
     SCC iter.                  ...        0 min,  0.018 sec
     gradient                   ...        0 min,  0.005 sec
 * total energy  :   -73.4884249 Eh     change       -0.3297625E-04 Eh
   gradient norm :     0.0027672 Eh/α   predicted    -0.1786743E-04 ( -45.82%)
   displ. norm   :     0.3004822 α      lambda       -0.1382420E-03
   maximum displ.:     0.1562363 α      in ANC's #5, #7, #8, ...

........................................................................
.............................. CYCLE   25 ..............................
........................................................................

 iter      E             dE          RMSdq      gap      omega  full diag
   1    -74.4971547 -0.744972E+02  0.958E-02    1.60       0.0  T
   2    -74.4971566 -0.187316E-05  0.562E-02    1.60       1.0  T
   3    -74.4971544  0.221431E-05  0.854E-03    1.60       1.7  T
   4    -74.4971572 -0.283534E-05  0.282E-03    1.60       5.2  T
   5    -74.4971573 -0.721427E-07  0.112E-03    1.60      13.0  T
   6    -74.4971573 -0.215373E-07  0.537E-04    1.60      27.2  T
   7    -74.4971573 -0.587895E-08  0.273E-04    1.60      53.5  T
     SCC iter.                  ...        0 min,  0.023 sec
     gradient                   ...        0 min,  0.005 sec
 * total energy  :   -73.4885271 Eh     change       -0.1021536E-03 Eh
   gradient norm :     0.0024737 Eh/α   predicted    -0.7538682E-04 ( -26.20%)
   displ. norm   :     0.2990833 α      lambda       -0.8453352E-04
   maximum displ.:     0.1529147 α      in ANC's #5, #8, #7, ...

........................................................................
.............................. CYCLE   26 ..............................
........................................................................

 iter      E             dE          RMSdq      gap      omega  full diag
   1    -74.4953295 -0.744953E+02  0.939E-02    1.60       0.0  T
   2    -74.4953310 -0.156526E-05  0.552E-02    1.61       1.0  T
   3    -74.4953291  0.197865E-05  0.791E-03    1.61       1.8  T
   4    -74.4953316 -0.252631E-05  0.245E-03    1.61       5.9  T
   5    -74.4953316 -0.559107E-07  0.103E-03    1.61      14.1  T
   6    -74.4953317 -0.143109E-07  0.507E-04    1.61      28.8  T
   7    -74.4953317 -0.561451E-08  0.253E-04    1.61      57.6  T
     SCC iter.                  ...        0 min,  0.030 sec
     gradient                   ...        0 min,  0.007 sec
 * total energy  :   -73.4885877 Eh     change       -0.6067741E-04 Eh
   gradient norm :     0.0044712 Eh/α   predicted    -0.4604988E-04 ( -24.11%)
   displ. norm   :     0.2630411 α      lambda       -0.7677610E-04
   maximum displ.:     0.1317137 α      in ANC's #5, #8, #1, ...

........................................................................
.............................. CYCLE   27 ..............................
........................................................................

 iter      E             dE          RMSdq      gap      omega  full diag
   1    -74.4951050 -0.744951E+02  0.804E-02    1.61       0.0  T
   2    -74.4951060 -0.979430E-06  0.473E-02    1.61       1.0  T
   3    -74.4951048  0.114502E-05  0.597E-03    1.61       2.4  T
   4    -74.4951063 -0.147944E-05  0.176E-03    1.61       8.3  T
   5    -74.4951064 -0.369354E-07  0.758E-04    1.61      19.2  T
   6    -74.4951064 -0.452043E-08  0.382E-04    1.61      38.2  T
     SCC iter.                  ...        0 min,  0.069 sec
     gradient                   ...        0 min,  0.007 sec
 * total energy  :   -73.4886510 Eh     change       -0.6329012E-04 Eh
   gradient norm :     0.0046720 Eh/α   predicted    -0.4104429E-04 ( -35.15%)
   displ. norm   :     0.3423086 α      lambda       -0.1325466E-03
   maximum displ.:     0.1645069 α      in ANC's #5, #1, #8, ...

........................................................................
.............................. CYCLE   28 ..............................
........................................................................

 iter      E             dE          RMSdq      gap      omega  full diag
   1    -74.4967544 -0.744968E+02  0.101E-01    1.61       0.0  T
   2    -74.4967558 -0.139428E-05  0.592E-02    1.62       1.0  T
   3    -74.4967545  0.126137E-05  0.644E-03    1.62       2.3  T
   4    -74.4967562 -0.169379E-05  0.201E-03    1.62       7.3  T
   5    -74.4967563 -0.655925E-07  0.897E-04    1.62      16.3  T
   6    -74.4967563 -0.432128E-08  0.504E-04    1.62      28.9  T
     SCC iter.                  ...        0 min,  0.063 sec
     gradient                   ...        0 min,  0.006 sec
 * total energy  :   -73.4887522 Eh     change       -0.1011319E-03 Eh
   gradient norm :     0.0030497 Eh/α   predicted    -0.7403949E-04 ( -26.79%)
   displ. norm   :     0.3793788 α      lambda       -0.9832058E-04
   maximum displ.:     0.1810295 α      in ANC's #5, #1, #8, ...

........................................................................
.............................. CYCLE   29 ..............................
........................................................................

 iter      E             dE          RMSdq      gap      omega  full diag
   1    -74.4968393 -0.744968E+02  0.111E-01    1.62       0.0  T
   2    -74.4968410 -0.175541E-05  0.651E-02    1.63       1.0  T
   3    -74.4968393  0.172700E-05  0.745E-03    1.63       2.0  T
   4    -74.4968416 -0.229829E-05  0.227E-03    1.63       6.4  T
   5    -74.4968417 -0.813038E-07  0.106E-03    1.63      13.8  T
   6    -74.4968417 -0.598571E-08  0.607E-04    1.63      24.0  T
   7    -74.4968417 -0.950575E-08  0.248E-04    1.63      58.8  T
     SCC iter.                  ...        0 min,  0.023 sec
     gradient                   ...        0 min,  0.005 sec
 * total energy  :   -73.4888268 Eh     change       -0.7467988E-04 Eh
   gradient norm :     0.0022408 Eh/α   predicted    -0.5623605E-04 ( -24.70%)
   displ. norm   :     0.3086441 α      lambda       -0.7901885E-04
   maximum displ.:     0.1629953 α      in ANC's #1, #8, #5, ...

........................................................................
.............................. CYCLE   30 ..............................
........................................................................

 iter      E             dE          RMSdq      gap      omega  full diag
   1    -74.4991320 -0.744991E+02  0.879E-02    1.63       0.0  T
   2    -74.4991330 -0.996435E-06  0.515E-02    1.63       1.0  T
   3    -74.4991319  0.116795E-05  0.603E-03    1.64       2.4  T
   4    -74.4991334 -0.152639E-05  0.165E-03    1.64       8.8  T
   5    -74.4991334 -0.391204E-07  0.687E-04    1.64      21.2  T
   6    -74.4991334 -0.102948E-08  0.404E-04    1.64      36.1  T
     SCC iter.                  ...        0 min,  0.018 sec
     gradient                   ...        0 min,  0.005 sec
 * total energy  :   -73.4888855 Eh     change       -0.5867946E-04 Eh
   gradient norm :     0.0017017 Eh/α   predicted    -0.4327434E-04 ( -26.25%)
   displ. norm   :     0.6516441 α      lambda       -0.7339621E-04
   maximum displ.:     0.3268611 α      in ANC's #1, #8, #5, ...

........................................................................
.............................. CYCLE   31 ..............................
........................................................................

 iter      E             dE          RMSdq      gap      omega  full diag
   1    -74.4947969 -0.744948E+02  0.193E-01    1.63       0.0  T
   2    -74.4948028 -0.590210E-05  0.113E-01    1.64       1.0  T
   3    -74.4947944  0.833843E-05  0.153E-02    1.65       1.0  T
   4    -74.4948048 -0.103557E-04  0.388E-03    1.65       3.8  T
   5    -74.4948050 -0.247202E-06  0.186E-03    1.65       7.8  T
   6    -74.4948051 -0.269136E-07  0.103E-03    1.65      14.1  T
   7    -74.4948051 -0.262477E-07  0.422E-04    1.65      34.6  T
   8    -74.4948051 -0.230341E-08  0.190E-04    1.65      76.8  T
     SCC iter.                  ...        0 min,  0.023 sec
     gradient                   ...        0 min,  0.006 sec
 * total energy  :   -73.4889372 Eh     change       -0.5163196E-04 Eh
   gradient norm :     0.0050325 Eh/α   predicted    -0.4362769E-04 ( -15.50%)
   displ. norm   :     0.1487337 α      lambda       -0.9215299E-04
   maximum displ.:     0.0918303 α      in ANC's #1, #8, #6, ...

........................................................................
.............................. CYCLE   32 ..............................
........................................................................

 iter      E             dE          RMSdq      gap      omega  full diag
   1    -74.4987361 -0.744987E+02  0.352E-02    1.65       0.0  T
   2    -74.4987364 -0.306610E-06  0.205E-02    1.65       1.0  T
   3    -74.4987360  0.355486E-06  0.368E-03    1.65       4.0  T
   4    -74.4987364 -0.445848E-06  0.930E-04    1.65      15.7  T
   5    -74.4987365 -0.396867E-08  0.429E-04    1.65      34.0  T
     SCC iter.                  ...        0 min,  0.014 sec
     gradient                   ...        0 min,  0.006 sec
 * total energy  :   -73.4890043 Eh     change       -0.6718776E-04 Eh
   gradient norm :     0.0028130 Eh/α   predicted    -0.4709893E-04 ( -29.90%)
   displ. norm   :     0.2645985 α      lambda       -0.7010428E-04
   maximum displ.:     0.1593771 α      in ANC's #1, #8, #5, ...

........................................................................
.............................. CYCLE   33 ..............................
........................................................................

 iter      E             dE          RMSdq      gap      omega  full diag
   1    -74.5006556 -0.745007E+02  0.672E-02    1.65       0.0  T
   2    -74.5006563 -0.678468E-06  0.392E-02    1.65       1.0  T
   3    -74.5006553  0.106521E-05  0.571E-03    1.65       2.6  T
   4    -74.5006566 -0.129068E-05  0.144E-03    1.65      10.2  T
   5    -74.5006566 -0.326329E-07  0.614E-04    1.65      23.7  T
   6    -74.5006566 -0.596935E-08  0.326E-04    1.65      44.8  T
     SCC iter.                  ...        0 min,  0.017 sec
     gradient                   ...        0 min,  0.006 sec
 * total energy  :   -73.4890601 Eh     change       -0.5576805E-04 Eh
   gradient norm :     0.0025227 Eh/α   predicted    -0.3750672E-04 ( -32.75%)
   displ. norm   :     0.3509546 α      lambda       -0.6840655E-04
   maximum displ.:     0.2081470 α      in ANC's #1, #8, #5, ...

........................................................................
.............................. CYCLE   34 ..............................
........................................................................

 iter      E             dE          RMSdq      gap      omega  full diag
   1    -74.5004961 -0.745005E+02  0.920E-02    1.64       0.0  T
   2    -74.5004976 -0.149338E-05  0.539E-02    1.65       1.0  T
   3    -74.5004954  0.218786E-05  0.789E-03    1.65       1.8  T
   4    -74.5004980 -0.260115E-05  0.208E-03    1.65       7.0  T
   5    -74.5004981 -0.965227E-07  0.945E-04    1.65      15.4  T
   6    -74.5004981 -0.142731E-07  0.472E-04    1.65      30.9  T
     SCC iter.                  ...        0 min,  0.020 sec
     gradient                   ...        0 min,  0.005 sec
 * total energy  :   -73.4891175 Eh     change       -0.5740239E-04 Eh
   gradient norm :     0.0021429 Eh/α   predicted    -0.3841737E-04 ( -33.07%)
   displ. norm   :     0.3597600 α      lambda       -0.6199512E-04
   maximum displ.:     0.2199179 α      in ANC's #1, #8, #5, ...

........................................................................
.............................. CYCLE   35 ..............................
........................................................................

 iter      E             dE          RMSdq      gap      omega  full diag
   1    -74.4995025 -0.744995E+02  0.918E-02    1.65       0.0  T
   2    -74.4995041 -0.155607E-05  0.537E-02    1.65       1.0  T
   3    -74.4995019  0.220228E-05  0.798E-03    1.65       1.8  T
   4    -74.4995045 -0.261333E-05  0.224E-03    1.65       6.5  T
   5    -74.4995046 -0.113798E-06  0.103E-03    1.65      14.2  T
   6    -74.4995046 -0.180798E-07  0.496E-04    1.65      29.4  T
   7    -74.4995046 -0.600004E-08  0.205E-04    1.65      71.1  T
     SCC iter.                  ...        0 min,  0.020 sec
     gradient                   ...        0 min,  0.005 sec
 * total energy  :   -73.4891664 Eh     change       -0.4887120E-04 Eh
   gradient norm :     0.0017190 Eh/α   predicted    -0.3501009E-04 ( -28.36%)
   displ. norm   :     0.3975627 α      lambda       -0.4398567E-04
   maximum displ.:     0.2568534 α      in ANC's #1, #8, #6, ...

........................................................................
.............................. CYCLE   36 ..............................
........................................................................

 iter      E             dE          RMSdq      gap      omega  full diag
   1    -74.4991899 -0.744992E+02  0.944E-02    1.64       0.0  T
   2    -74.4991918 -0.188335E-05  0.552E-02    1.65       1.0  T
   3    -74.4991893  0.251869E-05  0.856E-03    1.65       1.7  T
   4    -74.4991923 -0.295361E-05  0.260E-03    1.65       5.6  T
   5    -74.4991924 -0.152927E-06  0.112E-03    1.65      13.0  T
   6    -74.4991924 -0.207591E-07  0.553E-04    1.65      26.4  T
   7    -74.4991924 -0.820734E-08  0.218E-04    1.65      66.9  T
     SCC iter.                  ...        0 min,  0.019 sec
     gradient                   ...        0 min,  0.006 sec
 * total energy  :   -73.4892127 Eh     change       -0.4634918E-04 Eh
   gradient norm :     0.0023694 Eh/α   predicted    -0.2353794E-04 ( -49.22%)
   displ. norm   :     0.1558593 α      lambda       -0.3135249E-04
   maximum displ.:     0.1042397 α      in ANC's #1, #4, #6, ...

........................................................................
.............................. CYCLE   37 ..............................
........................................................................

 iter      E             dE          RMSdq      gap      omega  full diag
   1    -74.4994360 -0.744994E+02  0.350E-02    1.65       0.0  T
   2    -74.4994362 -0.209215E-06  0.204E-02    1.65       1.0  T
   3    -74.4994359  0.316974E-06  0.318E-03    1.65       4.6  T
   4    -74.4994363 -0.390809E-06  0.109E-03    1.65      13.4  T
   5    -74.4994363 -0.171966E-07  0.387E-04    1.65      37.7  T
   6    -74.4994363 -0.302590E-08  0.202E-04    1.65      72.4  T
     SCC iter.                  ...        0 min,  0.016 sec
     gradient                   ...        0 min,  0.006 sec
 * total energy  :   -73.4892388 Eh     change       -0.2601888E-04 Eh
   gradient norm :     0.0020937 Eh/α   predicted    -0.1606031E-04 ( -38.27%)
   displ. norm   :     0.2019005 α      lambda       -0.5070845E-04
   maximum displ.:     0.1353704 α      in ANC's #1, #4, #9, ...

........................................................................
.............................. CYCLE   38 ..............................
........................................................................

 iter      E             dE          RMSdq      gap      omega  full diag
   1    -74.5002639 -0.745003E+02  0.428E-02    1.65       0.0  T
   2    -74.5002644 -0.534790E-06  0.248E-02    1.65       1.0  T
   3    -74.5002639  0.494011E-06  0.432E-03    1.65       3.4  T
   4    -74.5002645 -0.600344E-06  0.185E-03    1.65       7.9  T
   5    -74.5002646 -0.661125E-07  0.516E-04    1.65      28.3  T
   6    -74.5002646 -0.326577E-08  0.310E-04    1.65      47.1  T
     SCC iter.                  ...        0 min,  0.022 sec
     gradient                   ...        0 min,  0.008 sec
 * total energy  :   -73.4892770 Eh     change       -0.3828842E-04 Eh
   gradient norm :     0.0015835 Eh/α   predicted    -0.2639046E-04 ( -31.07%)
   displ. norm   :     0.3129317 α      lambda       -0.3724008E-04
   maximum displ.:     0.2127036 α      in ANC's #1, #4, #9, ...

........................................................................
.............................. CYCLE   39 ..............................
........................................................................

 iter      E             dE          RMSdq      gap      omega  full diag
   1    -74.4989225 -0.744989E+02  0.711E-02    1.65       0.0  T
   2    -74.4989238 -0.137170E-05  0.410E-02    1.66       1.0  T
   3    -74.4989225  0.131301E-05  0.713E-03    1.66       2.0  T
   4    -74.4989241 -0.160632E-05  0.304E-03    1.66       4.8  T
   5    -74.4989243 -0.175381E-06  0.705E-04    1.66      20.7  T
   6    -74.4989243 -0.684436E-08  0.397E-04    1.66      36.7  T
     SCC iter.                  ...        0 min,  0.021 sec
     gradient                   ...        0 min,  0.010 sec
 * total energy  :   -73.4893085 Eh     change       -0.3149214E-04 Eh
   gradient norm :     0.0025268 Eh/α   predicted    -0.1943526E-04 ( -38.29%)
   displ. norm   :     0.0798616 α      lambda       -0.2194532E-04
   maximum displ.:     0.0556493 α      in ANC's #1, #4, #10, ...

........................................................................
.............................. CYCLE   40 ..............................
........................................................................

 iter      E             dE          RMSdq      gap      omega  full diag
   1    -74.4997281 -0.744997E+02  0.176E-02    1.66       0.0  T
   2    -74.4997282 -0.145369E-06  0.985E-03    1.66       1.5  T
   3    -74.4997281  0.750562E-07  0.222E-03    1.66       6.6  T
   4    -74.4997283 -0.105621E-06  0.105E-03    1.66      13.8  T
   5    -74.4997283 -0.144542E-07  0.291E-04    1.66      50.2  T
   6    -74.4997283 -0.239092E-08  0.120E-04    1.66     121.4  T
     SCC iter.                  ...        0 min,  0.017 sec
     gradient                   ...        0 min,  0.006 sec
 * total energy  :   -73.4893234 Eh     change       -0.1490664E-04 Eh
   gradient norm :     0.0020938 Eh/α   predicted    -0.1104294E-04 ( -25.92%)
   displ. norm   :     0.0864723 α      lambda       -0.2811054E-04
   maximum displ.:     0.0581055 α      in ANC's #1, #6, #4, ...

........................................................................
.............................. CYCLE   41 ..............................
........................................................................

 iter      E             dE          RMSdq      gap      omega  full diag
   1    -74.5003213 -0.745003E+02  0.199E-02    1.66       0.0  T
   2    -74.5003214 -0.196810E-06  0.111E-02    1.66       1.3  T
   3    -74.5003214  0.397750E-07  0.216E-03    1.66       6.8  T
   4    -74.5003215 -0.629270E-07  0.113E-03    1.66      13.0  T
   5    -74.5003215 -0.217437E-07  0.288E-04    1.66      50.7  T
   6    -74.5003215 -0.131703E-08  0.140E-04    1.66     104.2  T
     SCC iter.                  ...        0 min,  0.017 sec
     gradient                   ...        0 min,  0.006 sec
 * total energy  :   -73.4893450 Eh     change       -0.2151463E-04 Eh
   gradient norm :     0.0017034 Eh/α   predicted    -0.1416145E-04 ( -34.18%)
   displ. norm   :     0.1969873 α      lambda       -0.3159067E-04
   maximum displ.:     0.1340201 α      in ANC's #1, #4, #6, ...

........................................................................
.............................. CYCLE   42 ..............................
........................................................................

 iter      E             dE          RMSdq      gap      omega  full diag
   1    -74.5014887 -0.745015E+02  0.433E-02    1.66       0.0  T
   2    -74.5014895 -0.758520E-06  0.242E-02    1.66       1.0  T
   3    -74.5014893  0.232906E-06  0.462E-03    1.67       3.2  T
   4    -74.5014895 -0.246524E-06  0.268E-03    1.67       5.5  T
   5    -74.5014897 -0.176621E-06  0.719E-04    1.67      20.3  T
   6    -74.5014897 -0.134453E-07  0.358E-04    1.67      40.8  T
     SCC iter.                  ...        0 min,  0.017 sec
     gradient                   ...        0 min,  0.006 sec
 * total energy  :   -73.4893727 Eh     change       -0.2771139E-04 Eh
   gradient norm :     0.0024463 Eh/α   predicted    -0.1607265E-04 ( -42.00%)
   displ. norm   :     0.0961637 α      lambda       -0.1875913E-04
   maximum displ.:     0.0673753 α      in ANC's #1, #4, #6, ...
 * RMSD in coord.:     0.7007057 α      energy gain  -0.1192055E-02 Eh

generating ANC from exact Hessian ...
Using Lindh-Hessian (1995)
 Shifting diagonal of input Hessian by   9.924137739068657E-003
 Lowest  eigenvalues of input Hessian
    0.000000    0.000000    0.000000    0.000000    0.000000    0.000000
    0.010000    0.010203    0.010263    0.010549    0.010882    0.011215
    0.011635    0.011949    0.012395    0.012645    0.012812    0.014555
 Highest eigenvalues
    1.937582    1.983312    2.009829    2.025626    2.083779    2.185990
 

........................................................................
.............................. CYCLE   43 ..............................
........................................................................

 iter      E             dE          RMSdq      gap      omega  full diag
   1    -74.5003419 -0.745003E+02  0.241E-02    1.66       0.0  T
   2    -74.5003421 -0.170308E-06  0.140E-02    1.67       1.0  T
   3    -74.5003419  0.250533E-06  0.285E-03    1.67       5.1  T
   4    -74.5003422 -0.294995E-06  0.103E-03    1.67      14.1  T
   5    -74.5003422 -0.154257E-07  0.486E-04    1.67      30.0  T
   6    -74.5003422 -0.707143E-08  0.161E-04    1.67      90.5  T
     SCC iter.                  ...        0 min,  0.020 sec
     gradient                   ...        0 min,  0.007 sec
 * total energy  :   -73.4893869 Eh     change       -0.1424984E-04 Eh
   gradient norm :     0.0020336 Eh/α   predicted     0.0000000E+00 (-100.00%)
   displ. norm   :     0.0244768 α      lambda       -0.1269437E-04
   maximum displ.:     0.0168181 α      in ANC's #1, #13, #4, ...

........................................................................
.............................. CYCLE   44 ..............................
........................................................................

 iter      E             dE          RMSdq      gap      omega  full diag
   1    -74.5000489 -0.745000E+02  0.682E-03    1.67       0.0  T
   2    -74.5000489 -0.198484E-07  0.402E-03    1.67       3.6  T
   3    -74.5000489  0.722696E-08  0.608E-04    1.67      24.0  T
   4    -74.5000489 -0.102103E-07  0.238E-04    1.67      61.4  T
     SCC iter.                  ...        0 min,  0.013 sec
     gradient                   ...        0 min,  0.007 sec
 * total energy  :   -73.4893975 Eh     change       -0.1056186E-04 Eh
   gradient norm :     0.0009280 Eh/α   predicted    -0.6511487E-05 ( -38.35%)
   displ. norm   :     0.0934976 α      lambda       -0.1789107E-04
   maximum displ.:     0.0616959 α      in ANC's #1, #4, #7, ...

........................................................................
.............................. CYCLE   45 ..............................
........................................................................

 iter      E             dE          RMSdq      gap      omega  full diag
   1    -74.4994881 -0.744995E+02  0.234E-02    1.67       0.0  T
   2    -74.4994883 -0.164664E-06  0.137E-02    1.67       1.1  T
   3    -74.4994882  0.757735E-07  0.208E-03    1.67       7.0  T
   4    -74.4994883 -0.112880E-06  0.788E-04    1.67      18.5  T
   5    -74.4994884 -0.753124E-08  0.305E-04    1.67      47.8  T
     SCC iter.                  ...        0 min,  0.015 sec
     gradient                   ...        0 min,  0.005 sec
 * total energy  :   -73.4894147 Eh     change       -0.1720136E-04 Eh
   gradient norm :     0.0020044 Eh/α   predicted    -0.9758197E-05 ( -43.27%)
   displ. norm   :     0.0437292 α      lambda       -0.9878729E-05
   maximum displ.:     0.0298107 α      in ANC's #1, #4, #7, ...

........................................................................
.............................. CYCLE   46 ..............................
........................................................................

 iter      E             dE          RMSdq      gap      omega  full diag
   1    -74.4995722 -0.744996E+02  0.107E-02    1.67       0.0  T
   2    -74.4995722 -0.213964E-07  0.618E-03    1.67       2.4  T
   3    -74.4995722  0.422797E-07  0.123E-03    1.67      11.8  T
   4    -74.4995722 -0.481716E-07  0.456E-04    1.67      32.0  T
   5    -74.4995722 -0.299246E-08  0.175E-04    1.67      83.5  T
     SCC iter.                  ...        0 min,  0.015 sec
     gradient                   ...        0 min,  0.008 sec
 * total energy  :   -73.4894239 Eh     change       -0.9242698E-05 Eh
   gradient norm :     0.0019094 Eh/α   predicted    -0.4949408E-05 ( -46.45%)
   displ. norm   :     0.1623369 α      lambda       -0.2598558E-04
   maximum displ.:     0.1049054 α      in ANC's #1, #4, #7, ...

........................................................................
.............................. CYCLE   47 ..............................
........................................................................

 iter      E             dE          RMSdq      gap      omega  full diag
   1    -74.4999333 -0.744999E+02  0.415E-02    1.67       0.0  T
   2    -74.4999335 -0.280574E-06  0.240E-02    1.67       1.0  T
   3    -74.4999332  0.384339E-06  0.393E-03    1.67       3.7  T
   4    -74.4999336 -0.433727E-06  0.172E-03    1.67       8.5  T
   5    -74.4999337 -0.562716E-07  0.578E-04    1.67      25.2  T
   6    -74.4999337 -0.103833E-07  0.211E-04    1.67      69.1  T
     SCC iter.                  ...        0 min,  0.027 sec
     gradient                   ...        0 min,  0.005 sec
 * total energy  :   -73.4894539 Eh     change       -0.2992863E-04 Eh
   gradient norm :     0.0011611 Eh/α   predicted    -0.1314666E-04 ( -56.07%)
   displ. norm   :     0.1878034 α      lambda       -0.1973720E-04
   maximum displ.:     0.1224456 α      in ANC's #1, #4, #7, ...

........................................................................
.............................. CYCLE   48 ..............................
........................................................................

 iter      E             dE          RMSdq      gap      omega  full diag
   1    -74.4998540 -0.744999E+02  0.476E-02    1.67       0.0  T
   2    -74.4998543 -0.313483E-06  0.275E-02    1.67       1.0  T
   3    -74.4998539  0.416587E-06  0.426E-03    1.67       3.4  T
   4    -74.4998544 -0.460464E-06  0.193E-03    1.67       7.6  T
   5    -74.4998544 -0.784290E-07  0.588E-04    1.67      24.8  T
   6    -74.4998545 -0.113450E-07  0.198E-04    1.67      73.6  T
     SCC iter.                  ...        0 min,  0.017 sec
     gradient                   ...        0 min,  0.006 sec
 * total energy  :   -73.4894776 Eh     change       -0.2379215E-04 Eh
   gradient norm :     0.0010234 Eh/α   predicted    -0.1002469E-04 ( -57.87%)
   displ. norm   :     0.1682189 α      lambda       -0.1540908E-04
   maximum displ.:     0.1120289 α      in ANC's #1, #4, #7, ...

........................................................................
.............................. CYCLE   49 ..............................
........................................................................

 iter      E             dE          RMSdq      gap      omega  full diag
   1    -74.4999138 -0.744999E+02  0.426E-02    1.68       0.0  T
   2    -74.4999140 -0.251285E-06  0.246E-02    1.67       1.0  T
   3    -74.4999140  0.568516E-07  0.284E-03    1.67       5.1  T
   4    -74.4999140 -0.517670E-07  0.169E-03    1.67       8.6  T
   5    -74.4999141 -0.821046E-07  0.442E-04    1.67      33.0  T
   6    -74.4999141 -0.624259E-08  0.172E-04    1.67      84.9  T
     SCC iter.                  ...        0 min,  0.018 sec
     gradient                   ...        0 min,  0.005 sec
 * total energy  :   -73.4894964 Eh     change       -0.1878735E-04 Eh
   gradient norm :     0.0007939 Eh/α   predicted    -0.7807623E-05 ( -58.44%)
   displ. norm   :     0.1474732 α      lambda       -0.1346713E-04
   maximum displ.:     0.1002238 α      in ANC's #1, #4, #7, ...

........................................................................
.............................. CYCLE   50 ..............................
........................................................................

 iter      E             dE          RMSdq      gap      omega  full diag
   1    -74.5001329 -0.745001E+02  0.372E-02    1.68       0.0  T
   2    -74.5001331 -0.201507E-06  0.213E-02    1.68       1.0  T
   3    -74.5001331  0.419413E-07  0.266E-03    1.68       5.5  T
   4    -74.5001331 -0.156200E-07  0.171E-03    1.68       8.5  T
   5    -74.5001332 -0.886726E-07  0.365E-04    1.68      40.0  T
   6    -74.5001332 -0.451040E-08  0.133E-04    1.68     109.4  T
     SCC iter.                  ...        0 min,  0.018 sec
     gradient                   ...        0 min,  0.005 sec
 * total energy  :   -73.4895132 Eh     change       -0.1678523E-04 Eh
   gradient norm :     0.0007912 Eh/α   predicted    -0.6800417E-05 ( -59.49%)
   displ. norm   :     0.1438982 α      lambda       -0.1292694E-04
   maximum displ.:     0.0989561 α      in ANC's #1, #4, #2, ...

........................................................................
.............................. CYCLE   51 ..............................
........................................................................

 iter      E             dE          RMSdq      gap      omega  full diag
   1    -74.5001953 -0.745002E+02  0.363E-02    1.68       0.0  T
   2    -74.5001955 -0.197673E-06  0.207E-02    1.68       1.0  T
   3    -74.5001956 -0.326316E-07  0.232E-03    1.68       6.3  T
   4    -74.5001955  0.214019E-07  0.112E-03    1.68      13.0  T
   5    -74.5001956 -0.501878E-07  0.184E-04    1.68      79.1  T
   6    -74.5001956 -0.202689E-09  0.114E-04    1.68     127.8  T
     SCC iter.                  ...        0 min,  0.018 sec
     gradient                   ...        0 min,  0.005 sec
 * total energy  :   -73.4895305 Eh     change       -0.1728721E-04 Eh
   gradient norm :     0.0008507 Eh/α   predicted    -0.6525615E-05 ( -62.25%)
   displ. norm   :     0.1540330 α      lambda       -0.1445419E-04
   maximum displ.:     0.1061045 α      in ANC's #1, #4, #2, ...

........................................................................
.............................. CYCLE   52 ..............................
........................................................................

 iter      E             dE          RMSdq      gap      omega  full diag
   1    -74.5002525 -0.745003E+02  0.381E-02    1.68       0.0  T
   2    -74.5002528 -0.225841E-06  0.217E-02    1.68       1.0  T
   3    -74.5002528 -0.296988E-07  0.252E-03    1.68       5.8  T
   4    -74.5002528  0.311904E-07  0.138E-03    1.68      10.6  T
   5    -74.5002528 -0.732858E-07  0.257E-04    1.68      56.8  T
   6    -74.5002528 -0.133315E-08  0.145E-04    1.68     100.5  T
     SCC iter.                  ...        0 min,  0.018 sec
     gradient                   ...        0 min,  0.005 sec
 * total energy  :   -73.4895498 Eh     change       -0.1928673E-04 Eh
   gradient norm :     0.0007517 Eh/α   predicted    -0.7304310E-05 ( -62.13%)
   displ. norm   :     0.1699615 α      lambda       -0.1533057E-04
   maximum displ.:     0.1178419 α      in ANC's #1, #2, #4, ...

........................................................................
.............................. CYCLE   53 ..............................
........................................................................

 iter      E             dE          RMSdq      gap      omega  full diag
   1    -74.5002339 -0.745002E+02  0.411E-02    1.68       0.0  T
   2    -74.5002341 -0.255036E-06  0.235E-02    1.68       1.0  T
   3    -74.5002342 -0.256375E-07  0.272E-03    1.68       5.4  T
   4    -74.5002341  0.514945E-07  0.158E-03    1.68       9.2  T
   5    -74.5002342 -0.109130E-06  0.288E-04    1.68      50.7  T
   6    -74.5002342 -0.186296E-08  0.161E-04    1.68      90.9  T
     SCC iter.                  ...        0 min,  0.018 sec
     gradient                   ...        0 min,  0.005 sec
 * total energy  :   -73.4895701 Eh     change       -0.2030338E-04 Eh
   gradient norm :     0.0005978 Eh/α   predicted    -0.7764968E-05 ( -61.76%)
   displ. norm   :     0.1742534 α      lambda       -0.1489207E-04
   maximum displ.:     0.1218216 α      in ANC's #1, #2, #4, ...

........................................................................
.............................. CYCLE   54 ..............................
........................................................................

 iter      E             dE          RMSdq      gap      omega  full diag
   1    -74.5001954 -0.745002E+02  0.405E-02    1.68       0.0  T
   2    -74.5001957 -0.243030E-06  0.232E-02    1.68       1.0  T
   3    -74.5001957 -0.289133E-07  0.255E-03    1.68       5.7  T
   4    -74.5001957  0.227352E-07  0.142E-03    1.68      10.3  T
   5    -74.5001958 -0.721839E-07  0.317E-04    1.68      46.0  T
   6    -74.5001958 -0.252822E-08  0.159E-04    1.68      91.7  T
     SCC iter.                  ...        0 min,  0.017 sec
     gradient                   ...        0 min,  0.005 sec
 * total energy  :   -73.4895893 Eh     change       -0.1923351E-04 Eh
   gradient norm :     0.0005504 Eh/α   predicted    -0.7547433E-05 ( -60.76%)
   displ. norm   :     0.1561090 α      lambda       -0.1297624E-04
   maximum displ.:     0.1108672 α      in ANC's #1, #2, #4, ...

........................................................................
.............................. CYCLE   55 ..............................
........................................................................

 iter      E             dE          RMSdq      gap      omega  full diag
   1    -74.5002190 -0.745002E+02  0.347E-02    1.68       0.0  T
   2    -74.5002191 -0.153991E-06  0.200E-02    1.68       1.0  T
   3    -74.5002191 -0.844980E-08  0.207E-03    1.68       7.1  T
   4    -74.5002191  0.302899E-07  0.129E-03    1.68      11.3  T
   5    -74.5002192 -0.746061E-07  0.250E-04    1.68      58.3  T
   6    -74.5002192 -0.154014E-08  0.129E-04    1.68     112.7  T
     SCC iter.                  ...        0 min,  0.017 sec
     gradient                   ...        0 min,  0.006 sec
 * total energy  :   -73.4896068 Eh     change       -0.1744306E-04 Eh
   gradient norm :     0.0006216 Eh/α   predicted    -0.6559186E-05 ( -62.40%)
   displ. norm   :     0.1464645 α      lambda       -0.1310691E-04
   maximum displ.:     0.1049102 α      in ANC's #1, #2, #4, ...

........................................................................
.............................. CYCLE   56 ..............................
........................................................................

 iter      E             dE          RMSdq      gap      omega  full diag
   1    -74.5002256 -0.745002E+02  0.307E-02    1.68       0.0  T
   2    -74.5002258 -0.113001E-06  0.177E-02    1.68       1.0  T
   3    -74.5002258 -0.782745E-08  0.168E-03    1.68       8.7  T
   4    -74.5002258  0.109061E-07  0.100E-03    1.68      14.5  T
   5    -74.5002258 -0.398640E-07  0.239E-04    1.68      61.0  T
   6    -74.5002258 -0.164430E-08  0.104E-04    1.68     140.3  T
     SCC iter.                  ...        0 min,  0.017 sec
     gradient                   ...        0 min,  0.007 sec
 * total energy  :   -73.4896249 Eh     change       -0.1814528E-04 Eh
   gradient norm :     0.0006486 Eh/α   predicted    -0.6616138E-05 ( -63.54%)
   displ. norm   :     0.1661326 α      lambda       -0.1592718E-04
   maximum displ.:     0.1186795 α      in ANC's #1, #2, #4, ...

........................................................................
.............................. CYCLE   57 ..............................
........................................................................

 iter      E             dE          RMSdq      gap      omega  full diag
   1    -74.5001742 -0.745002E+02  0.331E-02    1.68       0.0  T
   2    -74.5001743 -0.116861E-06  0.191E-02    1.68       1.0  T
   3    -74.5001743  0.304037E-08  0.173E-03    1.68       8.4  T
   4    -74.5001743  0.857236E-08  0.111E-03    1.68      13.1  T
   5    -74.5001743 -0.508569E-07  0.255E-04    1.68      57.3  T
   6    -74.5001743 -0.192402E-08  0.100E-04    1.68     145.8  T
     SCC iter.                  ...        0 min,  0.020 sec
     gradient                   ...        0 min,  0.007 sec
 * total energy  :   -73.4896466 Eh     change       -0.2164152E-04 Eh
   gradient norm :     0.0006089 Eh/α   predicted    -0.8066696E-05 ( -62.73%)
   displ. norm   :     0.1944325 α      lambda       -0.1768270E-04
   maximum displ.:     0.1390136 α      in ANC's #1, #2, #4, ...

........................................................................
.............................. CYCLE   58 ..............................
........................................................................

 iter      E             dE          RMSdq      gap      omega  full diag
   1    -74.5001175 -0.745001E+02  0.379E-02    1.68       0.0  T
   2    -74.5001177 -0.163799E-06  0.219E-02    1.68       1.0  T
   3    -74.5001177 -0.335129E-08  0.194E-03    1.68       7.5  T
   4    -74.5001177  0.453595E-08  0.115E-03    1.68      12.7  T
   5    -74.5001177 -0.529678E-07  0.279E-04    1.68      52.3  T
   6    -74.5001177 -0.239756E-08  0.117E-04    1.68     124.6  T
     SCC iter.                  ...        0 min,  0.025 sec
     gradient                   ...        0 min,  0.009 sec
 * total energy  :   -73.4896695 Eh     change       -0.2293663E-04 Eh
[...]
C9-C8-C3-O6=334.68            C17-C8-C3-C2=276.33           C17-C8-C3-O4= 33.71           C17-C8-C3-O6=157.43           
C10-C9-C8-C3=180.22           C10-C9-C8-C17=357.48          H32-C9-C8-C3=  1.20           H32-C9-C8-C17=178.46          
C11-C10-C9-C8=  0.47          C11-C10-C9-H32=179.48         H33-C10-C9-C8=180.76          H33-C10-C9-H32=359.77         
           -------------------------------------------------
          |                Final Singlepoint                |
           -------------------------------------------------

          ...................................................
          :                      SETUP                      :
          :.................................................:
          :  # basis functions                 128          :
          :  # atomic orbitals                 127          :
          :  # shells                           73          :
          :  # electrons                       132          :
          :  max. iterations                   250          :
          :  Hamiltonian                  GFN2-xTB          :
          :  restarted?                      false          :
          :  GBSA solvation                  false          :
          :  PC potential                    false          :
          :  electronic temp.          300.0000000     K    :
          :  accuracy                    1.0000000          :
          :  -> integral cutoff          0.2500000E+02      :
          :  -> integral neglect         0.1000000E-07      :
          :  -> SCF convergence          0.1000000E-05 Eh   :
          :  -> wf. convergence          0.1000000E-03 e    :
          :  Broyden damping             0.4000000          :
          :  net charge                          0          :
          :  unpaired electrons                  0          :
          ...................................................

 iter      E             dE          RMSdq      gap      omega  full diag
   1    -74.5006564 -0.745007E+02  0.664E-05    1.70       0.0  T
   2    -74.5006564 -0.309370E-10  0.451E-05    1.70     323.2  T
   3    -74.5006564 -0.491980E-10  0.248E-05    1.70     589.0  T

   *** convergence criteria satisfied after 3 iterations ***

         #    Occupation            Energy/Eh            Energy/eV
      -------------------------------------------------------------
         1        2.0000           -0.7164613             -19.4959
       ...           ...                  ...                  ...
        60        2.0000           -0.4196536             -11.4194
        61        2.0000           -0.4190734             -11.4036
        62        2.0000           -0.4153700             -11.3028
        63        2.0000           -0.4120807             -11.2133
        64        2.0000           -0.4024418             -10.9510
        65        2.0000           -0.3840806             -10.4514
        66        2.0000           -0.3637691              -9.8987 (HOMO)
        67                         -0.3013077              -8.1990 (LUMO)
        68                         -0.2448139              -6.6617
        69                         -0.2359065              -6.4193
        70                         -0.2333563              -6.3499
        71                         -0.2245612              -6.1106
       ...                                ...                  ...
       127                          0.6917774              18.8242
      -------------------------------------------------------------
                  HL-Gap            0.0624615 Eh            1.6997 eV
             Fermi-level           -0.3325384 Eh           -9.0488 eV

 SCC (total)                   0 d,  0 h,  0 min,  0.019 sec
 SCC setup                      ...        0 min,  0.001 sec (  6.032%)
 Dispersion                     ...        0 min,  0.000 sec (  1.257%)
 classical contributions        ...        0 min,  0.000 sec (  0.850%)
 integral evaluation            ...        0 min,  0.001 sec (  7.343%)
 iterations                     ...        0 min,  0.009 sec ( 49.806%)
 molecular gradient             ...        0 min,  0.006 sec ( 32.740%)
 printout                       ...        0 min,  0.000 sec (  1.823%)

         :::::::::::::::::::::::::::::::::::::::::::::::::::::
         ::                     SUMMARY                     ::
         :::::::::::::::::::::::::::::::::::::::::::::::::::::
         :: total energy             -73.489814436349 Eh    ::
         :: gradient norm              0.000261024120 Eh/a0 ::
         :: HOMO-LUMO gap              1.699662596860 eV    ::
         ::.................................................::
         :: SCC energy               -74.500360416649 Eh    ::
         :: -> isotropic ES            0.091037130065 Eh    ::
         :: -> anisotropic ES          0.000439455093 Eh    ::
         :: -> anisotropic XC          0.026913004392 Eh    ::
         :: -> dispersion             -0.050377032556 Eh    ::
         :: repulsion energy           1.010545980300 Eh    ::
         :: add. restraining           0.000000000000 Eh    ::
         :: total charge               0.000000000000 e     ::
         :::::::::::::::::::::::::::::::::::::::::::::::::::::

           -------------------------------------------------
          |                Property Printout                |
           -------------------------------------------------

    * Orbital Energies and Occupations

         #    Occupation            Energy/Eh            Energy/eV
      -------------------------------------------------------------
         1        2.0000           -0.7164613             -19.4959
       ...           ...                  ...                  ...
        54        2.0000           -0.4406822             -11.9916
        55        2.0000           -0.4380229             -11.9192
        56        2.0000           -0.4338182             -11.8048
        57        2.0000           -0.4312711             -11.7355
        58        2.0000           -0.4288174             -11.6687
        59        2.0000           -0.4217336             -11.4760
        60        2.0000           -0.4196536             -11.4194
        61        2.0000           -0.4190734             -11.4036
        62        2.0000           -0.4153700             -11.3028
        63        2.0000           -0.4120807             -11.2133
        64        2.0000           -0.4024418             -10.9510
        65        2.0000           -0.3840806             -10.4514
        66        2.0000           -0.3637691              -9.8987 (HOMO)
        67                         -0.3013077              -8.1990 (LUMO)
        68                         -0.2448139              -6.6617
        69                         -0.2359065              -6.4193
        70                         -0.2333563              -6.3499
        71                         -0.2245612              -6.1106
        72                         -0.1967055              -5.3526
        73                         -0.1657388              -4.5100
        74                         -0.1431307              -3.8948
        75                         -0.1087814              -2.9601
        76                         -0.0905927              -2.4652
        77                         -0.0135459              -0.3686
       ...                                ...                  ...
       127                          0.6917774              18.8242
      -------------------------------------------------------------
                  HL-Gap            0.0624615 Eh            1.6997 eV
             Fermi-level           -0.3325384 Eh           -9.0488 eV

     #   Z          covCN         q      C6AA      α(0)
     1   8 O        0.857    -0.362    20.940     6.135
     2   6 C        2.835     0.212    23.517     7.947
     3   6 C        3.701     0.253    16.851     5.870
     4   8 O        1.700    -0.341    19.721     5.996
     5   6 C        3.645     0.046    20.137     6.450
     6   8 O        1.701    -0.320    19.343     5.938
     7   6 C        3.645     0.044    20.162     6.454
     8   6 C        2.985    -0.009    28.231     8.716
     9   6 C        2.922    -0.024    28.614     8.772
    10   6 C        2.970    -0.034    28.849     8.810
    11   6 C        2.967     0.049    26.888     8.506
    12  16 S        2.056    -0.184   148.841    20.534
    13   6 C        3.793    -0.020    20.937     6.516
    14   6 C        3.705     0.085    19.311     6.282
    15   8 O        1.656    -0.435    21.537     6.265
    16   6 C        2.949    -0.038    28.953     8.825
    17   6 C        2.923    -0.035    28.871     8.811
    18   6 C        2.892    -0.064    29.581     8.917
    19   6 C        2.909    -0.006    28.179     8.704
    20   6 C        2.970     0.017    27.619     8.620
    21   6 C        2.928    -0.028    28.691     8.784
    22   6 C        2.916    -0.027    28.669     8.780
    23   6 C        2.920    -0.024    28.596     8.769
    24   6 C        2.917    -0.027    28.672     8.781
    25   6 C        2.923    -0.027    28.678     8.782
    26   1 H        0.924     0.032     2.554     2.499
    27   1 H        0.924     0.045     2.379     2.412
    28   1 H        0.925     0.057     2.234     2.337
    29   1 H        0.924     0.036     2.501     2.473
    30   1 H        0.925     0.058     2.217     2.328
    31   1 H        0.924     0.043     2.406     2.426
    32   1 H        0.926     0.068     2.103     2.268
    33   1 H        0.926     0.054     2.272     2.357
    34   1 H        0.925     0.053     2.277     2.360
    35   1 H        0.925     0.055     2.261     2.351
    36   1 H        0.924     0.051     2.308     2.376
    37   1 H        0.923     0.028     2.608     2.526
    38   1 H        0.805     0.291     0.749     1.360
    39   1 H        0.926     0.043     2.411     2.428
    40   1 H        0.926     0.045     2.385     2.415
    41   1 H        0.926     0.065     2.140     2.288
    42   1 H        0.925     0.071     2.070     2.250
    43   1 H        0.926     0.042     2.417     2.431
    44   1 H        0.926     0.038     2.470     2.458
    45   1 H        0.926     0.038     2.471     2.458
    46   1 H        0.926     0.038     2.477     2.461
    47   1 H        0.926     0.043     2.414     2.430

 Mol. C6AA /au·bohr⁶  :      27085.197974
 Mol. C8AA /au·bohr⁸  :     682631.317162
 Mol. α(0) /au        :        258.655416


Wiberg/Mayer (AO) data.
largest (>0.10) Wiberg bond orders for each atom

 ---------------------------------------------------------------------------
     #   Z sym  total        # sym  WBO       # sym  WBO       # sym  WBO
 ---------------------------------------------------------------------------
     1   8 O    2.063 --     2 C    1.793
     2   6 C    3.925 --     1 O    1.793    18 C    1.085     3 C    0.900
     3   6 C    3.925 --     6 O    0.978     4 O    0.959     8 C    0.945
                             2 C    0.900
     4   8 O    2.075 --     5 C    0.979     3 C    0.959
     5   6 C    3.945 --    28 H    0.981     4 O    0.979    27 H    0.979
                            26 H    0.978
     6   8 O    2.092 --     7 C    0.979     3 C    0.978
     7   6 C    3.944 --    30 H    0.981    29 H    0.980     6 O    0.979
                            31 H    0.979
     8   6 C    3.982 --    17 C    1.400     9 C    1.400     3 C    0.945
     9   6 C    3.987 --    10 C    1.453     8 C    1.400    32 H    0.963
                            16 C    0.105
    10   6 C    3.989 --     9 C    1.453    11 C    1.394    33 H    0.967
                            17 C    0.105
    11   6 C    3.965 --    16 C    1.397    10 C    1.394    12 S    1.020
    12  16 S    2.186 --    11 C    1.020    13 C    0.985
    13   6 C    3.979 --    14 C    0.997    12 S    0.985    35 H    0.971
                            34 H    0.971
    14   6 C    3.957 --    15 O    1.002    13 C    0.997    37 H    0.971
                            36 H    0.970
    15   8 O    1.971 --    14 C    1.002    38 H    0.901
    16   6 C    3.990 --    17 C    1.449    11 C    1.397    39 H    0.965
                             9 C    0.105
    17   6 C    3.990 --    16 C    1.449     8 C    1.400    40 H    0.966
                            10 C    0.105
    18   6 C    3.987 --    19 C    1.737     2 C    1.085    41 H    0.958
    19   6 C    3.977 --    18 C    1.737    20 C    1.126    42 H    0.957
    20   6 C    3.990 --    21 C    1.359    25 C    1.357    19 C    1.126
    21   6 C    3.990 --    22 C    1.462    20 C    1.359    43 H    0.968
                            24 C    0.102
    22   6 C    3.992 --    21 C    1.462    23 C    1.429    44 H    0.970
                            25 C    0.104
    23   6 C    3.979 --    22 C    1.429    24 C    1.424    45 H    0.971
    24   6 C    3.992 --    25 C    1.468    23 C    1.424    46 H    0.970
                            21 C    0.102
    25   6 C    3.991 --    24 C    1.468    20 C    1.357    47 H    0.966
                            22 C    0.104
    26   1 H    0.999 --     5 C    0.978
    27   1 H    0.998 --     5 C    0.979
    28   1 H    0.996 --     5 C    0.981
    29   1 H    0.999 --     7 C    0.980
    30   1 H    0.996 --     7 C    0.981
    31   1 H    0.998 --     7 C    0.979
    32   1 H    0.995 --     9 C    0.963
    33   1 H    0.997 --    10 C    0.967
    34   1 H    0.997 --    13 C    0.971
    35   1 H    0.997 --    13 C    0.971
    36   1 H    0.997 --    14 C    0.970
    37   1 H    0.999 --    14 C    0.971
    38   1 H    0.915 --    15 O    0.901
    39   1 H    0.998 --    16 C    0.965
    40   1 H    0.998 --    17 C    0.966
    41   1 H    0.996 --    18 C    0.958
    42   1 H    0.994 --    19 C    0.957
    43   1 H    0.998 --    21 C    0.968
    44   1 H    0.998 --    22 C    0.970
    45   1 H    0.998 --    23 C    0.971
    46   1 H    0.998 --    24 C    0.970
    47   1 H    0.998 --    25 C    0.966
 ---------------------------------------------------------------------------

Topologies differ in total number of bonds
Writing topology from bond orders to xtbtopo.mol

molecular dipole:
                 x           y           z       tot (Debye)
 q only:       -0.446       0.357      -1.133
   full:       -0.411       0.259      -1.465       3.923
molecular quadrupole (traceless):
                xx          xy          yy          xz          yz          zz
 q only:       18.493      -1.327      -2.081       2.728      -2.866     -16.412
  q+dip:       22.037      -2.393      -4.218       2.760      -7.137     -17.819
   full:       21.915      -0.139      -1.729       0.643      -5.709     -20.185

           -------------------------------------------------
          |                Geometry Summary                 |
           -------------------------------------------------

      molecular mass/u    :      358.4518216
   center of mass at/Å    :        0.1653444       0.1600574       0.3366318
  moments of inertia/u·Å² :        0.1762394E+04   0.5582431E+04   0.6283377E+04
rotational constants/cm⁻¹ :        0.9565187E-02   0.3019766E-02   0.2682894E-02

 * 42 selected distances

     #   Z          #   Z                                           value/Å
     1   8 O        2   6 C                                       1.2128260
     3   6 C        4   8 O                                       1.4127958
     4   8 O        5   6 C                                       1.4155857
     3   6 C        6   8 O                                       1.4021494
     6   8 O        7   6 C                                       1.4152712
     8   6 C        9   6 C                                       1.3884608
     9   6 C       10   6 C                                       1.3807896
    10   6 C       11   6 C                                       1.3889585
    13   6 C       14   6 C                                       1.5265963 (max)
    14   6 C       15   8 O                                       1.4043394
    11   6 C       16   6 C                                       1.3876155
     8   6 C       17   6 C                                       1.3896524
    16   6 C       17   6 C                                       1.3813948
    18   6 C       19   6 C                                       1.3437695
    20   6 C       21   6 C                                       1.3990362
    21   6 C       22   6 C                                       1.3808112
    22   6 C       23   6 C                                       1.3858078
    23   6 C       24   6 C                                       1.3866767
    20   6 C       25   6 C                                       1.3985749
    24   6 C       25   6 C                                       1.3804807
     5   6 C       26   1 H                                       1.0944247
     5   6 C       27   1 H                                       1.0927330
     5   6 C       28   1 H                                       1.0880843
     7   6 C       29   1 H                                       1.0943246
     7   6 C       30   1 H                                       1.0882941
     7   6 C       31   1 H                                       1.0932234
     9   6 C       32   1 H                                       1.0772502
    10   6 C       33   1 H                                       1.0789593
    13   6 C       34   1 H                                       1.0912032
    13   6 C       35   1 H                                       1.0894178
    14   6 C       36   1 H                                       1.0933323
    14   6 C       37   1 H                                       1.0989840
    15   8 O       38   1 H                                       0.9638842 (min)
    16   6 C       39   1 H                                       1.0791509
    17   6 C       40   1 H                                       1.0799344
    18   6 C       41   1 H                                       1.0763673
    19   6 C       42   1 H                                       1.0845994
    21   6 C       43   1 H                                       1.0804313
    22   6 C       44   1 H                                       1.0800208
    23   6 C       45   1 H                                       1.0798461
    24   6 C       46   1 H                                       1.0802259
    25   6 C       47   1 H                                       1.0787181

 * 4 distinct bonds (by element types)

   Z      Z             #   av. dist./Å        max./Å        min./Å
   1 H    6 C          21     1.0856917     1.0989840     1.0763673
   6 C    6 C          14     1.3941875     1.5265963     1.3437695
   1 H    8 O           1     0.9638842     0.9638842     0.9638842
   6 C    8 O           6     1.3771613     1.4155857     1.2128260


optimized geometry written to: xtbopt.xyz


           -------------------------------------------------
          | TOTAL ENERGY              -73.489814436349 Eh   |
          | GRADIENT NORM               0.000261024120 Eh/α |
          | HOMO-LUMO GAP               1.699662596860 eV   |
           -------------------------------------------------

------------------------------------------------------------------------
 * finished run on 2025/12/01 at 14:19:16.926     
------------------------------------------------------------------------
 total:
 * wall-time:     0 d,  0 h,  0 min,  2.701 sec
 *  cpu-time:     0 d,  0 h,  1 min,  1.583 sec
 * ratio c/w:    22.803 speedup
 SCF:
 * wall-time:     0 d,  0 h,  0 min,  0.059 sec
 *  cpu-time:     0 d,  0 h,  0 min,  1.343 sec
 * ratio c/w:    22.721 speedup
 ANC optimizer:
 * wall-time:     0 d,  0 h,  0 min,  2.629 sec
 *  cpu-time:     0 d,  0 h,  1 min,  0.021 sec
 * ratio c/w:    22.830 speedup

normal termination of xtb
