      -----------------------------------------------------------      
     |                   =====================                   |     
     |                           x T B                           |     
     |                   =====================                   |     
     |                         S. Grimme                         |     
     |          Mulliken Center for Theoretical Chemistry        |     
     |                    University of Bonn                     |     
      -----------------------------------------------------------      

   * xtb version 6.7.1 (edcfbbe) compiled by 'albert@albert-system' on 2024-07-22

   xtb is free software: you can redistribute it and/or modify it under
   the terms of the GNU Lesser General Public License as published by
   the Free Software Foundation, either version 3 of the License, or
   (at your option) any later version.
   
   xtb is distributed in the hope that it will be useful,
   but WITHOUT ANY WARRANTY; without even the implied warranty of
   MERCHANTABILITY or FITNESS FOR A PARTICULAR PURPOSE.  See the
   GNU Lesser General Public License for more details.
   
   Cite this work as:
   * C. Bannwarth, E. Caldeweyher, S. Ehlert, A. Hansen, P. Pracht,
     J. Seibert, S. Spicher, S. Grimme, WIREs Comput. Mol. Sci., 2020, 11,
     e01493. DOI: 10.1002/wcms.1493
   
   for GFN2-xTB:
   * C. Bannwarth, S. Ehlert and S. Grimme., J. Chem. Theory Comput., 2019,
     15, 1652-1671. DOI: 10.1021/acs.jctc.8b01176
   for GFN1-xTB:
   * S. Grimme, C. Bannwarth, P. Shushkov, J. Chem. Theory Comput., 2017,
     13, 1989-2009. DOI: 10.1021/acs.jctc.7b00118
   for GFN0-xTB:
   * P. Pracht, E. Caldeweyher, S. Ehlert, S. Grimme, ChemRxiv, 2019, preprint.
     DOI: 10.26434/chemrxiv.8326202.v1
   for GFN-FF:
   * S. Spicher and S. Grimme, Angew. Chem. Int. Ed., 2020, 59, 15665-15673.
     DOI: 10.1002/anie.202004239
   
   for ALPB and GBSA implicit solvation:
   * S. Ehlert, M. Stahn, S. Spicher, S. Grimme, J. Chem. Theory Comput.,
     2021, 17, 4250-4261. DOI: 10.1021/acs.jctc.1c00471
   
   for ddCOSMO and CPCM-X implicit solvation:
   * M. Stahn, S. Ehlert, S. Grimme, J. Phys. Chem. A,
     2023, XX, XXXX-XXXX. DOI: 10.1021/acs.jpca.3c04382
   
   for DFT-D4:
   * E. Caldeweyher, C. Bannwarth and S. Grimme, J. Chem. Phys., 2017,
     147, 034112. DOI: 10.1063/1.4993215
   * E. Caldeweyher, S. Ehlert, A. Hansen, H. Neugebauer, S. Spicher,
     C. Bannwarth and S. Grimme, J. Chem. Phys., 2019, 150, 154122.
     DOI: 10.1063/1.5090222
   * E. Caldeweyher, J.-M. Mewes, S. Ehlert and S. Grimme, Phys. Chem. Chem. Phys.
     2020, 22, 8499-8512. DOI: 10.1039/D0CP00502A
   
   for sTDA-xTB:
   * S. Grimme and C. Bannwarth, J. Chem. Phys., 2016, 145, 054103.
     DOI: 10.1063/1.4959605
   
   in the mass-spec context:
   * V. Asgeirsson, C. Bauer and S. Grimme, Chem. Sci., 2017, 8, 4879.
     DOI: 10.1039/c7sc00601b
   * J. Koopman and S. Grimme, ACS Omega 2019, 4, 12, 15120-15133.
     DOI: 10.1021/acsomega.9b02011
   
   for metadynamics refer to:
   * S. Grimme, J. Chem. Theory Comput., 2019, 155, 2847-2862
     DOI: 10.1021/acs.jctc.9b00143
   
   for SPH calculations refer to:
   * S. Spicher and S. Grimme, J. Chem. Theory Comput., 2021, 17, 1701-1714
     DOI: 10.1021/acs.jctc.0c01306
   
   for ONIOM refer to:
   * C. Plett, A. Katbashev, S. Ehlert, S. Grimme, M. Bursch,
     Phys. Chem. Chem. Phys., 2023, 25, 17860-17868. DOI: 10.1039/D3CP02178E
   
   for DIPRO refer to:
   * J. Kohn, N. Gildemeister, S. Grimme, D. Fazzi, A. Hansen,
     J. Chem. Phys., 2023, just accepted.
   
   for PTB refer to:
   * S. Grimme, M. Mueller, A. Hansen, J. Chem. Phys., 2023, 158, 124111.
     DOI: 10.1063/5.0137838
   
   with help from (in alphabetical order)
   P. Atkinson, C. Bannwarth, F. Bohle, G. Brandenburg, E. Caldeweyher
   M. Checinski, S. Dohm, S. Ehlert, S. Ehrlich, I. Gerasimov, C. Hölzer
   A. Katbashev, J. Kohn, J. Koopman, C. Lavigne, S. Lehtola, F. März, M. Müller,
   F. Musil, H. Neugebauer, J. Pisarek, C. Plett, P. Pracht, F. Pultar,
   J. Seibert, P. Shushkov, S. Spicher, M. Stahn, M. Steiner, T. Strunk,
   J. Stückrath, T. Rose, and J. Unsleber
   
 * started run on 2025/12/01 at 14:19:09.191     
   ID    Z sym.   atoms
    1    8 O      1, 4, 6, 15
    2    6 C      2, 3, 5, 7-11, 13, 14, 16-25
    3   16 S      12
    4    1 H      26-47

           -------------------------------------------------
          |                Calculation Setup                |
           -------------------------------------------------

          program call               : xtb pipeline_data/3_conformer_xyz/acrylates/rdkit/QXLXSQHHHGJQDK-MDWZMJQESA-N_conf101.xyz --opt --gfn 2-xTB --iterations 250
          coordinate file            : pipeline_data/3_conformer_xyz/acrylates/rdkit/QXLXSQHHHGJQDK-MDWZMJQESA-N_conf101.xyz
          omp threads                :                    24

########################################################################
[WARNING] Please study the warnings concerning your input carefully
-1- readin_getIntValue: could not parse '2-xTB'
########################################################################

           -------------------------------------------------
          |                 G F N 2 - x T B                 |
           -------------------------------------------------

        Reference                      10.1021/acs.jctc.8b01176
      * Hamiltonian:
        H0-scaling (s, p, d)           1.850000    2.230000    2.230000
        zeta-weighting                 0.500000
      * Dispersion:
        s8                             2.700000
        a1                             0.520000
        a2                             5.000000
        s9                             5.000000
      * Repulsion:
        kExp                           1.500000    1.000000
        rExp                           1.000000
      * Coulomb:
        alpha                          2.000000
        third order                    shell-resolved
        anisotropic                    true
        a3                             3.000000
        a5                             4.000000
        cn-shift                       1.200000
        cn-exp                         4.000000
        max-rad                        5.000000

q/qsh data taken from xtbrestart
CAMM data taken from xtbrestart

          ...................................................
          :                      SETUP                      :
          :.................................................:
          :  # basis functions                 128          :
          :  # atomic orbitals                 127          :
          :  # shells                           73          :
          :  # electrons                       132          :
          :  max. iterations                   250          :
          :  Hamiltonian                  GFN2-xTB          :
          :  restarted?                       true          :
          :  GBSA solvation                  false          :
          :  PC potential                    false          :
          :  electronic temp.          300.0000000     K    :
          :  accuracy                    1.0000000          :
          :  -> integral cutoff          0.2500000E+02      :
          :  -> integral neglect         0.1000000E-07      :
          :  -> SCF convergence          0.1000000E-05 Eh   :
          :  -> wf. convergence          0.1000000E-03 e    :
          :  Broyden damping             0.4000000          :
          :  net charge                          0          :
          :  unpaired electrons                  0          :
          ...................................................

 iter      E             dE          RMSdq      gap      omega  full diag
   1    -74.4333760 -0.744334E+02  0.421E+00    1.95       0.0  T
   2    -74.4438873 -0.105113E-01  0.236E+00    1.72       1.0  T
   3    -74.4433665  0.520834E-03  0.483E-01    1.57       1.0  T
   4    -74.4460076 -0.264106E-02  0.251E-01    1.54       1.0  T
   5    -74.4467270 -0.719484E-03  0.939E-02    1.58       1.0  T
   6    -74.4468581 -0.131053E-03  0.382E-02    1.59       1.0  T
   7    -74.4468712 -0.131161E-04  0.216E-02    1.60       1.0  T
   8    -74.4468787 -0.751759E-05  0.734E-03    1.60       2.0  T
   9    -74.4468799 -0.115613E-05  0.265E-03    1.60       5.5  T
  10    -74.4468799 -0.504866E-07  0.120E-03    1.60      12.1  T
  11    -74.4468800 -0.349090E-07  0.448E-04    1.59      32.6  T
  12    -74.4468800 -0.235192E-08  0.218E-04    1.59      66.8  T

   *** convergence criteria satisfied after 12 iterations ***

         #    Occupation            Energy/Eh            Energy/eV
      -------------------------------------------------------------
         1        2.0000           -0.7281186             -19.8131
       ...           ...                  ...                  ...
        60        2.0000           -0.4262211             -11.5981
        61        2.0000           -0.4216026             -11.4724
        62        2.0000           -0.4205873             -11.4448
        63        2.0000           -0.4116129             -11.2006
        64        2.0000           -0.4087201             -11.1218
        65        2.0000           -0.3930495             -10.6954
        66        2.0000           -0.3673634              -9.9965 (HOMO)
        67                         -0.3087513              -8.4016 (LUMO)
        68                         -0.2605408              -7.0897
        69                         -0.2455933              -6.6829
        70                         -0.2409445              -6.5564
        71                         -0.2321853              -6.3181
       ...                                ...                  ...
       127                          0.7117128              19.3667
      -------------------------------------------------------------
                  HL-Gap            0.0586121 Eh            1.5949 eV
             Fermi-level           -0.3380573 Eh           -9.1990 eV

 SCC (total)                   0 d,  0 h,  0 min,  0.069 sec
 SCC setup                      ...        0 min,  0.000 sec (  0.519%)
 Dispersion                     ...        0 min,  0.001 sec (  1.188%)
 classical contributions        ...        0 min,  0.000 sec (  0.374%)
 integral evaluation            ...        0 min,  0.010 sec ( 14.032%)
 iterations                     ...        0 min,  0.051 sec ( 73.995%)
 molecular gradient             ...        0 min,  0.006 sec (  9.164%)
 printout                       ...        0 min,  0.000 sec (  0.677%)

         :::::::::::::::::::::::::::::::::::::::::::::::::::::
         ::                     SUMMARY                     ::
         :::::::::::::::::::::::::::::::::::::::::::::::::::::
         :: total energy             -73.448836455631 Eh    ::
         :: gradient norm              0.157420769989 Eh/a0 ::
         :: HOMO-LUMO gap              1.594916408118 eV    ::
         ::.................................................::
         :: SCC energy               -74.446295566402 Eh    ::
         :: -> isotropic ES            0.091563666858 Eh    ::
         :: -> anisotropic ES          0.002227884017 Eh    ::
         :: -> anisotropic XC          0.026620472045 Eh    ::
         :: -> dispersion             -0.051101786244 Eh    ::
         :: repulsion energy           0.997459110771 Eh    ::
         :: add. restraining           0.000000000000 Eh    ::
         :: total charge               0.000000000000 e     ::
         :::::::::::::::::::::::::::::::::::::::::::::::::::::

      ----------------------------------------------------------- 
     |                   =====================                   |
     |                        A N C O P T                        |
     |                   =====================                   |
     |               Approximate Normal Coordinate               |
     |                Rational Function Optimizer                |
      ----------------------------------------------------------- 
      ----------------------------------------------------------- 
     |                   =====================                   |
     |                        A N C O P T                        |
     |                   =====================                   |
     |               Approximate Normal Coordinate               |
     |                Rational Function Optimizer                |
      ----------------------------------------------------------- 

          ...................................................
          :                      SETUP                      :
          :.................................................:
          :   optimization level            normal          :
          :   max. optcycles                   200          :
          :   ANC micro-cycles                  20          :
          :   degrees of freedom               135          :
          :.................................................:
          :   RF solver                   davidson          :
          :   write xtbopt.log                true          :
          :   linear?                        false          :
          :   energy convergence         0.5000000E-05 Eh   :
          :   grad. convergence          0.1000000E-02 Eh/α :
          :   maxmium RF displ.          1.0000000          :
          :   Hlow (freq-cutoff)         0.1000000E-01      :
          :   Hmax (freq-cutoff)         5.0000000          :
          :   S6 in model hess.         20.0000000          :
          ...................................................

generating ANC from exact Hessian ...
Using Lindh-Hessian (1995)
 Shifting diagonal of input Hessian by   9.917216343734001E-003
 Lowest  eigenvalues of input Hessian
    0.000000    0.000000    0.000000    0.000000    0.000000    0.000000
    0.010000    0.010197    0.010402    0.010580    0.010724    0.011172
    0.011611    0.012219    0.012367    0.012634    0.013314    0.014415
 Highest eigenvalues
    1.976517    1.983333    2.036920    2.057452    2.092026    2.135734
 

........................................................................
.............................. CYCLE    1 ..............................
........................................................................

 iter      E             dE          RMSdq      gap      omega  full diag
   1    -74.4468800 -0.744469E+02  0.897E-05    1.59       0.0  T
   2    -74.4468800 -0.506901E-10  0.542E-05    1.59     269.3  T
   3    -74.4468800 -0.273559E-10  0.388E-05    1.59     375.6  T
     SCC iter.                  ...        0 min,  0.011 sec
     gradient                   ...        0 min,  0.014 sec
 * total energy  :   -73.4488365 Eh     change       -0.6872654E-09 Eh
   gradient norm :     0.1574218 Eh/α   predicted     0.0000000E+00 (-100.00%)
   displ. norm   :     0.4682439 α      lambda       -0.3606779E-01
   maximum displ.:     0.1668371 α      in ANC's #28, #34, #24, ...

........................................................................
.............................. CYCLE    2 ..............................
........................................................................

 iter      E             dE          RMSdq      gap      omega  full diag
   1    -74.4755702 -0.744756E+02  0.286E-01    1.70       0.0  T
   2    -74.4759911 -0.420943E-03  0.172E-01    1.70       1.0  T
   3    -74.4759620  0.291388E-04  0.686E-02    1.68       1.0  T
   4    -74.4760435 -0.815588E-04  0.219E-02    1.69       1.0  T
   5    -74.4760551 -0.116086E-04  0.857E-03    1.68       1.7  T
   6    -74.4760561 -0.100537E-05  0.408E-03    1.69       3.6  T
   7    -74.4760564 -0.259443E-06  0.190E-03    1.68       7.7  T
   8    -74.4760564 -0.395985E-07  0.884E-04    1.68      16.5  T
   9    -74.4760564 -0.435567E-08  0.317E-04    1.68      46.1  T
     SCC iter.                  ...        0 min,  0.051 sec
     gradient                   ...        0 min,  0.011 sec
 * total energy  :   -73.4742102 Eh     change       -0.2537369E-01 Eh
   gradient norm :     0.0638666 Eh/α   predicted    -0.2203327E-01 ( -13.16%)
   displ. norm   :     0.4222076 α      lambda       -0.1225251E-01
   maximum displ.:     0.1637900 α      in ANC's #24, #28, #21, ...

........................................................................
.............................. CYCLE    3 ..............................
........................................................................

 iter      E             dE          RMSdq      gap      omega  full diag
   1    -74.4900463 -0.744900E+02  0.195E-01    1.74       0.0  T
   2    -74.4902785 -0.232190E-03  0.117E-01    1.74       1.0  T
   3    -74.4902623  0.162391E-04  0.505E-02    1.72       1.0  T
   4    -74.4903041 -0.417956E-04  0.171E-02    1.73       1.0  T
   5    -74.4903144 -0.102779E-04  0.605E-03    1.72       2.4  T
   6    -74.4903151 -0.758558E-06  0.282E-03    1.73       5.2  T
   7    -74.4903152 -0.885885E-07  0.132E-03    1.73      11.1  T
   8    -74.4903152 -0.114177E-07  0.655E-04    1.73      22.3  T
   9    -74.4903152 -0.398272E-08  0.327E-04    1.73      44.6  T
     SCC iter.                  ...        0 min,  0.070 sec
     gradient                   ...        0 min,  0.009 sec
 * total energy  :   -73.4820152 Eh     change       -0.7805094E-02 Eh
   gradient norm :     0.0170292 Eh/α   predicted    -0.7218322E-02 (  -7.52%)
   displ. norm   :     0.3413989 α      lambda       -0.2918299E-02
   maximum displ.:     0.1339821 α      in ANC's #24, #17, #10, ...

........................................................................
.............................. CYCLE    4 ..............................
........................................................................

 iter      E             dE          RMSdq      gap      omega  full diag
   1    -74.4903956 -0.744904E+02  0.106E-01    1.73       0.0  T
   2    -74.4904093 -0.137055E-04  0.619E-02    1.73       1.0  T
   3    -74.4903972  0.121105E-04  0.203E-02    1.72       1.0  T
   4    -74.4904122 -0.150461E-04  0.587E-03    1.73       2.5  T
   5    -74.4904129 -0.714556E-06  0.256E-03    1.73       5.7  T
   6    -74.4904131 -0.153550E-06  0.104E-03    1.73      14.1  T
   7    -74.4904131 -0.647010E-08  0.536E-04    1.73      27.2  T
   8    -74.4904131 -0.154647E-08  0.279E-04    1.73      52.3  T
     SCC iter.                  ...        0 min,  0.089 sec
     gradient                   ...        0 min,  0.009 sec
 * total energy  :   -73.4840271 Eh     change       -0.2011891E-02 Eh
   gradient norm :     0.0110498 Eh/α   predicted    -0.1629515E-02 ( -19.01%)
   displ. norm   :     0.3063096 α      lambda       -0.1185019E-02
   maximum displ.:     0.1383486 α      in ANC's #10, #17, #8, ...

........................................................................
.............................. CYCLE    5 ..............................
........................................................................

 iter      E             dE          RMSdq      gap      omega  full diag
   1    -74.4913306 -0.744913E+02  0.882E-02    1.73       0.0  T
   2    -74.4913346 -0.401935E-05  0.504E-02    1.73       1.0  T
   3    -74.4913297  0.482394E-05  0.141E-02    1.73       1.0  T
   4    -74.4913358 -0.600868E-05  0.488E-03    1.73       3.0  T
   5    -74.4913359 -0.135733E-06  0.233E-03    1.73       6.3  T
   6    -74.4913361 -0.183973E-06  0.688E-04    1.73      21.2  T
   7    -74.4913361 -0.112383E-07  0.377E-04    1.73      38.7  T
     SCC iter.                  ...        0 min,  0.035 sec
     gradient                   ...        0 min,  0.006 sec
 * total energy  :   -73.4848290 Eh     change       -0.8018711E-03 Eh
   gradient norm :     0.0073793 Eh/α   predicted    -0.6481024E-03 ( -19.18%)
   displ. norm   :     0.2572710 α      lambda       -0.5044442E-03
   maximum displ.:     0.1456180 α      in ANC's #10, #8, #17, ...

........................................................................
.............................. CYCLE    6 ..............................
........................................................................

 iter      E             dE          RMSdq      gap      omega  full diag
   1    -74.4931886 -0.744932E+02  0.708E-02    1.73       0.0  T
   2    -74.4931912 -0.261338E-05  0.395E-02    1.74       1.0  T
   3    -74.4931900  0.128920E-05  0.918E-03    1.73       1.6  T
   4    -74.4931917 -0.177330E-05  0.448E-03    1.74       3.3  T
   5    -74.4931919 -0.146413E-06  0.208E-03    1.74       7.0  T
   6    -74.4931921 -0.172482E-06  0.453E-04    1.74      32.2  T
   7    -74.4931921 -0.360194E-08  0.251E-04    1.74      58.1  T
     SCC iter.                  ...        0 min,  0.029 sec
     gradient                   ...        0 min,  0.008 sec
 * total energy  :   -73.4851987 Eh     change       -0.3697008E-03 Eh
   gradient norm :     0.0056446 Eh/α   predicted    -0.2689177E-03 ( -27.26%)
   displ. norm   :     0.3011728 α      lambda       -0.4110340E-03
   maximum displ.:     0.1782290 α      in ANC's #10, #8, #15, ...

........................................................................
.............................. CYCLE    7 ..............................
........................................................................

 iter      E             dE          RMSdq      gap      omega  full diag
   1    -74.4950762 -0.744951E+02  0.799E-02    1.74       0.0  T
   2    -74.4950792 -0.295865E-05  0.443E-02    1.74       1.0  T
   3    -74.4950790  0.196622E-06  0.853E-03    1.74       1.7  T
   4    -74.4950797 -0.714407E-06  0.440E-03    1.74       3.3  T
   5    -74.4950799 -0.260362E-06  0.112E-03    1.74      13.0  T
   6    -74.4950800 -0.441119E-07  0.449E-04    1.74      32.5  T
   7    -74.4950800 -0.154789E-08  0.275E-04    1.74      53.1  T
     SCC iter.                  ...        0 min,  0.024 sec
     gradient                   ...        0 min,  0.009 sec
 * total energy  :   -73.4855048 Eh     change       -0.3060496E-03 Eh
   gradient norm :     0.0055336 Eh/α   predicted    -0.2241643E-03 ( -26.76%)
   displ. norm   :     0.3212514 α      lambda       -0.3400976E-03
   maximum displ.:     0.1780142 α      in ANC's #10, #8, #15, ...

........................................................................
.............................. CYCLE    8 ..............................
........................................................................

 iter      E             dE          RMSdq      gap      omega  full diag
   1    -74.4960415 -0.744960E+02  0.836E-02    1.74       0.0  T
   2    -74.4960440 -0.249243E-05  0.466E-02    1.74       1.0  T
   3    -74.4960434  0.668080E-06  0.922E-03    1.74       1.6  T
   4    -74.4960440 -0.625283E-06  0.566E-03    1.74       2.6  T
   5    -74.4960448 -0.792271E-06  0.153E-03    1.74       9.5  T
   6    -74.4960449 -0.844936E-07  0.489E-04    1.74      29.8  T
   7    -74.4960449 -0.203917E-08  0.273E-04    1.74      53.4  T
     SCC iter.                  ...        0 min,  0.045 sec
     gradient                   ...        0 min,  0.007 sec
 * total energy  :   -73.4857585 Eh     change       -0.2537643E-03 Eh
   gradient norm :     0.0055847 Eh/α   predicted    -0.1875992E-03 ( -26.07%)
   displ. norm   :     0.3118139 α      lambda       -0.2607845E-03
   maximum displ.:     0.1486809 α      in ANC's #10, #8, #2, ...

........................................................................
.............................. CYCLE    9 ..............................
........................................................................

 iter      E             dE          RMSdq      gap      omega  full diag
   1    -74.4961657 -0.744962E+02  0.808E-02    1.74       0.0  T
   2    -74.4961678 -0.203322E-05  0.456E-02    1.74       1.0  T
   3    -74.4961656  0.219565E-05  0.102E-02    1.74       1.4  T
   4    -74.4961679 -0.229629E-05  0.547E-03    1.74       2.7  T
   5    -74.4961686 -0.686701E-06  0.147E-03    1.74       9.9  T
   6    -74.4961686 -0.605430E-07  0.462E-04    1.74      31.6  T
   7    -74.4961686 -0.116312E-08  0.271E-04    1.74      53.8  T
     SCC iter.                  ...        0 min,  0.035 sec
     gradient                   ...        0 min,  0.011 sec
 * total energy  :   -73.4859436 Eh     change       -0.1850918E-03 Eh
   gradient norm :     0.0044278 Eh/α   predicted    -0.1430703E-03 ( -22.70%)
   displ. norm   :     0.2291386 α      lambda       -0.1457573E-03
   maximum displ.:     0.1022636 α      in ANC's #2, #8, #10, ...

........................................................................
.............................. CYCLE   10 ..............................
........................................................................

 iter      E             dE          RMSdq      gap      omega  full diag
   1    -74.4961219 -0.744961E+02  0.594E-02    1.73       0.0  T
   2    -74.4961231 -0.114179E-05  0.340E-02    1.73       1.0  T
   3    -74.4961216  0.145302E-05  0.745E-03    1.74       2.0  T
   4    -74.4961231 -0.153115E-05  0.368E-03    1.73       4.0  T
   5    -74.4961235 -0.330689E-06  0.119E-03    1.73      12.3  T
   6    -74.4961235 -0.351056E-07  0.336E-04    1.73      43.4  T
   7    -74.4961235 -0.425587E-09  0.195E-04    1.73      74.7  T
     SCC iter.                  ...        0 min,  0.062 sec
     gradient                   ...        0 min,  0.036 sec
 * total energy  :   -73.4860496 Eh     change       -0.1059473E-03 Eh
   gradient norm :     0.0030109 Eh/α   predicted    -0.7671214E-04 ( -27.59%)
   displ. norm   :     0.2056450 α      lambda       -0.1053378E-03
   maximum displ.:     0.1058105 α      in ANC's #2, #6, #15, ...

........................................................................
.............................. CYCLE   11 ..............................
........................................................................

 iter      E             dE          RMSdq      gap      omega  full diag
   1    -74.4957494 -0.744957E+02  0.515E-02    1.73       0.0  T
   2    -74.4957501 -0.735613E-06  0.296E-02    1.73       1.0  T
   3    -74.4957498  0.334889E-06  0.461E-03    1.73       3.2  T
   4    -74.4957501 -0.340083E-06  0.266E-03    1.73       5.5  T
   5    -74.4957503 -0.196413E-06  0.943E-04    1.73      15.5  T
   6    -74.4957503 -0.247389E-07  0.301E-04    1.73      48.5  T
     SCC iter.                  ...        0 min,  0.039 sec
     gradient                   ...        0 min,  0.008 sec
 * total energy  :   -73.4861313 Eh     change       -0.8171784E-04 Eh
   gradient norm :     0.0026721 Eh/α   predicted    -0.5490241E-04 ( -32.81%)
   displ. norm   :     0.2360288 α      lambda       -0.1147576E-03
   maximum displ.:     0.1319702 α      in ANC's #2, #1, #6, ...

........................................................................
.............................. CYCLE   12 ..............................
........................................................................

 iter      E             dE          RMSdq      gap      omega  full diag
   1    -74.4956379 -0.744956E+02  0.573E-02    1.73       0.0  T
   2    -74.4956386 -0.741548E-06  0.332E-02    1.73       1.0  T
   3    -74.4956386  0.574123E-07  0.380E-03    1.73       3.8  T
   4    -74.4956387 -0.173605E-06  0.199E-03    1.73       7.3  T
   5    -74.4956388 -0.999632E-07  0.708E-04    1.73      20.6  T
   6    -74.4956388 -0.910056E-08  0.320E-04    1.73      45.5  T
     SCC iter.                  ...        0 min,  0.031 sec
     gradient                   ...        0 min,  0.007 sec
 * total energy  :   -73.4862216 Eh     change       -0.9035626E-04 Eh
   gradient norm :     0.0030706 Eh/α   predicted    -0.6057565E-04 ( -32.96%)
   displ. norm   :     0.2994033 α      lambda       -0.1235110E-03
   maximum displ.:     0.1672411 α      in ANC's #2, #1, #15, ...

........................................................................
.............................. CYCLE   13 ..............................
........................................................................

 iter      E             dE          RMSdq      gap      omega  full diag
   1    -74.4943738 -0.744944E+02  0.708E-02    1.73       0.0  T
   2    -74.4943748 -0.100487E-05  0.412E-02    1.73       1.0  T
   3    -74.4943743  0.494252E-06  0.510E-03    1.74       2.9  T
   4    -74.4943749 -0.568309E-06  0.284E-03    1.73       5.1  T
   5    -74.4943751 -0.271852E-06  0.105E-03    1.73      13.9  T
   6    -74.4943752 -0.210832E-07  0.483E-04    1.73      30.2  T
   7    -74.4943752 -0.383824E-08  0.258E-04    1.73      56.6  T
     SCC iter.                  ...        0 min,  0.035 sec
     gradient                   ...        0 min,  0.014 sec
 * total energy  :   -73.4863149 Eh     change       -0.9322641E-04 Eh
   gradient norm :     0.0038103 Eh/α   predicted    -0.6729159E-04 ( -27.82%)
   displ. norm   :     0.2965362 α      lambda       -0.1357096E-03
   maximum displ.:     0.1791803 α      in ANC's #2, #1, #10, ...

........................................................................
.............................. CYCLE   14 ..............................
........................................................................

 iter      E             dE          RMSdq      gap      omega  full diag
   1    -74.4959106 -0.744959E+02  0.692E-02    1.74       0.0  T
   2    -74.4959116 -0.102566E-05  0.406E-02    1.74       1.0  T
   3    -74.4959098  0.175990E-05  0.664E-03    1.74       2.2  T
   4    -74.4959118 -0.200779E-05  0.269E-03    1.74       5.4  T
   5    -74.4959120 -0.200205E-06  0.118E-03    1.74      12.4  T
   6    -74.4959121 -0.221987E-07  0.516E-04    1.74      28.3  T
   7    -74.4959121 -0.443080E-08  0.254E-04    1.74      57.3  T
     SCC iter.                  ...        0 min,  0.045 sec
     gradient                   ...        0 min,  0.008 sec
 * total energy  :   -73.4864035 Eh     change       -0.8860312E-04 Eh
   gradient norm :     0.0039517 Eh/α   predicted    -0.7382713E-04 ( -16.68%)
   displ. norm   :     0.2907224 α      lambda       -0.9830816E-04
   maximum displ.:     0.1707478 α      in ANC's #2, #1, #15, ...

........................................................................
.............................. CYCLE   15 ..............................
........................................................................

 iter      E             dE          RMSdq      gap      omega  full diag
   1    -74.4945688 -0.744946E+02  0.701E-02    1.74       0.0  T
   2    -74.4945700 -0.123002E-05  0.409E-02    1.74       1.0  T
   3    -74.4945692  0.840981E-06  0.560E-03    1.74       2.6  T
   4    -74.4945702 -0.102960E-05  0.271E-03    1.74       5.4  T
   5    -74.4945704 -0.179709E-06  0.121E-03    1.74      12.1  T
   6    -74.4945705 -0.416847E-07  0.454E-04    1.74      32.1  T
   7    -74.4945705 -0.385684E-08  0.243E-04    1.74      60.0  T
     SCC iter.                  ...        0 min,  0.069 sec
     gradient                   ...        0 min,  0.007 sec
 * total energy  :   -73.4864653 Eh     change       -0.6180104E-04 Eh
   gradient norm :     0.0038141 Eh/α   predicted    -0.5330942E-04 ( -13.74%)
   displ. norm   :     0.1604963 α      lambda       -0.7035243E-04
   maximum displ.:     0.1039692 α      in ANC's #2, #1, #10, ...

........................................................................
.............................. CYCLE   16 ..............................
........................................................................

 iter      E             dE          RMSdq      gap      omega  full diag
   1    -74.4964444 -0.744964E+02  0.394E-02    1.74       0.0  T
   2    -74.4964449 -0.509423E-06  0.229E-02    1.74       1.0  T
   3    -74.4964443  0.536386E-06  0.406E-03    1.74       3.6  T
   4    -74.4964450 -0.635670E-06  0.170E-03    1.74       8.6  T
   5    -74.4964450 -0.535091E-07  0.834E-04    1.74      17.5  T
   6    -74.4964450 -0.205812E-07  0.262E-04    1.74      55.7  T
     SCC iter.                  ...        0 min,  0.039 sec
     gradient                   ...        0 min,  0.007 sec
 * total energy  :   -73.4865145 Eh     change       -0.4925101E-04 Eh
   gradient norm :     0.0024903 Eh/α   predicted    -0.3608378E-04 ( -26.73%)
   displ. norm   :     0.1537415 α      lambda       -0.4860751E-04
   maximum displ.:     0.1062044 α      in ANC's #2, #1, #8, ...

........................................................................
.............................. CYCLE   17 ..............................
........................................................................

 iter      E             dE          RMSdq      gap      omega  full diag
   1    -74.4973685 -0.744974E+02  0.401E-02    1.74       0.0  T
   2    -74.4973690 -0.521871E-06  0.230E-02    1.74       1.0  T
   3    -74.4973687  0.286398E-06  0.397E-03    1.74       3.7  T
   4    -74.4973691 -0.360702E-06  0.191E-03    1.74       7.6  T
   5    -74.4973692 -0.601920E-07  0.705E-04    1.74      20.7  T
   6    -74.4973692 -0.159403E-07  0.250E-04    1.74      58.4  T
     SCC iter.                  ...        0 min,  0.019 sec
     gradient                   ...        0 min,  0.006 sec
 * total energy  :   -73.4865495 Eh     change       -0.3497102E-04 Eh
   gradient norm :     0.0022612 Eh/α   predicted    -0.2488176E-04 ( -28.85%)
   displ. norm   :     0.1585027 α      lambda       -0.5055588E-04
   maximum displ.:     0.1091514 α      in ANC's #2, #1, #8, ...

........................................................................
.............................. CYCLE   18 ..............................
........................................................................

 iter      E             dE          RMSdq      gap      omega  full diag
   1    -74.4976956 -0.744977E+02  0.410E-02    1.74       0.0  T
   2    -74.4976961 -0.541424E-06  0.232E-02    1.74       1.0  T
   3    -74.4976959  0.249225E-06  0.421E-03    1.74       3.5  T
   4    -74.4976962 -0.315594E-06  0.220E-03    1.74       6.6  T
   5    -74.4976963 -0.886406E-07  0.728E-04    1.74      20.0  T
   6    -74.4976963 -0.198111E-07  0.248E-04    1.74      58.8  T
     SCC iter.                  ...        0 min,  0.018 sec
     gradient                   ...        0 min,  0.007 sec
 * total energy  :   -73.4865860 Eh     change       -0.3648326E-04 Eh
   gradient norm :     0.0026092 Eh/α   predicted    -0.2591710E-04 ( -28.96%)
   displ. norm   :     0.1699095 α      lambda       -0.5259962E-04
   maximum displ.:     0.1182603 α      in ANC's #2, #1, #8, ...

........................................................................
.............................. CYCLE   19 ..............................
........................................................................

 iter      E             dE          RMSdq      gap      omega  full diag
   1    -74.4979696 -0.744980E+02  0.429E-02    1.75       0.0  T
   2    -74.4979702 -0.598491E-06  0.241E-02    1.74       1.0  T
   3    -74.4979701  0.150373E-06  0.411E-03    1.74       3.6  T
   4    -74.4979703 -0.236925E-06  0.213E-03    1.74       6.8  T
   5    -74.4979704 -0.101201E-06  0.505E-04    1.74      28.9  T
   6    -74.4979704 -0.761949E-08  0.228E-04    1.74      64.0  T
     SCC iter.                  ...        0 min,  0.019 sec
     gradient                   ...        0 min,  0.006 sec
 * total energy  :   -73.4866282 Eh     change       -0.4221408E-04 Eh
   gradient norm :     0.0028617 Eh/α   predicted    -0.2705970E-04 ( -35.90%)
   displ. norm   :     0.1929690 α      lambda       -0.5765108E-04
   maximum displ.:     0.1341648 α      in ANC's #2, #1, #8, ...

........................................................................
.............................. CYCLE   20 ..............................
........................................................................

 iter      E             dE          RMSdq      gap      omega  full diag
   1    -74.4971203 -0.744971E+02  0.482E-02    1.74       0.0  T
   2    -74.4971211 -0.810311E-06  0.271E-02    1.74       1.0  T
   3    -74.4971207  0.399941E-06  0.509E-03    1.74       2.9  T
   4    -74.4971212 -0.467231E-06  0.282E-03    1.74       5.2  T
   5    -74.4971213 -0.174263E-06  0.924E-04    1.74      15.8  T
   6    -74.4971214 -0.298496E-07  0.284E-04    1.74      51.3  T
     SCC iter.                  ...        0 min,  0.021 sec
     gradient                   ...        0 min,  0.007 sec
 * total energy  :   -73.4866748 Eh     change       -0.4662257E-04 Eh
   gradient norm :     0.0026477 Eh/α   predicted    -0.2990188E-04 ( -35.86%)
   displ. norm   :     0.2105246 α      lambda       -0.5887745E-04
   maximum displ.:     0.1450351 α      in ANC's #2, #1, #8, ...
 * RMSD in coord.:     0.5380563 α      energy gain  -0.3783835E-01 Eh

generating ANC from exact Hessian ...
Using Lindh-Hessian (1995)
 Shifting diagonal of input Hessian by   9.915775967768286E-003
 Lowest  eigenvalues of input Hessian
    0.000000    0.000000    0.000000    0.000000    0.000000    0.000000
    0.010000    0.010194    0.010359    0.010557    0.010685    0.011208
    0.011601    0.011963    0.012223    0.012426    0.012749    0.014517
 Highest eigenvalues
    1.936016    1.980588    2.010206    2.017219    2.085845    2.210398
 

........................................................................
.............................. CYCLE   21 ..............................
........................................................................

 iter      E             dE          RMSdq      gap      omega  full diag
   1    -74.4971798 -0.744972E+02  0.489E-02    1.74       0.0  T
   2    -74.4971808 -0.966700E-06  0.275E-02    1.74       1.0  T
   3    -74.4971802  0.575670E-06  0.549E-03    1.74       2.7  T
   4    -74.4971808 -0.642218E-06  0.299E-03    1.74       4.9  T
   5    -74.4971810 -0.197067E-06  0.967E-04    1.74      15.1  T
   6    -74.4971811 -0.338534E-07  0.320E-04    1.74      45.5  T
     SCC iter.                  ...        0 min,  0.039 sec
     gradient                   ...        0 min,  0.008 sec
 * total energy  :   -73.4867227 Eh     change       -0.4789280E-04 Eh
   gradient norm :     0.0023222 Eh/α   predicted     0.0000000E+00 (-100.00%)
   displ. norm   :     0.0378308 α      lambda       -0.2661692E-04
   maximum displ.:     0.0231477 α      in ANC's #2, #14, #3, ...

........................................................................
.............................. CYCLE   22 ..............................
........................................................................

 iter      E             dE          RMSdq      gap      omega  full diag
   1    -74.4972100 -0.744972E+02  0.768E-03    1.74       0.0  T
   2    -74.4972100 -0.683107E-07  0.450E-03    1.74       3.2  T
   3    -74.4972100  0.867161E-07  0.163E-03    1.74       8.9  T
   4    -74.4972101 -0.103012E-06  0.571E-04    1.74      25.5  T
   5    -74.4972101 -0.706068E-08  0.266E-04    1.74      54.9  T
     SCC iter.                  ...        0 min,  0.039 sec
     gradient                   ...        0 min,  0.009 sec
 * total energy  :   -73.4867458 Eh     change       -0.2308381E-04 Eh
   gradient norm :     0.0011335 Eh/α   predicted    -0.1337910E-04 ( -42.04%)
   displ. norm   :     0.1922543 α      lambda       -0.6307039E-04
   maximum displ.:     0.1138028 α      in ANC's #2, #14, #3, ...

........................................................................
.............................. CYCLE   23 ..............................
........................................................................

 iter      E             dE          RMSdq      gap      omega  full diag
   1    -74.4971246 -0.744971E+02  0.357E-02    1.74       0.0  T
   2    -74.4971254 -0.795205E-06  0.206E-02    1.74       1.0  T
   3    -74.4971240  0.137114E-05  0.633E-03    1.74       2.3  T
   4    -74.4971256 -0.160598E-05  0.244E-03    1.74       6.0  T
   5    -74.4971257 -0.933502E-07  0.102E-03    1.74      14.3  T
   6    -74.4971258 -0.296268E-07  0.356E-04    1.74      40.9  T
   7    -74.4971258 -0.193069E-08  0.202E-04    1.74      72.2  T
     SCC iter.                  ...        0 min,  0.047 sec
     gradient                   ...        0 min,  0.009 sec
 * total energy  :   -73.4867974 Eh     change       -0.5159102E-04 Eh
   gradient norm :     0.0032021 Eh/α   predicted    -0.3205507E-04 ( -37.87%)
   displ. norm   :     0.0616564 α      lambda       -0.2298131E-04
   maximum displ.:     0.0399988 α      in ANC's #2, #3, #14, ...

........................................................................
.............................. CYCLE   24 ..............................
........................................................................

 iter      E             dE          RMSdq      gap      omega  full diag
   1    -74.4971701 -0.744972E+02  0.123E-02    1.74       0.0  T
   2    -74.4971702 -0.714995E-07  0.671E-03    1.74       2.2  T
   3    -74.4971702  0.184143E-08  0.127E-03    1.74      11.5  T
   4    -74.4971702 -0.685796E-08  0.701E-04    1.74      20.8  T
   5    -74.4971702 -0.103102E-07  0.254E-04    1.74      57.5  T
     SCC iter.                  ...        0 min,  0.034 sec
     gradient                   ...        0 min,  0.007 sec
 * total energy  :   -73.4868188 Eh     change       -0.2145688E-04 Eh
   gradient norm :     0.0027206 Eh/α   predicted    -0.1153641E-04 ( -46.23%)
   displ. norm   :     0.1808625 α      lambda       -0.7178968E-04
   maximum displ.:     0.1131178 α      in ANC's #2, #3, #1, ...

........................................................................
.............................. CYCLE   25 ..............................
........................................................................

 iter      E             dE          RMSdq      gap      omega  full diag
   1    -74.4970977 -0.744971E+02  0.381E-02    1.74       0.0  T
   2    -74.4970985 -0.809057E-06  0.205E-02    1.74       1.0  T
   3    -74.4970985 -0.198086E-07  0.401E-03    1.74       3.6  T
   4    -74.4970986 -0.109261E-06  0.196E-03    1.74       7.4  T
   5    -74.4970987 -0.480664E-07  0.493E-04    1.74      29.6  T
   6    -74.4970987 -0.113491E-07  0.172E-04    1.74      85.0  T
     SCC iter.                  ...        0 min,  0.040 sec
     gradient                   ...        0 min,  0.009 sec
 * total energy  :   -73.4868768 Eh     change       -0.5792125E-04 Eh
   gradient norm :     0.0011523 Eh/α   predicted    -0.3708279E-04 ( -35.98%)
   displ. norm   :     0.3897556 α      lambda       -0.6852092E-04
   maximum displ.:     0.2443237 α      in ANC's #2, #3, #1, ...

........................................................................
.............................. CYCLE   26 ..............................
........................................................................

 iter      E             dE          RMSdq      gap      omega  full diag
   1    -74.4957720 -0.744958E+02  0.821E-02    1.74       0.0  T
   2    -74.4957753 -0.328510E-05  0.436E-02    1.74       1.0  T
   3    -74.4957754 -0.131730E-06  0.842E-03    1.74       1.7  T
   4    -74.4957755 -0.650852E-07  0.468E-03    1.74       3.1  T
   5    -74.4957761 -0.557682E-06  0.146E-03    1.74      10.0  T
   6    -74.4957762 -0.961175E-07  0.411E-04    1.74      35.5  T
   7    -74.4957762 -0.159640E-08  0.244E-04    1.74      59.8  T
     SCC iter.                  ...        0 min,  0.030 sec
     gradient                   ...        0 min,  0.009 sec
 * total energy  :   -73.4869422 Eh     change       -0.6542315E-04 Eh
   gradient norm :     0.0033235 Eh/α   predicted    -0.3658330E-04 ( -44.08%)
   displ. norm   :     0.1317458 α      lambda       -0.3815816E-04
   maximum displ.:     0.0870521 α      in ANC's #2, #3, #1, ...

........................................................................
.............................. CYCLE   27 ..............................
........................................................................

 iter      E             dE          RMSdq      gap      omega  full diag
   1    -74.4964516 -0.744965E+02  0.297E-02    1.74       0.0  T
   2    -74.4964520 -0.444245E-06  0.156E-02    1.74       1.0  T
   3    -74.4964520  0.157444E-07  0.311E-03    1.74       4.7  T
   4    -74.4964520  0.165712E-07  0.204E-03    1.74       7.2  T
   5    -74.4964521 -0.148053E-06  0.474E-04    1.74      30.8  T
   6    -74.4964521 -0.769826E-08  0.166E-04    1.74      87.8  T
     SCC iter.                  ...        0 min,  0.026 sec
     gradient                   ...        0 min,  0.006 sec
 * total energy  :   -73.4869758 Eh     change       -0.3365758E-04 Eh
   gradient norm :     0.0026489 Eh/α   predicted    -0.1941558E-04 ( -42.31%)
   displ. norm   :     0.2444878 α      lambda       -0.6927557E-04
   maximum displ.:     0.1607863 α      in ANC's #2, #3, #1, ...

........................................................................
.............................. CYCLE   28 ..............................
........................................................................

 iter      E             dE          RMSdq      gap      omega  full diag
   1    -74.4974938 -0.744975E+02  0.562E-02    1.74       0.0  T
   2    -74.4974954 -0.160087E-05  0.297E-02    1.74       1.0  T
   3    -74.4974951  0.239724E-06  0.614E-03    1.74       2.4  T
   4    -74.4974953 -0.179994E-06  0.397E-03    1.74       3.7  T
   5    -74.4974958 -0.497181E-06  0.101E-03    1.74      14.4  T
   6    -74.4974958 -0.390699E-07  0.310E-04    1.74      47.1  T
   7    -74.4974958 -0.130308E-08  0.172E-04    1.74      85.0  T
     SCC iter.                  ...        0 min,  0.025 sec
     gradient                   ...        0 min,  0.006 sec
 * total energy  :   -73.4870341 Eh     change       -0.5823751E-04 Eh
   gradient norm :     0.0015026 Eh/α   predicted    -0.3670840E-04 ( -36.97%)
   displ. norm   :     0.5192996 α      lambda       -0.7460163E-04
   maximum displ.:     0.3429154 α      in ANC's #2, #3, #1, ...

........................................................................
.............................. CYCLE   29 ..............................
........................................................................

 iter      E             dE          RMSdq      gap      omega  full diag
   1    -74.4968291 -0.744968E+02  0.120E-01    1.75       0.0  T
   2    -74.4968361 -0.698549E-05  0.638E-02    1.75       1.0  T
   3    -74.4968358  0.308011E-06  0.126E-02    1.75       1.2  T
   4    -74.4968358 -0.221663E-07  0.786E-03    1.74       1.9  T
   5    -74.4968380 -0.217413E-05  0.186E-03    1.75       7.8  T
   6    -74.4968381 -0.130955E-06  0.645E-04    1.75      22.6  T
   7    -74.4968381 -0.556025E-08  0.351E-04    1.75      41.5  T
     SCC iter.                  ...        0 min,  0.023 sec
     gradient                   ...        0 min,  0.006 sec
 * total energy  :   -73.4871179 Eh     change       -0.8379952E-04 Eh
   gradient norm :     0.0025300 Eh/α   predicted    -0.4177328E-04 ( -50.15%)
   displ. norm   :     0.2370775 α      lambda       -0.5565351E-04
   maximum displ.:     0.1615029 α      in ANC's #2, #1, #3, ...

........................................................................
.............................. CYCLE   30 ..............................
........................................................................

 iter      E             dE          RMSdq      gap      omega  full diag
   1    -74.4977374 -0.744977E+02  0.573E-02    1.75       0.0  T
   2    -74.4977389 -0.144189E-05  0.308E-02    1.75       1.0  T
   3    -74.4977390 -0.963142E-07  0.568E-03    1.75       2.6  T
   4    -74.4977389  0.780747E-07  0.313E-03    1.74       4.7  T
   5    -74.4977393 -0.388373E-06  0.420E-04    1.75      34.7  T
   6    -74.4977393 -0.253218E-08  0.240E-04    1.75      60.9  T
     SCC iter.                  ...        0 min,  0.019 sec
     gradient                   ...        0 min,  0.007 sec
 * total energy  :   -73.4871658 Eh     change       -0.4794568E-04 Eh
   gradient norm :     0.0026253 Eh/α   predicted    -0.2939216E-04 ( -38.70%)
   displ. norm   :     0.3575750 α      lambda       -0.7858821E-04
   maximum displ.:     0.2442668 α      in ANC's #2, #1, #3, ...

........................................................................
.............................. CYCLE   31 ..............................
........................................................................

 iter      E             dE          RMSdq      gap      omega  full diag
   1    -74.4981209 -0.744981E+02  0.850E-02    1.75       0.0  T
   2    -74.4981239 -0.297965E-05  0.459E-02    1.75       1.0  T
   3    -74.4981241 -0.208547E-06  0.830E-03    1.74       1.8  T
   4    -74.4981239  0.207865E-06  0.461E-03    1.74       3.2  T
   5    -74.4981247 -0.837976E-06  0.726E-04    1.74      20.1  T
   6    -74.4981247 -0.107149E-07  0.407E-04    1.74      35.8  T
     SCC iter.                  ...        0 min,  0.032 sec
     gradient                   ...        0 min,  0.008 sec
 * total energy  :   -73.4872366 Eh     change       -0.7080483E-04 Eh
   gradient norm :     0.0021965 Eh/α   predicted    -0.4432036E-04 ( -37.40%)
   displ. norm   :     0.4301481 α      lambda       -0.9330254E-04
   maximum displ.:     0.2956960 α      in ANC's #2, #1, #3, ...

........................................................................
.............................. CYCLE   32 ..............................
........................................................................

 iter      E             dE          RMSdq      gap      omega  full diag
   1    -74.4977268 -0.744977E+02  0.102E-01    1.75       0.0  T
   2    -74.4977310 -0.414472E-05  0.554E-02    1.74       1.0  T
   3    -74.4977312 -0.184707E-06  0.993E-03    1.74       1.5  T
   4    -74.4977309  0.227852E-06  0.573E-03    1.74       2.5  T
   5    -74.4977321 -0.118465E-05  0.115E-03    1.74      12.6  T
   6    -74.4977322 -0.430920E-07  0.499E-04    1.74      29.3  T
   7    -74.4977322 -0.280755E-08  0.270E-04    1.74      54.1  T
     SCC iter.                  ...        0 min,  0.021 sec
     gradient                   ...        0 min,  0.006 sec
 * total energy  :   -73.4873201 Eh     change       -0.8348816E-04 Eh
   gradient norm :     0.0020183 Eh/α   predicted    -0.5528692E-04 ( -33.78%)
   displ. norm   :     0.4924708 α      lambda       -0.1075662E-03
   maximum displ.:     0.3409630 α      in ANC's #2, #1, #3, ...

........................................................................
.............................. CYCLE   33 ..............................
........................................................................

 iter      E             dE          RMSdq      gap      omega  full diag
   1    -74.4975701 -0.744976E+02  0.117E-01    1.75       0.0  T
   2    -74.4975752 -0.509320E-05  0.639E-02    1.74       1.0  T
   3    -74.4975754 -0.218938E-06  0.111E-02    1.74       1.3  T
   4    -74.4975752  0.242437E-06  0.623E-03    1.74       2.3  T
   5    -74.4975766 -0.144074E-05  0.120E-03    1.74      12.1  T
   6    -74.4975767 -0.426961E-07  0.555E-04    1.74      26.3  T
   7    -74.4975767 -0.269377E-08  0.319E-04    1.74      45.7  T
     SCC iter.                  ...        0 min,  0.025 sec
     gradient                   ...        0 min,  0.007 sec
 * total energy  :   -73.4874123 Eh     change       -0.9222089E-04 Eh
   gradient norm :     0.0024861 Eh/α   predicted    -0.6682739E-04 ( -27.54%)
   displ. norm   :     0.5400236 α      lambda       -0.1074942E-03
   maximum displ.:     0.3766222 α      in ANC's #2, #1, #3, ...

........................................................................
.............................. CYCLE   34 ..............................
........................................................................

 iter      E             dE          RMSdq      gap      omega  full diag
   1    -74.4969175 -0.744969E+02  0.128E-01    1.75       0.0  T
   2    -74.4969234 -0.591712E-05  0.702E-02    1.74       1.0  T
   3    -74.4969236 -0.177045E-06  0.120E-02    1.74       1.2  T
   4    -74.4969234  0.159998E-06  0.668E-03    1.74       2.2  T
   5    -74.4969251 -0.165384E-05  0.120E-03    1.74      12.1  T
   6    -74.4969251 -0.379567E-07  0.569E-04    1.74      25.6  T
   7    -74.4969251 -0.796902E-09  0.350E-04    1.74      41.7  T
     SCC iter.                  ...        0 min,  0.022 sec
     gradient                   ...        0 min,  0.006 sec
 * total energy  :   -73.4875023 Eh     change       -0.9000079E-04 Eh
   gradient norm :     0.0032103 Eh/α   predicted    -0.6942184E-04 ( -22.87%)
   displ. norm   :     0.5742251 α      lambda       -0.1264004E-03
   maximum displ.:     0.4030803 α      in ANC's #2, #1, #3, ...

........................................................................
.............................. CYCLE   35 ..............................
........................................................................

 iter      E             dE          RMSdq      gap      omega  full diag
   1    -74.4979633 -0.744980E+02  0.137E-01    1.75       0.0  T
   2    -74.4979694 -0.606377E-05  0.753E-02    1.74       1.0  T
   3    -74.4979695 -0.688311E-07  0.124E-02    1.74       1.2  T
   4    -74.4979693  0.117791E-06  0.677E-03    1.74       2.2  T
   5    -74.4979711 -0.180876E-05  0.113E-03    1.74      12.9  T
   6    -74.4979712 -0.310633E-07  0.568E-04    1.74      25.7  T
   7    -74.4979712 -0.556838E-09  0.264E-04    1.74      55.3  T
     SCC iter.                  ...        0 min,  0.023 sec
     gradient                   ...        0 min,  0.007 sec
 * total energy  :   -73.4876001 Eh     change       -0.9774674E-04 Eh
   gradient norm :     0.0035306 Eh/α   predicted    -0.8404319E-04 ( -14.02%)
   displ. norm   :     0.6515047 α      lambda       -0.1224215E-03
   maximum displ.:     0.4628573 α      in ANC's #2, #1, #3, ...

........................................................................
.............................. CYCLE   36 ..............................
........................................................................

 iter      E             dE          RMSdq      gap      omega  full diag
   1    -74.4946297 -0.744946E+02  0.156E-01    1.75       0.0  T
   2    -74.4946390 -0.932344E-05  0.853E-02    1.75       1.0  T
   3    -74.4946389  0.109746E-06  0.150E-02    1.75       1.0  T
   4    -74.4946394 -0.502280E-06  0.826E-03    1.75       1.8  T
   5    -74.4946415 -0.212563E-05  0.179E-03    1.75       8.1  T
   6    -74.4946416 -0.106954E-06  0.649E-04    1.75      22.5  T
   7    -74.4946416 -0.115080E-09  0.366E-04    1.75      39.9  T
     SCC iter.                  ...        0 min,  0.022 sec
     gradient                   ...        0 min,  0.006 sec
 * total energy  :   -73.4876747 Eh     change       -0.7459743E-04 Eh
   gradient norm :     0.0051217 Eh/α   predicted    -0.8719349E-04 (  16.89%)
   displ. norm   :     0.3787765 α      lambda       -0.2150532E-03
   maximum displ.:     0.2574706 α      in ANC's #2, #1, #3, ...

........................................................................
.............................. CYCLE   37 ..............................
........................................................................

 iter      E             dE          RMSdq      gap      omega  full diag
   1    -74.4993128 -0.744993E+02  0.889E-02    1.75       0.0  T
   2    -74.4993162 -0.338290E-05  0.498E-02    1.75       1.0  T
   3    -74.4993127  0.343414E-05  0.111E-02    1.76       1.3  T
   4    -74.4993165 -0.381509E-05  0.552E-03    1.75       2.6  T
   5    -74.4993172 -0.658228E-06  0.220E-03    1.75       6.6  T
   6    -74.4993174 -0.165626E-06  0.520E-04    1.75      28.1  T
   7    -74.4993174 -0.429186E-08  0.291E-04    1.75      50.1  T
     SCC iter.                  ...        0 min,  0.021 sec
     gradient                   ...        0 min,  0.006 sec
 * total energy  :   -73.4878043 Eh     change       -0.1295853E-03 Eh
   gradient norm :     0.0035343 Eh/α   predicted    -0.1229547E-03 (  -5.12%)
   displ. norm   :     0.5895001 α      lambda       -0.1325052E-03
   maximum displ.:     0.4196736 α      in ANC's #2, #1, #3, ...

........................................................................
.............................. CYCLE   38 ..............................
........................................................................

 iter      E             dE          RMSdq      gap      omega  full diag
   1    -74.4969559 -0.744970E+02  0.145E-01    1.76       0.0  T
   2    -74.4969633 -0.743674E-05  0.793E-02    1.76       1.0  T
   3    -74.4969631  0.227142E-06  0.136E-02    1.76       1.1  T
   4    -74.4969637 -0.601937E-06  0.733E-03    1.76       2.0  T
   5    -74.4969653 -0.160513E-05  0.174E-03    1.76       8.4  T
   6    -74.4969654 -0.109177E-06  0.598E-04    1.76      24.4  T
   7    -74.4969654 -0.519464E-09  0.321E-04    1.76      45.5  T
     SCC iter.                  ...        0 min,  0.021 sec
     gradient                   ...        0 min,  0.007 sec
 * total energy  :   -73.4878975 Eh     change       -0.9326560E-04 Eh
   gradient norm :     0.0042193 Eh/α   predicted    -0.8928287E-04 (  -4.27%)
   displ. norm   :     0.3373479 α      lambda       -0.9870789E-04
   maximum displ.:     0.2330295 α      in ANC's #2, #1, #3, ...

........................................................................
.............................. CYCLE   39 ..............................
........................................................................

 iter      E             dE          RMSdq      gap      omega  full diag
   1    -74.4973826 -0.744974E+02  0.810E-02    1.77       0.0  T
   2    -74.4973849 -0.229435E-05  0.443E-02    1.77       1.0  T
   3    -74.4973847  0.182267E-06  0.771E-03    1.77       1.9  T
   4    -74.4973849 -0.157557E-06  0.433E-03    1.77       3.4  T
   5    -74.4973855 -0.592744E-06  0.134E-03    1.77      10.9  T
   6    -74.4973856 -0.701488E-07  0.406E-04    1.77      35.9  T
   7    -74.4973856 -0.260991E-08  0.222E-04    1.77      65.7  T
     SCC iter.                  ...        0 min,  0.021 sec
     gradient                   ...        0 min,  0.007 sec
 * total energy  :   -73.4879689 Eh     change       -0.7138242E-04 Eh
   gradient norm :     0.0037889 Eh/α   predicted    -0.5497143E-04 ( -22.99%)
   displ. norm   :     0.3350629 α      lambda       -0.8124213E-04
   maximum displ.:     0.2359223 α      in ANC's #2, #1, #3, ...

........................................................................
.............................. CYCLE   40 ..............................
........................................................................

 iter      E             dE          RMSdq      gap      omega  full diag
   1    -74.4978797 -0.744979E+02  0.798E-02    1.77       0.0  T
   2    -74.4978821 -0.230504E-05  0.434E-02    1.77       1.0  T
   3    -74.4978822 -0.109444E-06  0.754E-03    1.77       1.9  T
   4    -74.4978822 -0.500889E-07  0.396E-03    1.77       3.7  T
   5    -74.4978827 -0.461250E-06  0.694E-04    1.77      21.0  T
   6    -74.4978827 -0.122025E-07  0.341E-04    1.77      42.8  T
     SCC iter.                  ...        0 min,  0.018 sec
     gradient                   ...        0 min,  0.007 sec
 * total energy  :   -73.4880251 Eh     change       -0.5620219E-04 Eh
   gradient norm :     0.0034252 Eh/α   predicted    -0.4518386E-04 ( -19.60%)
   displ. norm   :     0.1943910 α      lambda       -0.5845661E-04
   maximum displ.:     0.1266820 α      in ANC's #2, #1, #9, ...

........................................................................
.............................. CYCLE   41 ..............................
........................................................................

 iter      E             dE          RMSdq      gap      omega  full diag
   1    -74.4997281 -0.744997E+02  0.463E-02    1.77       0.0  T
   2    -74.4997293 -0.116312E-05  0.251E-02    1.77       1.0  T
   3    -74.4997292  0.632761E-07  0.479E-03    1.77       3.0  T
   4    -74.4997293 -0.757775E-07  0.282E-03    1.77       5.2  T
   5    -74.4997295 -0.196257E-06  0.962E-04    1.77      15.2  T
   6    -74.4997295 -0.339924E-07  0.269E-04    1.77      54.2  T
     SCC iter.                  ...        0 min,  0.046 sec
     gradient                   ...        0 min,  0.007 sec
 * total energy  :   -73.4880583 Eh     change       -0.3314628E-04 Eh
   gradient norm :     0.0024821 Eh/α   predicted    -0.3033294E-04 (  -8.49%)
   displ. norm   :     0.4948197 α      lambda       -0.6155584E-04
   maximum displ.:     0.3633851 α      in ANC's #2, #1, #3, ...

........................................................................
.............................. CYCLE   42 ..............................
........................................................................

 iter      E             dE          RMSdq      gap      omega  full diag
   1    -74.4956982 -0.744957E+02  0.123E-01    1.77       0.0  T
   2    -74.4957040 -0.581247E-05  0.666E-02    1.77       1.0  T
   3    -74.4957041 -0.130491E-06  0.119E-02    1.77       1.2  T
   4    -74.4957040  0.171354E-06  0.711E-03    1.77       2.1  T
   5    -74.4957054 -0.141415E-05  0.215E-03    1.77       6.8  T
   6    -74.4957055 -0.170729E-06  0.589E-04    1.77      24.8  T
   7    -74.4957055 -0.456090E-08  0.346E-04    1.77      42.2  T
     SCC iter.                  ...        0 min,  0.023 sec
     gradient                   ...        0 min,  0.006 sec
 * total energy  :   -73.4880735 Eh     change       -0.1523175E-04 Eh
   gradient norm :     0.0044079 Eh/α   predicted    -0.3831490E-04 ( 151.55%)
   displ. norm   :     0.1245154 α      lambda       -0.5331730E-04
   maximum displ.:     0.0810890 α      in ANC's #2, #1, #3, ...
 * RMSD in coord.:     0.9682457 α      energy gain  -0.1398682E-02 Eh

generating ANC from exact Hessian ...
Using Lindh-Hessian (1995)
 Shifting diagonal of input Hessian by   9.902619494553407E-003
 Lowest  eigenvalues of input Hessian
    0.000000    0.000000    0.000000    0.000000    0.000000    0.000000
    0.010000    0.010180    0.010310    0.010547    0.010663    0.011244
    0.011552    0.012067    0.012260    0.012391    0.012832    0.014492
 Highest eigenvalues
    1.936782    1.984936    2.010065    2.021229    2.083578    2.210804
 

........................................................................
.............................. CYCLE   43 ..............................
........................................................................

 iter      E             dE          RMSdq      gap      omega  full diag
   1    -74.4989677 -0.744990E+02  0.337E-02    1.77       0.0  T
   2    -74.4989683 -0.600599E-06  0.188E-02    1.77       1.0  T
   3    -74.4989682  0.177559E-06  0.392E-03    1.77       3.7  T
   4    -74.4989684 -0.284334E-06  0.187E-03    1.77       7.8  T
   5    -74.4989685 -0.298861E-07  0.809E-04    1.77      18.0  T
   6    -74.4989685 -0.235063E-07  0.189E-04    1.77      77.3  T
     SCC iter.                  ...        0 min,  0.021 sec
     gradient                   ...        0 min,  0.005 sec
 * total energy  :   -73.4881026 Eh     change       -0.2909537E-04 Eh
   gradient norm :     0.0025644 Eh/α   predicted     0.0000000E+00 (-100.00%)
   displ. norm   :     0.0279119 α      lambda       -0.6789266E-05
   maximum displ.:     0.0120232 α      in ANC's #2, #11, #7, ...

........................................................................
.............................. CYCLE   44 ..............................
........................................................................

 iter      E             dE          RMSdq      gap      omega  full diag
   1    -74.4995296 -0.744995E+02  0.915E-03    1.77       0.0  T
   2    -74.4995297 -0.717400E-07  0.539E-03    1.77       2.7  T
   3    -74.4995297  0.157462E-07  0.107E-03    1.77      13.7  T
   4    -74.4995297 -0.259420E-07  0.475E-04    1.77      30.7  T
   5    -74.4995297 -0.364523E-08  0.252E-04    1.77      57.9  T
     SCC iter.                  ...        0 min,  0.014 sec
     gradient                   ...        0 min,  0.005 sec
 * total energy  :   -73.4881197 Eh     change       -0.1710818E-04 Eh
   gradient norm :     0.0010789 Eh/α   predicted    -0.1104061E-04 ( -35.47%)
   displ. norm   :     0.0999753 α      lambda       -0.2597297E-04
   maximum displ.:     0.0460955 α      in ANC's #2, #11, #7, ...

........................................................................
.............................. CYCLE   45 ..............................
........................................................................

 iter      E             dE          RMSdq      gap      omega  full diag
   1    -74.5002769 -0.745003E+02  0.286E-02    1.77       0.0  T
   2    -74.5002773 -0.402415E-06  0.163E-02    1.77       1.0  T
   3    -74.5002773 -0.144242E-07  0.265E-03    1.77       5.5  T
   4    -74.5002773 -0.613848E-07  0.129E-03    1.77      11.3  T
   5    -74.5002774 -0.219342E-07  0.464E-04    1.77      31.4  T
   6    -74.5002774 -0.503839E-08  0.192E-04    1.77      75.9  T
     SCC iter.                  ...        0 min,  0.036 sec
     gradient                   ...        0 min,  0.008 sec
 * total energy  :   -73.4881412 Eh     change       -0.2150755E-04 Eh
   gradient norm :     0.0020402 Eh/α   predicted    -0.1304455E-04 ( -39.35%)
   displ. norm   :     0.0527971 α      lambda       -0.1360567E-04
   maximum displ.:     0.0264608 α      in ANC's #2, #7, #11, ...

........................................................................
.............................. CYCLE   46 ..............................
........................................................................

 iter      E             dE          RMSdq      gap      omega  full diag
   1    -74.5001000 -0.745001E+02  0.143E-02    1.77       0.0  T
   2    -74.5001000 -0.673222E-07  0.802E-03    1.77       1.8  T
   3    -74.5001000 -0.180624E-08  0.132E-03    1.77      11.1  T
   4    -74.5001000  0.635112E-08  0.803E-04    1.77      18.2  T
   5    -74.5001000 -0.247604E-07  0.188E-04    1.77      77.5  T
     SCC iter.                  ...        0 min,  0.019 sec
     gradient                   ...        0 min,  0.006 sec
 * total energy  :   -73.4881540 Eh     change       -0.1275191E-04 Eh
   gradient norm :     0.0019146 Eh/α   predicted    -0.6933940E-05 ( -45.62%)
   displ. norm   :     0.3150338 α      lambda       -0.5204291E-04
   maximum displ.:     0.1548064 α      in ANC's #2, #7, #11, ...

........................................................................
.............................. CYCLE   47 ..............................
........................................................................

 iter      E             dE          RMSdq      gap      omega  full diag
   1    -74.4982138 -0.744982E+02  0.850E-02    1.76       0.0  T
   2    -74.4982162 -0.241116E-05  0.475E-02    1.76       1.0  T
   3    -74.4982161  0.154999E-06  0.814E-03    1.76       1.8  T
   4    -74.4982161  0.345332E-08  0.507E-03    1.76       2.9  T
   5    -74.4982169 -0.867085E-06  0.129E-03    1.76      11.3  T
   6    -74.4982170 -0.480383E-07  0.532E-04    1.76      27.4  T
   7    -74.4982170 -0.429290E-08  0.271E-04    1.76      53.8  T
     SCC iter.                  ...        0 min,  0.020 sec
     gradient                   ...        0 min,  0.007 sec
 * total energy  :   -73.4881941 Eh     change       -0.4015053E-04 Eh
   gradient norm :     0.0026409 Eh/α   predicted    -0.2717191E-04 ( -32.32%)
   displ. norm   :     0.0417810 α      lambda       -0.1496790E-04
   maximum displ.:     0.0236715 α      in ANC's #2, #8, #3, ...

........................................................................
.............................. CYCLE   48 ..............................
........................................................................

 iter      E             dE          RMSdq      gap      omega  full diag
   1    -74.4987739 -0.744988E+02  0.114E-02    1.76       0.0  T
   2    -74.4987739 -0.530907E-07  0.632E-03    1.76       2.3  T
   3    -74.4987739  0.838931E-08  0.109E-03    1.76      13.4  T
   4    -74.4987739 -0.962886E-08  0.618E-04    1.76      23.6  T
   5    -74.4987739 -0.113312E-07  0.119E-04    1.76     122.7  T
     SCC iter.                  ...        0 min,  0.014 sec
     gradient                   ...        0 min,  0.009 sec
 * total energy  :   -73.4882070 Eh     change       -0.1289273E-04 Eh
   gradient norm :     0.0016365 Eh/α   predicted    -0.7497560E-05 ( -41.85%)
   displ. norm   :     0.2374758 α      lambda       -0.4006827E-04
   maximum displ.:     0.1334790 α      in ANC's #2, #8, #5, ...

........................................................................
.............................. CYCLE   49 ..............................
........................................................................

 iter      E             dE          RMSdq      gap      omega  full diag
   1    -74.5003996 -0.745004E+02  0.634E-02    1.76       0.0  T
   2    -74.5004010 -0.139257E-05  0.350E-02    1.76       1.0  T
   3    -74.5004011 -0.192228E-07  0.570E-03    1.77       2.6  T
   4    -74.5004011 -0.180133E-07  0.310E-03    1.77       4.7  T
   5    -74.5004014 -0.298843E-06  0.556E-04    1.77      26.2  T
   6    -74.5004014 -0.746938E-08  0.258E-04    1.77      56.6  T
     SCC iter.                  ...        0 min,  0.023 sec
     gradient                   ...        0 min,  0.007 sec
 * total energy  :   -73.4882434 Eh     change       -0.3642269E-04 Eh
   gradient norm :     0.0029340 Eh/α   predicted    -0.2055771E-04 ( -43.56%)
   displ. norm   :     0.1746355 α      lambda       -0.2441770E-04
   maximum displ.:     0.0984590 α      in ANC's #2, #7, #5, ...

........................................................................
.............................. CYCLE   50 ..............................
........................................................................

 iter      E             dE          RMSdq      gap      omega  full diag
   1    -74.4998568 -0.744999E+02  0.470E-02    1.76       0.0  T
   2    -74.4998575 -0.719867E-06  0.258E-02    1.77       1.0  T
   3    -74.4998575 -0.700415E-07  0.427E-03    1.77       3.4  T
   4    -74.4998575  0.602302E-07  0.233E-03    1.77       6.3  T
   5    -74.4998577 -0.189632E-06  0.368E-04    1.77      39.6  T
   6    -74.4998577 -0.180889E-08  0.200E-04    1.77      73.0  T
     SCC iter.                  ...        0 min,  0.019 sec
     gradient                   ...        0 min,  0.007 sec
 * total energy  :   -73.4882653 Eh     change       -0.2189269E-04 Eh
   gradient norm :     0.0023465 Eh/α   predicted    -0.1260570E-04 ( -42.42%)
   displ. norm   :     0.2142614 α      lambda       -0.3548995E-04
   maximum displ.:     0.1228899 α      in ANC's #2, #5, #7, ...

........................................................................
.............................. CYCLE   51 ..............................
........................................................................

 iter      E             dE          RMSdq      gap      omega  full diag
   1    -74.4993024 -0.744993E+02  0.581E-02    1.77       0.0  T
   2    -74.4993036 -0.113578E-05  0.318E-02    1.77       1.0  T
   3    -74.4993037 -0.115830E-06  0.535E-03    1.77       2.7  T
   4    -74.4993036  0.908661E-07  0.299E-03    1.77       4.9  T
   5    -74.4993039 -0.296886E-06  0.484E-04    1.77      30.2  T
   6    -74.4993039 -0.259327E-08  0.303E-04    1.77      48.1  T
     SCC iter.                  ...        0 min,  0.017 sec
     gradient                   ...        0 min,  0.007 sec
 * total energy  :   -73.4882951 Eh     change       -0.2978433E-04 Eh
   gradient norm :     0.0014162 Eh/α   predicted    -0.1856049E-04 ( -37.68%)
   displ. norm   :     0.3695092 α      lambda       -0.3796073E-04
   maximum displ.:     0.2173396 α      in ANC's #2, #5, #3, ...

........................................................................
.............................. CYCLE   52 ..............................
........................................................................

 iter      E             dE          RMSdq      gap      omega  full diag
   1    -74.4982179 -0.744982E+02  0.102E-01    1.77       0.0  T
   2    -74.4982215 -0.360062E-05  0.554E-02    1.77       1.0  T
   3    -74.4982215 -0.616817E-07  0.973E-03    1.78       1.5  T
   4    -74.4982215  0.246228E-07  0.566E-03    1.78       2.6  T
   5    -74.4982224 -0.953227E-06  0.104E-03    1.78      14.0  T
   6    -74.4982225 -0.251687E-07  0.602E-04    1.78      24.2  T
   7    -74.4982225 -0.935451E-08  0.293E-04    1.78      49.9  T
     SCC iter.                  ...        0 min,  0.036 sec
     gradient                   ...        0 min,  0.008 sec
 * total energy  :   -73.4883319 Eh     change       -0.3682608E-04 Eh
   gradient norm :     0.0032363 Eh/α   predicted    -0.2013262E-04 ( -45.33%)
   displ. norm   :     0.1162157 α      lambda       -0.2550881E-04
   maximum displ.:     0.0705033 α      in ANC's #2, #5, #3, ...

........................................................................
.............................. CYCLE   53 ..............................
........................................................................

 iter      E             dE          RMSdq      gap      omega  full diag
   1    -74.4990219 -0.744990E+02  0.333E-02    1.78       0.0  T
   2    -74.4990223 -0.383351E-06  0.181E-02    1.78       1.0  T
   3    -74.4990222  0.968924E-07  0.350E-03    1.78       4.2  T
   4    -74.4990223 -0.128533E-06  0.196E-03    1.78       7.4  T
   5    -74.4990224 -0.798936E-07  0.474E-04    1.78      30.8  T
   6    -74.4990224 -0.814065E-08  0.204E-04    1.78      71.3  T
     SCC iter.                  ...        0 min,  0.030 sec
     gradient                   ...        0 min,  0.005 sec
 * total energy  :   -73.4883525 Eh     change       -0.2056251E-04 Eh
   gradient norm :     0.0027017 Eh/α   predicted    -0.1293361E-04 ( -37.10%)
   displ. norm   :     0.3272088 α      lambda       -0.4741917E-04
   maximum displ.:     0.2062284 α      in ANC's #2, #5, #3, ...

........................................................................
.............................. CYCLE   54 ..............................
........................................................................

 iter      E             dE          RMSdq      gap      omega  full diag
   1    -74.4990050 -0.744990E+02  0.955E-02    1.78       0.0  T
   2    -74.4990083 -0.330706E-05  0.512E-02    1.78       1.0  T
   3    -74.4990075  0.808942E-06  0.100E-02    1.79       1.5  T
   4    -74.4990082 -0.725718E-06  0.605E-03    1.79       2.4  T
   5    -74.4990092 -0.961240E-06  0.137E-03    1.79      10.6  T
   6    -74.4990093 -0.691186E-07  0.555E-04    1.79      26.3  T
   7    -74.4990093 -0.909557E-08  0.238E-04    1.79      61.4  T
     SCC iter.                  ...        0 min,  0.020 sec
     gradient                   ...        0 min,  0.007 sec
 * total energy  :   -73.4883869 Eh     change       -0.3442198E-04 Eh
   gradient norm :     0.0021009 Eh/α   predicted    -0.2625197E-04 ( -23.73%)
   displ. norm   :     0.2483699 α      lambda       -0.3485543E-04
   maximum displ.:     0.1608221 α      in ANC's #2, #3, #5, ...

........................................................................
.............................. CYCLE   55 ..............................
........................................................................

 iter      E             dE          RMSdq      gap      omega  full diag
   1    -74.4993586 -0.744994E+02  0.754E-02    1.79       0.0  T
   2    -74.4993607 -0.209782E-05  0.402E-02    1.79       1.0  T
   3    -74.4993600  0.722762E-06  0.821E-03    1.79       1.8  T
   4    -74.4993607 -0.652141E-06  0.500E-03    1.79       2.9  T
   5    -74.4993613 -0.646097E-06  0.115E-03    1.79      12.7  T
   6    -74.4993613 -0.502526E-07  0.423E-04    1.79      34.5  T
   7    -74.4993614 -0.501153E-08  0.177E-04    1.79      82.2  T
     SCC iter.                  ...        0 min,  0.020 sec
     gradient                   ...        0 min,  0.006 sec
 * total energy  :   -73.4884145 Eh     change       -0.2759384E-04 Eh
   gradient norm :     0.0018430 Eh/α   predicted    -0.1850765E-04 ( -32.93%)
   displ. norm   :     0.4177795 α      lambda       -0.4321281E-04
   maximum displ.:     0.2736238 α      in ANC's #2, #3, #5, ...

........................................................................
.............................. CYCLE   56 ..............................
........................................................................

 iter      E             dE          RMSdq      gap      omega  full diag
   1    -74.4995913 -0.744996E+02  0.132E-01    1.79       0.0  T
   2    -74.4995978 -0.653019E-05  0.700E-02    1.79       1.0  T
   3    -74.4995958  0.197850E-05  0.143E-02    1.80       1.0  T
   4    -74.4995973 -0.143605E-05  0.904E-03    1.80       1.6  T
   5    -74.4995996 -0.228067E-05  0.200E-03    1.80       7.3  T
   6    -74.4995997 -0.139992E-06  0.757E-04    1.80      19.3  T
   7    -74.4995997 -0.163189E-07  0.302E-04    1.80      48.2  T
     SCC iter.                  ...        0 min,  0.022 sec
     gradient                   ...        0 min,  0.006 sec
 * total energy  :   -73.4884586 Eh     change       -0.4408643E-04 Eh
   gradient norm :     0.0024992 Eh/α   predicted    -0.2328397E-04 ( -47.19%)
   displ. norm   :     0.1618847 α      lambda       -0.3273405E-04
   maximum displ.:     0.1042300 α      in ANC's #2, #3, #5, ...

........................................................................
.............................. CYCLE   57 ..............................
........................................................................

 iter      E             dE          RMSdq      gap      omega  full diag
   1    -74.5001582 -0.745002E+02  0.535E-02    1.79       0.0  T
   2    -74.5001591 -0.971946E-06  0.287E-02    1.80       1.0  T
   3    -74.5001591  0.907402E-07  0.545E-03    1.80       2.7  T
   4    -74.5001590  0.593610E-07  0.356E-03    1.80       4.1  T
   5    -74.5001594 -0.409302E-06  0.745E-04    1.80      19.6  T
   6    -74.5001594 -0.173051E-07  0.294E-04    1.80      49.6  T
     SCC iter.                  ...        0 min,  0.018 sec
     gradient                   ...        0 min,  0.005 sec
 * total energy  :   -73.4884858 Eh     change       -0.2725484E-04 Eh
   gradient norm :     0.0022076 Eh/α   predicted    -0.1679729E-04 ( -38.37%)
   displ. norm   :     0.4805991 α      lambda       -0.7055656E-04
   maximum displ.:     0.3149889 α      in ANC's #2, #3, #5, ...

........................................................................
.............................. CYCLE   58 ..............................
........................................................................

 iter      E             dE          RMSdq      gap      omega  full diag
   1    -74.4972388 -0.744972E+02  0.155E-01    1.79       0.0  T
[...]
C9-C8-C3-O6=353.16            C17-C8-C3-C2=294.06           C17-C8-C3-O4= 50.05           C17-C8-C3-O6=174.83           
C10-C9-C8-C3=182.17           C10-C9-C8-C17=  0.48          H32-C9-C8-C3=  2.55           H32-C9-C8-C17=180.86          
C11-C10-C9-C8=  0.00          C11-C10-C9-H32=179.61         H33-C10-C9-C8=180.03          H33-C10-C9-H32=359.64         
           -------------------------------------------------
          |                Final Singlepoint                |
           -------------------------------------------------

          ...................................................
          :                      SETUP                      :
          :.................................................:
          :  # basis functions                 128          :
          :  # atomic orbitals                 127          :
          :  # shells                           73          :
          :  # electrons                       132          :
          :  max. iterations                   250          :
          :  Hamiltonian                  GFN2-xTB          :
          :  restarted?                      false          :
          :  GBSA solvation                  false          :
          :  PC potential                    false          :
          :  electronic temp.          300.0000000     K    :
          :  accuracy                    1.0000000          :
          :  -> integral cutoff          0.2500000E+02      :
          :  -> integral neglect         0.1000000E-07      :
          :  -> SCF convergence          0.1000000E-05 Eh   :
          :  -> wf. convergence          0.1000000E-03 e    :
          :  Broyden damping             0.4000000          :
          :  net charge                          0          :
          :  unpaired electrons                  0          :
          ...................................................

 iter      E             dE          RMSdq      gap      omega  full diag
   1    -74.5012282 -0.745012E+02  0.753E-05    1.83       0.0  T
   2    -74.5012282 -0.515570E-10  0.517E-05    1.83     282.1  T
   3    -74.5012282 -0.739533E-10  0.305E-05    1.83     478.4  T

   *** convergence criteria satisfied after 3 iterations ***

         #    Occupation            Energy/Eh            Energy/eV
      -------------------------------------------------------------
         1        2.0000           -0.7216202             -19.6363
       ...           ...                  ...                  ...
        60        2.0000           -0.4237905             -11.5319
        61        2.0000           -0.4186924             -11.3932
        62        2.0000           -0.4171763             -11.3519
        63        2.0000           -0.4091326             -11.1331
        64        2.0000           -0.4021949             -10.9443
        65        2.0000           -0.3843870             -10.4597
        66        2.0000           -0.3667500              -9.9798 (HOMO)
        67                         -0.2994787              -8.1492 (LUMO)
        68                         -0.2428874              -6.6093
        69                         -0.2355974              -6.4109
        70                         -0.2354798              -6.4077
        71                         -0.2243311              -6.1044
       ...                                ...                  ...
       127                          0.6986844              19.0122
      -------------------------------------------------------------
                  HL-Gap            0.0672714 Eh            1.8305 eV
             Fermi-level           -0.3331143 Eh           -9.0645 eV

 SCC (total)                   0 d,  0 h,  0 min,  0.022 sec
 SCC setup                      ...        0 min,  0.001 sec (  5.109%)
 Dispersion                     ...        0 min,  0.000 sec (  1.061%)
 classical contributions        ...        0 min,  0.000 sec (  0.774%)
 integral evaluation            ...        0 min,  0.002 sec (  8.660%)
 iterations                     ...        0 min,  0.009 sec ( 42.728%)
 molecular gradient             ...        0 min,  0.007 sec ( 32.900%)
 printout                       ...        0 min,  0.002 sec (  8.632%)

         :::::::::::::::::::::::::::::::::::::::::::::::::::::
         ::                     SUMMARY                     ::
         :::::::::::::::::::::::::::::::::::::::::::::::::::::
         :: total energy             -73.489678689872 Eh    ::
         :: gradient norm              0.000413362874 Eh/a0 ::
         :: HOMO-LUMO gap              1.830547463434 eV    ::
         ::.................................................::
         :: SCC energy               -74.500516190742 Eh    ::
         :: -> isotropic ES            0.089616211551 Eh    ::
         :: -> anisotropic ES          0.001764738406 Eh    ::
         :: -> anisotropic XC          0.026674496651 Eh    ::
         :: -> dispersion             -0.050643306802 Eh    ::
         :: repulsion energy           1.010837500870 Eh    ::
         :: add. restraining           0.000000000000 Eh    ::
         :: total charge               0.000000000000 e     ::
         :::::::::::::::::::::::::::::::::::::::::::::::::::::

           -------------------------------------------------
          |                Property Printout                |
           -------------------------------------------------

    * Orbital Energies and Occupations

         #    Occupation            Energy/Eh            Energy/eV
      -------------------------------------------------------------
         1        2.0000           -0.7216202             -19.6363
       ...           ...                  ...                  ...
        54        2.0000           -0.4404659             -11.9857
        55        2.0000           -0.4377804             -11.9126
        56        2.0000           -0.4348199             -11.8321
        57        2.0000           -0.4317408             -11.7483
        58        2.0000           -0.4310915             -11.7306
        59        2.0000           -0.4277384             -11.6394
        60        2.0000           -0.4237905             -11.5319
        61        2.0000           -0.4186924             -11.3932
        62        2.0000           -0.4171763             -11.3519
        63        2.0000           -0.4091326             -11.1331
        64        2.0000           -0.4021949             -10.9443
        65        2.0000           -0.3843870             -10.4597
        66        2.0000           -0.3667500              -9.9798 (HOMO)
        67                         -0.2994787              -8.1492 (LUMO)
        68                         -0.2428874              -6.6093
        69                         -0.2355974              -6.4109
        70                         -0.2354798              -6.4077
        71                         -0.2243311              -6.1044
        72                         -0.2006264              -5.4593
        73                         -0.1663837              -4.5275
        74                         -0.1480015              -4.0273
        75                         -0.1134249              -3.0864
        76                         -0.0905659              -2.4644
        77                         -0.0171011              -0.4653
       ...                                ...                  ...
       127                          0.6986844              19.0122
      -------------------------------------------------------------
                  HL-Gap            0.0672714 Eh            1.8305 eV
             Fermi-level           -0.3331143 Eh           -9.0645 eV

     #   Z          covCN         q      C6AA      α(0)
     1   8 O        0.857    -0.345    20.618     6.088
     2   6 C        2.834     0.211    23.534     7.950
     3   6 C        3.708     0.251    16.864     5.870
     4   8 O        1.701    -0.316    19.279     5.928
     5   6 C        3.647     0.045    20.140     6.448
     6   8 O        1.700    -0.336    19.627     5.981
     7   6 C        3.647     0.045    20.142     6.449
     8   6 C        2.985    -0.015    28.377     8.738
     9   6 C        2.920    -0.030    28.751     8.793
    10   6 C        2.982    -0.038    28.934     8.823
    11   6 C        2.966     0.050    26.885     8.505
    12  16 S        2.062    -0.173   148.365    20.501
    13   6 C        3.793    -0.020    20.937     6.516
    14   6 C        3.704     0.084    19.329     6.286
    15   8 O        1.656    -0.433    21.508     6.261
    16   6 C        2.943    -0.041    29.013     8.834
    17   6 C        2.924    -0.033    28.811     8.802
    18   6 C        2.893    -0.067    29.662     8.929
    19   6 C        2.908    -0.009    28.243     8.714
    20   6 C        2.970     0.017    27.635     8.623
    21   6 C        2.928    -0.028    28.697     8.785
    22   6 C        2.916    -0.027    28.670     8.780
    23   6 C        2.920    -0.024    28.602     8.770
    24   6 C        2.917    -0.027    28.674     8.781
    25   6 C        2.923    -0.028    28.690     8.784
    26   1 H        0.925     0.061     2.186     2.312
    27   1 H        0.924     0.031     2.573     2.509
    28   1 H        0.924     0.040     2.445     2.445
    29   1 H        0.924     0.048     2.340     2.392
    30   1 H        0.925     0.058     2.223     2.332
    31   1 H        0.924     0.028     2.614     2.528
    32   1 H        0.926     0.058     2.226     2.333
    33   1 H        0.926     0.050     2.315     2.380
    34   1 H        0.925     0.057     2.231     2.336
    35   1 H        0.925     0.054     2.268     2.355
    36   1 H        0.923     0.028     2.620     2.531
    37   1 H        0.924     0.055     2.260     2.351
    38   1 H        0.805     0.291     0.750     1.360
    39   1 H        0.926     0.045     2.379     2.412
    40   1 H        0.926     0.057     2.231     2.336
    41   1 H        0.926     0.055     2.259     2.350
    42   1 H        0.925     0.071     2.074     2.252
    43   1 H        0.926     0.043     2.415     2.430
    44   1 H        0.926     0.038     2.469     2.457
    45   1 H        0.926     0.038     2.472     2.459
    46   1 H        0.926     0.038     2.479     2.462
    47   1 H        0.926     0.041     2.437     2.441

 Mol. C6AA /au·bohr⁶  :      27093.820704
 Mol. C8AA /au·bohr⁸  :     682747.075187
 Mol. α(0) /au        :        258.703966


Wiberg/Mayer (AO) data.
largest (>0.10) Wiberg bond orders for each atom

 ---------------------------------------------------------------------------
     #   Z sym  total        # sym  WBO       # sym  WBO       # sym  WBO
 ---------------------------------------------------------------------------
     1   8 O    2.074 --     2 C    1.812
     2   6 C    3.927 --     1 O    1.812    18 C    1.075     3 C    0.898
     3   6 C    3.925 --     4 O    0.976     6 O    0.960     8 C    0.945
                             2 C    0.898
     4   8 O    2.094 --     5 C    0.982     3 C    0.976
     5   6 C    3.946 --     4 O    0.982    26 H    0.980    28 H    0.980
                            27 H    0.978
     6   8 O    2.078 --     7 C    0.981     3 C    0.960
     7   6 C    3.945 --     6 O    0.981    30 H    0.981    29 H    0.979
                            31 H    0.977
     8   6 C    3.981 --    17 C    1.399     9 C    1.399     3 C    0.945
     9   6 C    3.989 --    10 C    1.456     8 C    1.399    32 H    0.964
                            16 C    0.102
    10   6 C    3.988 --     9 C    1.456    11 C    1.384    33 H    0.967
                            17 C    0.106
    11   6 C    3.961 --    16 C    1.391    10 C    1.384    12 S    1.036
    12  16 S    2.230 --    11 C    1.036    13 C    0.989
    13   6 C    3.977 --    14 C    0.996    12 S    0.989    35 H    0.970
                            34 H    0.969
    14   6 C    3.956 --    15 O    1.003    13 C    0.996    36 H    0.970
                            37 H    0.969
    15   8 O    1.973 --    14 C    1.003    38 H    0.901
    16   6 C    3.990 --    17 C    1.451    11 C    1.391    39 H    0.963
                             9 C    0.102
    17   6 C    3.989 --    16 C    1.451     8 C    1.399    40 H    0.965
                            10 C    0.106
    18   6 C    3.988 --    19 C    1.745     2 C    1.075    41 H    0.960
    19   6 C    3.978 --    18 C    1.745    20 C    1.124    42 H    0.957
    20   6 C    3.990 --    21 C    1.360    25 C    1.358    19 C    1.124
    21   6 C    3.989 --    22 C    1.462    20 C    1.360    43 H    0.968
                            24 C    0.102
    22   6 C    3.992 --    21 C    1.462    23 C    1.429    44 H    0.970
                            25 C    0.104
    23   6 C    3.979 --    22 C    1.429    24 C    1.424    45 H    0.971
    24   6 C    3.992 --    25 C    1.467    23 C    1.424    46 H    0.970
                            21 C    0.102
    25   6 C    3.991 --    24 C    1.467    20 C    1.358    47 H    0.966
                            22 C    0.104
    26   1 H    0.996 --     5 C    0.980
    27   1 H    0.999 --     5 C    0.978
    28   1 H    0.998 --     5 C    0.980
    29   1 H    0.998 --     7 C    0.979
    30   1 H    0.996 --     7 C    0.981
    31   1 H    0.999 --     7 C    0.977
    32   1 H    0.996 --     9 C    0.964
    33   1 H    0.997 --    10 C    0.967
    34   1 H    0.997 --    13 C    0.969
    35   1 H    0.997 --    13 C    0.970
    36   1 H    0.999 --    14 C    0.970
    37   1 H    0.997 --    14 C    0.969
    38   1 H    0.915 --    15 O    0.901
    39   1 H    0.998 --    16 C    0.963
    40   1 H    0.997 --    17 C    0.965
    41   1 H    0.997 --    18 C    0.960
    42   1 H    0.994 --    19 C    0.957
    43   1 H    0.998 --    21 C    0.968
    44   1 H    0.998 --    22 C    0.970
    45   1 H    0.998 --    23 C    0.971
    46   1 H    0.998 --    24 C    0.970
    47   1 H    0.998 --    25 C    0.966
 ---------------------------------------------------------------------------

Topologies differ in total number of bonds
Writing topology from bond orders to xtbtopo.mol

molecular dipole:
                 x           y           z       tot (Debye)
 q only:       -0.249       0.961       1.028
   full:       -0.217       0.970       1.006       3.595
molecular quadrupole (traceless):
                xx          xy          yy          xz          yz          zz
 q only:       11.880      -0.884       4.569      -6.459      -5.222     -16.449
  q+dip:       10.951      -0.302       5.885     -10.186      -3.926     -16.835
   full:       12.847       1.816       7.484     -10.586      -5.967     -20.330

           -------------------------------------------------
          |                Geometry Summary                 |
           -------------------------------------------------

      molecular mass/u    :      358.4518216
   center of mass at/Å    :        0.2069524       0.0223728       0.0036074
  moments of inertia/u·Å² :        0.2561762E+04   0.3764219E+04   0.5406187E+04
rotational constants/cm⁻¹ :        0.6580484E-02   0.4478388E-02   0.3118211E-02

 * 42 selected distances

     #   Z          #   Z                                           value/Å
     1   8 O        2   6 C                                       1.2087179
     3   6 C        4   8 O                                       1.4016670
     4   8 O        5   6 C                                       1.4129611
     3   6 C        6   8 O                                       1.4115774
     6   8 O        7   6 C                                       1.4143102
     8   6 C        9   6 C                                       1.3883790
     9   6 C       10   6 C                                       1.3802799
    10   6 C       11   6 C                                       1.3911655
    13   6 C       14   6 C                                       1.5275004 (max)
    14   6 C       15   8 O                                       1.4038637
    11   6 C       16   6 C                                       1.3886036
     8   6 C       17   6 C                                       1.3899638
    16   6 C       17   6 C                                       1.3813036
    18   6 C       19   6 C                                       1.3424807
    20   6 C       21   6 C                                       1.3987736
    21   6 C       22   6 C                                       1.3808677
    22   6 C       23   6 C                                       1.3857550
    23   6 C       24   6 C                                       1.3865970
    20   6 C       25   6 C                                       1.3984327
    24   6 C       25   6 C                                       1.3805036
     5   6 C       26   1 H                                       1.0878272
     5   6 C       27   1 H                                       1.0950290
     5   6 C       28   1 H                                       1.0941905
     7   6 C       29   1 H                                       1.0927621
     7   6 C       30   1 H                                       1.0882444
     7   6 C       31   1 H                                       1.0955253
     9   6 C       32   1 H                                       1.0780716
    10   6 C       33   1 H                                       1.0792766
    13   6 C       34   1 H                                       1.0897296
    13   6 C       35   1 H                                       1.0917907
    14   6 C       36   1 H                                       1.0994047
    14   6 C       37   1 H                                       1.0932136
    15   8 O       38   1 H                                       0.9640481 (min)
    16   6 C       39   1 H                                       1.0783818
    17   6 C       40   1 H                                       1.0799780
    18   6 C       41   1 H                                       1.0786221
    19   6 C       42   1 H                                       1.0844620
    21   6 C       43   1 H                                       1.0804557
    22   6 C       44   1 H                                       1.0800175
    23   6 C       45   1 H                                       1.0798202
    24   6 C       46   1 H                                       1.0801963
    25   6 C       47   1 H                                       1.0788406

 * 4 distinct bonds (by element types)

   Z      Z             #   av. dist./Å        max./Å        min./Å
   1 H    6 C          21     1.0859924     1.0994047     1.0780716
   6 C    6 C          14     1.3943290     1.5275004     1.3424807
   1 H    8 O           1     0.9640481     0.9640481     0.9640481
   6 C    8 O           6     1.3755162     1.4143102     1.2087179


optimized geometry written to: xtbopt.xyz


           -------------------------------------------------
          | TOTAL ENERGY              -73.489678689872 Eh   |
          | GRADIENT NORM               0.000413362874 Eh/α |
          | HOMO-LUMO GAP               1.830547463434 eV   |
           -------------------------------------------------

------------------------------------------------------------------------
 * finished run on 2025/12/01 at 14:19:14.202     
------------------------------------------------------------------------
 total:
 * wall-time:     0 d,  0 h,  0 min,  5.010 sec
 *  cpu-time:     0 d,  0 h,  1 min, 51.607 sec
 * ratio c/w:    22.275 speedup
 SCF:
 * wall-time:     0 d,  0 h,  0 min,  0.069 sec
 *  cpu-time:     0 d,  0 h,  0 min,  1.570 sec
 * ratio c/w:    22.703 speedup
 ANC optimizer:
 * wall-time:     0 d,  0 h,  0 min,  4.927 sec
 *  cpu-time:     0 d,  0 h,  1 min, 49.840 sec
 * ratio c/w:    22.293 speedup

normal termination of xtb
