      -----------------------------------------------------------      
     |                   =====================                   |     
     |                           x T B                           |     
     |                   =====================                   |     
     |                         S. Grimme                         |     
     |          Mulliken Center for Theoretical Chemistry        |     
     |                    University of Bonn                     |     
      -----------------------------------------------------------      

   * xtb version 6.7.1 (edcfbbe) compiled by 'albert@albert-system' on 2024-07-22

   xtb is free software: you can redistribute it and/or modify it under
   the terms of the GNU Lesser General Public License as published by
   the Free Software Foundation, either version 3 of the License, or
   (at your option) any later version.
   
   xtb is distributed in the hope that it will be useful,
   but WITHOUT ANY WARRANTY; without even the implied warranty of
   MERCHANTABILITY or FITNESS FOR A PARTICULAR PURPOSE.  See the
   GNU Lesser General Public License for more details.
   
   Cite this work as:
   * C. Bannwarth, E. Caldeweyher, S. Ehlert, A. Hansen, P. Pracht,
     J. Seibert, S. Spicher, S. Grimme, WIREs Comput. Mol. Sci., 2020, 11,
     e01493. DOI: 10.1002/wcms.1493
   
   for GFN2-xTB:
   * C. Bannwarth, S. Ehlert and S. Grimme., J. Chem. Theory Comput., 2019,
     15, 1652-1671. DOI: 10.1021/acs.jctc.8b01176
   for GFN1-xTB:
   * S. Grimme, C. Bannwarth, P. Shushkov, J. Chem. Theory Comput., 2017,
     13, 1989-2009. DOI: 10.1021/acs.jctc.7b00118
   for GFN0-xTB:
   * P. Pracht, E. Caldeweyher, S. Ehlert, S. Grimme, ChemRxiv, 2019, preprint.
     DOI: 10.26434/chemrxiv.8326202.v1
   for GFN-FF:
   * S. Spicher and S. Grimme, Angew. Chem. Int. Ed., 2020, 59, 15665-15673.
     DOI: 10.1002/anie.202004239
   
   for ALPB and GBSA implicit solvation:
   * S. Ehlert, M. Stahn, S. Spicher, S. Grimme, J. Chem. Theory Comput.,
     2021, 17, 4250-4261. DOI: 10.1021/acs.jctc.1c00471
   
   for ddCOSMO and CPCM-X implicit solvation:
   * M. Stahn, S. Ehlert, S. Grimme, J. Phys. Chem. A,
     2023, XX, XXXX-XXXX. DOI: 10.1021/acs.jpca.3c04382
   
   for DFT-D4:
   * E. Caldeweyher, C. Bannwarth and S. Grimme, J. Chem. Phys., 2017,
     147, 034112. DOI: 10.1063/1.4993215
   * E. Caldeweyher, S. Ehlert, A. Hansen, H. Neugebauer, S. Spicher,
     C. Bannwarth and S. Grimme, J. Chem. Phys., 2019, 150, 154122.
     DOI: 10.1063/1.5090222
   * E. Caldeweyher, J.-M. Mewes, S. Ehlert and S. Grimme, Phys. Chem. Chem. Phys.
     2020, 22, 8499-8512. DOI: 10.1039/D0CP00502A
   
   for sTDA-xTB:
   * S. Grimme and C. Bannwarth, J. Chem. Phys., 2016, 145, 054103.
     DOI: 10.1063/1.4959605
   
   in the mass-spec context:
   * V. Asgeirsson, C. Bauer and S. Grimme, Chem. Sci., 2017, 8, 4879.
     DOI: 10.1039/c7sc00601b
   * J. Koopman and S. Grimme, ACS Omega 2019, 4, 12, 15120-15133.
     DOI: 10.1021/acsomega.9b02011
   
   for metadynamics refer to:
   * S. Grimme, J. Chem. Theory Comput., 2019, 155, 2847-2862
     DOI: 10.1021/acs.jctc.9b00143
   
   for SPH calculations refer to:
   * S. Spicher and S. Grimme, J. Chem. Theory Comput., 2021, 17, 1701-1714
     DOI: 10.1021/acs.jctc.0c01306
   
   for ONIOM refer to:
   * C. Plett, A. Katbashev, S. Ehlert, S. Grimme, M. Bursch,
     Phys. Chem. Chem. Phys., 2023, 25, 17860-17868. DOI: 10.1039/D3CP02178E
   
   for DIPRO refer to:
   * J. Kohn, N. Gildemeister, S. Grimme, D. Fazzi, A. Hansen,
     J. Chem. Phys., 2023, just accepted.
   
   for PTB refer to:
   * S. Grimme, M. Mueller, A. Hansen, J. Chem. Phys., 2023, 158, 124111.
     DOI: 10.1063/5.0137838
   
   with help from (in alphabetical order)
   P. Atkinson, C. Bannwarth, F. Bohle, G. Brandenburg, E. Caldeweyher
   M. Checinski, S. Dohm, S. Ehlert, S. Ehrlich, I. Gerasimov, C. Hölzer
   A. Katbashev, J. Kohn, J. Koopman, C. Lavigne, S. Lehtola, F. März, M. Müller,
   F. Musil, H. Neugebauer, J. Pisarek, C. Plett, P. Pracht, F. Pultar,
   J. Seibert, P. Shushkov, S. Spicher, M. Stahn, M. Steiner, T. Strunk,
   J. Stückrath, T. Rose, and J. Unsleber
   
 * started run on 2025/12/01 at 14:18:59.417     
   ID    Z sym.   atoms
    1    8 O      1, 4, 6, 15
    2    6 C      2, 3, 5, 7-11, 13, 14, 16-25
    3   16 S      12
    4    1 H      26-47

           -------------------------------------------------
          |                Calculation Setup                |
           -------------------------------------------------

          program call               : xtb pipeline_data/3_conformer_xyz/acrylates/rdkit/QXLXSQHHHGJQDK-MDWZMJQESA-N_conf41.xyz --opt --gfn 2-xTB --iterations 250
          coordinate file            : pipeline_data/3_conformer_xyz/acrylates/rdkit/QXLXSQHHHGJQDK-MDWZMJQESA-N_conf41.xyz
          omp threads                :                    24

########################################################################
[WARNING] Please study the warnings concerning your input carefully
-1- readin_getIntValue: could not parse '2-xTB'
########################################################################

           -------------------------------------------------
          |                 G F N 2 - x T B                 |
           -------------------------------------------------

        Reference                      10.1021/acs.jctc.8b01176
      * Hamiltonian:
        H0-scaling (s, p, d)           1.850000    2.230000    2.230000
        zeta-weighting                 0.500000
      * Dispersion:
        s8                             2.700000
        a1                             0.520000
        a2                             5.000000
        s9                             5.000000
      * Repulsion:
        kExp                           1.500000    1.000000
        rExp                           1.000000
      * Coulomb:
        alpha                          2.000000
        third order                    shell-resolved
        anisotropic                    true
        a3                             3.000000
        a5                             4.000000
        cn-shift                       1.200000
        cn-exp                         4.000000
        max-rad                        5.000000


          ...................................................
          :                      SETUP                      :
          :.................................................:
          :  # basis functions                 128          :
          :  # atomic orbitals                 127          :
          :  # shells                           73          :
          :  # electrons                       132          :
          :  max. iterations                   250          :
          :  Hamiltonian                  GFN2-xTB          :
          :  restarted?                      false          :
          :  GBSA solvation                  false          :
          :  PC potential                    false          :
          :  electronic temp.          300.0000000     K    :
          :  accuracy                    1.0000000          :
          :  -> integral cutoff          0.2500000E+02      :
          :  -> integral neglect         0.1000000E-07      :
          :  -> SCF convergence          0.1000000E-05 Eh   :
          :  -> wf. convergence          0.1000000E-03 e    :
          :  Broyden damping             0.4000000          :
          :  net charge                          0          :
          :  unpaired electrons                  0          :
          ...................................................

 iter      E             dE          RMSdq      gap      omega  full diag
   1    -74.3655359 -0.743655E+02  0.449E+00    2.69       0.0  T
   2    -74.4582450 -0.927091E-01  0.246E+00    1.84       1.0  T
   3    -74.4533174  0.492760E-02  0.114E+00    1.60       1.0  T
   4    -74.4679446 -0.146272E-01  0.277E-01    1.35       1.0  T
   5    -74.4690883 -0.114372E-02  0.120E-01    1.46       1.0  T
   6    -74.4691816 -0.932943E-04  0.466E-02    1.49       1.0  T
   7    -74.4692149 -0.333116E-04  0.213E-02    1.50       1.0  T
   8    -74.4692221 -0.712931E-05  0.974E-03    1.49       1.5  T
   9    -74.4692229 -0.883753E-06  0.394E-03    1.49       3.7  T
  10    -74.4692232 -0.250509E-06  0.190E-03    1.49       7.7  T
  11    -74.4692233 -0.107613E-06  0.737E-04    1.49      19.8  T
  12    -74.4692233 -0.448404E-08  0.341E-04    1.49      42.8  T

   *** convergence criteria satisfied after 12 iterations ***

         #    Occupation            Energy/Eh            Energy/eV
      -------------------------------------------------------------
         1        2.0000           -0.7283195             -19.8186
       ...           ...                  ...                  ...
        60        2.0000           -0.4231156             -11.5136
        61        2.0000           -0.4217694             -11.4769
        62        2.0000           -0.4193771             -11.4118
        63        2.0000           -0.4116129             -11.2006
        64        2.0000           -0.4100138             -11.1570
        65        2.0000           -0.3910949             -10.6422
        66        2.0000           -0.3625051              -9.8643 (HOMO)
        67                         -0.3076288              -8.3710 (LUMO)
        68                         -0.2570135              -6.9937
        69                         -0.2428796              -6.6091
        70                         -0.2408114              -6.5528
        71                         -0.2352409              -6.4012
       ...                                ...                  ...
       127                          0.7009845              19.0748
      -------------------------------------------------------------
                  HL-Gap            0.0548763 Eh            1.4933 eV
             Fermi-level           -0.3350669 Eh           -9.1176 eV

 SCC (total)                   0 d,  0 h,  0 min,  0.057 sec
 SCC setup                      ...        0 min,  0.000 sec (  0.502%)
 Dispersion                     ...        0 min,  0.001 sec (  0.944%)
 classical contributions        ...        0 min,  0.000 sec (  0.163%)
 integral evaluation            ...        0 min,  0.005 sec (  9.643%)
 iterations                     ...        0 min,  0.045 sec ( 78.472%)
 molecular gradient             ...        0 min,  0.006 sec (  9.710%)
 printout                       ...        0 min,  0.000 sec (  0.511%)

         :::::::::::::::::::::::::::::::::::::::::::::::::::::
         ::                     SUMMARY                     ::
         :::::::::::::::::::::::::::::::::::::::::::::::::::::
         :: total energy             -73.455114854951 Eh    ::
         :: gradient norm              0.159994934267 Eh/a0 ::
         :: HOMO-LUMO gap              1.493259757933 eV    ::
         ::.................................................::
         :: SCC energy               -74.468785896525 Eh    ::
         :: -> isotropic ES            0.090459092491 Eh    ::
         :: -> anisotropic ES          0.003573630399 Eh    ::
         :: -> anisotropic XC          0.025947738799 Eh    ::
         :: -> dispersion             -0.049771153485 Eh    ::
         :: repulsion energy           1.013671041574 Eh    ::
         :: add. restraining           0.000000000000 Eh    ::
         :: total charge              -0.000000000000 e     ::
         :::::::::::::::::::::::::::::::::::::::::::::::::::::

      ----------------------------------------------------------- 
     |                   =====================                   |
     |                        A N C O P T                        |
     |                   =====================                   |
     |               Approximate Normal Coordinate               |
     |                Rational Function Optimizer                |
      ----------------------------------------------------------- 
      ----------------------------------------------------------- 
     |                   =====================                   |
     |                        A N C O P T                        |
     |                   =====================                   |
     |               Approximate Normal Coordinate               |
     |                Rational Function Optimizer                |
      ----------------------------------------------------------- 

          ...................................................
          :                      SETUP                      :
          :.................................................:
          :   optimization level            normal          :
          :   max. optcycles                   200          :
          :   ANC micro-cycles                  20          :
          :   degrees of freedom               135          :
          :.................................................:
          :   RF solver                   davidson          :
          :   write xtbopt.log                true          :
          :   linear?                        false          :
          :   energy convergence         0.5000000E-05 Eh   :
          :   grad. convergence          0.1000000E-02 Eh/α :
          :   maxmium RF displ.          1.0000000          :
          :   Hlow (freq-cutoff)         0.1000000E-01      :
          :   Hmax (freq-cutoff)         5.0000000          :
          :   S6 in model hess.         20.0000000          :
          ...................................................

generating ANC from exact Hessian ...
Using Lindh-Hessian (1995)
 Shifting diagonal of input Hessian by   9.905259320487227E-003
 Lowest  eigenvalues of input Hessian
    0.000000    0.000000    0.000000    0.000000    0.000000    0.000000
    0.010000    0.010282    0.010362    0.010612    0.010818    0.011112
    0.011570    0.012179    0.012524    0.012743    0.013251    0.015115
 Highest eigenvalues
    1.970973    1.992314    2.032584    2.056441    2.082158    2.150618
 

........................................................................
.............................. CYCLE    1 ..............................
........................................................................

 iter      E             dE          RMSdq      gap      omega  full diag
   1    -74.4692233 -0.744692E+02  0.146E-04    1.49       0.0  T
   2    -74.4692233 -0.160711E-09  0.940E-05    1.49     155.1  T
   3    -74.4692233 -0.626699E-10  0.654E-05    1.49     223.1  T
     SCC iter.                  ...        0 min,  0.010 sec
     gradient                   ...        0 min,  0.005 sec
 * total energy  :   -73.4551149 Eh     change       -0.6183427E-09 Eh
   gradient norm :     0.1599948 Eh/α   predicted     0.0000000E+00 (-100.00%)
   displ. norm   :     0.3296954 α      lambda       -0.2822446E-01
   maximum displ.:     0.1032304 α      in ANC's #45, #27, #60, ...

........................................................................
.............................. CYCLE    2 ..............................
........................................................................

 iter      E             dE          RMSdq      gap      omega  full diag
   1    -74.4813047 -0.744813E+02  0.257E-01    1.58       0.0  T
   2    -74.4817853 -0.480601E-03  0.159E-01    1.57       1.0  T
   3    -74.4817863 -0.986060E-06  0.682E-02    1.55       1.0  T
   4    -74.4818331 -0.468012E-04  0.210E-02    1.56       1.0  T
   5    -74.4818478 -0.147038E-04  0.699E-03    1.55       2.1  T
   6    -74.4818489 -0.113820E-05  0.301E-03    1.55       4.8  T
   7    -74.4818491 -0.148429E-06  0.154E-03    1.55       9.5  T
   8    -74.4818491 -0.301899E-07  0.772E-04    1.55      18.9  T
   9    -74.4818491 -0.693693E-08  0.350E-04    1.55      41.7  T
     SCC iter.                  ...        0 min,  0.029 sec
     gradient                   ...        0 min,  0.005 sec
 * total energy  :   -73.4743934 Eh     change       -0.1927857E-01 Eh
   gradient norm :     0.0643276 Eh/α   predicted    -0.1565900E-01 ( -18.78%)
   displ. norm   :     0.3007577 α      lambda       -0.8198958E-02
   maximum displ.:     0.1101073 α      in ANC's #7, #27, #45, ...

........................................................................
.............................. CYCLE    3 ..............................
........................................................................

 iter      E             dE          RMSdq      gap      omega  full diag
   1    -74.4878774 -0.744879E+02  0.161E-01    1.61       0.0  T
   2    -74.4881292 -0.251864E-03  0.974E-02    1.60       1.0  T
   3    -74.4881385 -0.928693E-05  0.467E-02    1.58       1.0  T
   4    -74.4881532 -0.146699E-04  0.163E-02    1.59       1.0  T
   5    -74.4881637 -0.104913E-04  0.494E-03    1.59       3.0  T
   6    -74.4881644 -0.754521E-06  0.184E-03    1.59       7.9  T
   7    -74.4881645 -0.669489E-07  0.869E-04    1.59      16.8  T
   8    -74.4881645 -0.104159E-07  0.493E-04    1.59      29.6  T
     SCC iter.                  ...        0 min,  0.024 sec
     gradient                   ...        0 min,  0.005 sec
 * total energy  :   -73.4792525 Eh     change       -0.4859077E-02 Eh
   gradient norm :     0.0165393 Eh/α   predicted    -0.4475018E-02 (  -7.90%)
   displ. norm   :     0.2738877 α      lambda       -0.1529478E-02
   maximum displ.:     0.1533714 α      in ANC's #7, #13, #16, ...

........................................................................
.............................. CYCLE    4 ..............................
........................................................................

 iter      E             dE          RMSdq      gap      omega  full diag
   1    -74.4867484 -0.744867E+02  0.786E-02    1.59       0.0  T
   2    -74.4867586 -0.101938E-04  0.464E-02    1.59       1.0  T
   3    -74.4867515  0.706795E-05  0.162E-02    1.59       1.0  T
   4    -74.4867605 -0.899826E-05  0.502E-03    1.59       2.9  T
   5    -74.4867612 -0.725291E-06  0.242E-03    1.59       6.0  T
   6    -74.4867614 -0.152128E-06  0.974E-04    1.59      15.0  T
   7    -74.4867614 -0.120018E-07  0.504E-04    1.59      28.9  T
     SCC iter.                  ...        0 min,  0.021 sec
     gradient                   ...        0 min,  0.008 sec
 * total energy  :   -73.4804198 Eh     change       -0.1167315E-02 Eh
   gradient norm :     0.0108093 Eh/α   predicted    -0.8221377E-03 ( -29.57%)
   displ. norm   :     0.4229881 α      lambda       -0.1387696E-02
   maximum displ.:     0.2716130 α      in ANC's #7, #13, #9, ...

........................................................................
.............................. CYCLE    5 ..............................
........................................................................

 iter      E             dE          RMSdq      gap      omega  full diag
   1    -74.4860683 -0.744861E+02  0.106E-01    1.59       0.0  T
   2    -74.4860744 -0.610775E-05  0.626E-02    1.60       1.0  T
   3    -74.4860699  0.446551E-05  0.134E-02    1.60       1.1  T
   4    -74.4860762 -0.629984E-05  0.356E-03    1.60       4.1  T
   5    -74.4860763 -0.658623E-07  0.202E-03    1.60       7.2  T
   6    -74.4860764 -0.101979E-06  0.960E-04    1.60      15.2  T
   7    -74.4860764 -0.898247E-08  0.455E-04    1.60      32.1  T
     SCC iter.                  ...        0 min,  0.020 sec
     gradient                   ...        0 min,  0.005 sec
 * total energy  :   -73.4813887 Eh     change       -0.9689046E-03 Eh
   gradient norm :     0.0103544 Eh/α   predicted    -0.8179908E-03 ( -15.58%)
   displ. norm   :     0.3376183 α      lambda       -0.6785130E-03
   maximum displ.:     0.2331244 α      in ANC's #7, #13, #10, ...

........................................................................
.............................. CYCLE    6 ..............................
........................................................................

 iter      E             dE          RMSdq      gap      omega  full diag
   1    -74.4879519 -0.744880E+02  0.779E-02    1.61       0.0  T
   2    -74.4879537 -0.179623E-05  0.464E-02    1.61       1.0  T
   3    -74.4879479  0.582337E-05  0.112E-02    1.61       1.3  T
   4    -74.4879545 -0.662119E-05  0.275E-03    1.61       5.3  T
   5    -74.4879547 -0.180535E-06  0.136E-03    1.61      10.7  T
   6    -74.4879547 -0.243494E-07  0.555E-04    1.61      26.3  T
   7    -74.4879547 -0.325781E-08  0.270E-04    1.61      53.9  T
     SCC iter.                  ...        0 min,  0.020 sec
     gradient                   ...        0 min,  0.005 sec
 * total energy  :   -73.4819190 Eh     change       -0.5303118E-03 Eh
   gradient norm :     0.0099801 Eh/α   predicted    -0.3779280E-03 ( -28.73%)
   displ. norm   :     0.3471030 α      lambda       -0.6029291E-03
   maximum displ.:     0.2439812 α      in ANC's #7, #10, #13, ...

........................................................................
.............................. CYCLE    7 ..............................
........................................................................

 iter      E             dE          RMSdq      gap      omega  full diag
   1    -74.4907124 -0.744907E+02  0.828E-02    1.62       0.0  T
   2    -74.4907149 -0.251419E-05  0.493E-02    1.62       1.0  T
   3    -74.4907057  0.918478E-05  0.131E-02    1.63       1.1  T
   4    -74.4907160 -0.102545E-04  0.305E-03    1.63       4.8  T
   5    -74.4907163 -0.274813E-06  0.133E-03    1.62      11.0  T
   6    -74.4907163 -0.251938E-07  0.556E-04    1.62      26.2  T
   7    -74.4907163 -0.478789E-08  0.283E-04    1.62      51.6  T
     SCC iter.                  ...        0 min,  0.020 sec
     gradient                   ...        0 min,  0.005 sec
 * total energy  :   -73.4823965 Eh     change       -0.4774775E-03 Eh
   gradient norm :     0.0080454 Eh/α   predicted    -0.3377963E-03 ( -29.25%)
   displ. norm   :     0.3723525 α      lambda       -0.5063007E-03
   maximum displ.:     0.2652786 α      in ANC's #7, #10, #2, ...

........................................................................
.............................. CYCLE    8 ..............................
........................................................................

 iter      E             dE          RMSdq      gap      omega  full diag
   1    -74.4919374 -0.744919E+02  0.982E-02    1.63       0.0  T
   2    -74.4919403 -0.282913E-05  0.580E-02    1.63       1.0  T
   3    -74.4919346  0.568222E-05  0.107E-02    1.64       1.4  T
   4    -74.4919411 -0.651781E-05  0.307E-03    1.63       4.7  T
   5    -74.4919414 -0.255478E-06  0.160E-03    1.63       9.1  T
   6    -74.4919414 -0.586562E-07  0.590E-04    1.63      24.7  T
   7    -74.4919414 -0.419625E-08  0.309E-04    1.63      47.2  T
     SCC iter.                  ...        0 min,  0.020 sec
     gradient                   ...        0 min,  0.005 sec
 * total energy  :   -73.4827851 Eh     change       -0.3886371E-03 Eh
   gradient norm :     0.0062804 Eh/α   predicted    -0.2882493E-03 ( -25.83%)
   displ. norm   :     0.3373557 α      lambda       -0.3433168E-03
   maximum displ.:     0.2439052 α      in ANC's #7, #2, #10, ...

........................................................................
.............................. CYCLE    9 ..............................
........................................................................

 iter      E             dE          RMSdq      gap      omega  full diag
   1    -74.4925046 -0.744925E+02  0.100E-01    1.63       0.0  T
   2    -74.4925065 -0.196319E-05  0.588E-02    1.64       1.0  T
   3    -74.4925046  0.192458E-05  0.742E-03    1.64       2.0  T
   4    -74.4925070 -0.244122E-05  0.232E-03    1.64       6.3  T
   5    -74.4925071 -0.102715E-06  0.946E-04    1.64      15.4  T
   6    -74.4925072 -0.176242E-07  0.426E-04    1.64      34.2  T
     SCC iter.                  ...        0 min,  0.018 sec
     gradient                   ...        0 min,  0.005 sec
 * total energy  :   -73.4830364 Eh     change       -0.2512451E-03 Eh
   gradient norm :     0.0045905 Eh/α   predicted    -0.1911955E-03 ( -23.90%)
   displ. norm   :     0.2898942 α      lambda       -0.2187006E-03
   maximum displ.:     0.2096148 α      in ANC's #7, #2, #16, ...

........................................................................
.............................. CYCLE   10 ..............................
........................................................................

 iter      E             dE          RMSdq      gap      omega  full diag
   1    -74.4916114 -0.744916E+02  0.921E-02    1.64       0.0  T
   2    -74.4916130 -0.159378E-05  0.540E-02    1.64       1.0  T
   3    -74.4916118  0.119741E-05  0.680E-03    1.65       2.1  T
   4    -74.4916134 -0.155506E-05  0.277E-03    1.64       5.3  T
   5    -74.4916135 -0.137532E-06  0.133E-03    1.64      11.0  T
   6    -74.4916135 -0.434516E-07  0.510E-04    1.64      28.6  T
   7    -74.4916135 -0.475272E-08  0.257E-04    1.64      56.7  T
     SCC iter.                  ...        0 min,  0.021 sec
     gradient                   ...        0 min,  0.006 sec
 * total energy  :   -73.4831832 Eh     change       -0.1467739E-03 Eh
   gradient norm :     0.0056050 Eh/α   predicted    -0.1185418E-03 ( -19.24%)
   displ. norm   :     0.2654134 α      lambda       -0.1977991E-03
   maximum displ.:     0.1814414 α      in ANC's #7, #2, #16, ...

........................................................................
.............................. CYCLE   11 ..............................
........................................................................

 iter      E             dE          RMSdq      gap      omega  full diag
   1    -74.4922743 -0.744923E+02  0.904E-02    1.64       0.0  T
   2    -74.4922759 -0.152098E-05  0.529E-02    1.64       1.0  T
   3    -74.4922740  0.184928E-05  0.722E-03    1.65       2.0  T
   4    -74.4922761 -0.212904E-05  0.283E-03    1.64       5.1  T
   5    -74.4922763 -0.188893E-06  0.115E-03    1.64      12.7  T
   6    -74.4922764 -0.344324E-07  0.443E-04    1.64      32.9  T
   7    -74.4922764 -0.378706E-08  0.199E-04    1.64      73.2  T
     SCC iter.                  ...        0 min,  0.021 sec
     gradient                   ...        0 min,  0.008 sec
 * total energy  :   -73.4833129 Eh     change       -0.1297232E-03 Eh
   gradient norm :     0.0059689 Eh/α   predicted    -0.1058717E-03 ( -18.39%)
   displ. norm   :     0.2540629 α      lambda       -0.1546913E-03
   maximum displ.:     0.1608524 α      in ANC's #7, #2, #8, ...

........................................................................
.............................. CYCLE   12 ..............................
........................................................................

 iter      E             dE          RMSdq      gap      omega  full diag
   1    -74.4918444 -0.744918E+02  0.854E-02    1.64       0.0  T
   2    -74.4918454 -0.100350E-05  0.499E-02    1.64       1.0  T
   3    -74.4918443  0.109889E-05  0.589E-03    1.64       2.5  T
   4    -74.4918456 -0.132280E-05  0.248E-03    1.64       5.9  T
   5    -74.4918457 -0.117137E-06  0.111E-03    1.64      13.2  T
   6    -74.4918458 -0.369052E-07  0.349E-04    1.64      41.8  T
   7    -74.4918458 -0.214490E-08  0.173E-04    1.64      84.2  T
     SCC iter.                  ...        0 min,  0.021 sec
     gradient                   ...        0 min,  0.006 sec
 * total energy  :   -73.4834410 Eh     change       -0.1280833E-03 Eh
   gradient norm :     0.0052700 Eh/α   predicted    -0.8234054E-04 ( -35.71%)
   displ. norm   :     0.3938634 α      lambda       -0.2537130E-03
   maximum displ.:     0.2119668 α      in ANC's #7, #8, #2, ...

........................................................................
.............................. CYCLE   13 ..............................
........................................................................

 iter      E             dE          RMSdq      gap      omega  full diag
   1    -74.4917580 -0.744918E+02  0.130E-01    1.64       0.0  T
   2    -74.4917603 -0.226115E-05  0.759E-02    1.64       1.0  T
   3    -74.4917585  0.178452E-05  0.826E-03    1.64       1.8  T
   4    -74.4917609 -0.239420E-05  0.331E-03    1.64       4.4  T
   5    -74.4917611 -0.143521E-06  0.125E-03    1.64      11.6  T
   6    -74.4917611 -0.481712E-07  0.478E-04    1.64      30.5  T
   7    -74.4917611 -0.490722E-08  0.242E-04    1.64      60.3  T
     SCC iter.                  ...        0 min,  0.039 sec
     gradient                   ...        0 min,  0.011 sec
 * total energy  :   -73.4836363 Eh     change       -0.1953026E-03 Eh
   gradient norm :     0.0046229 Eh/α   predicted    -0.1465361E-03 ( -24.97%)
   displ. norm   :     0.3434313 α      lambda       -0.1943312E-03
   maximum displ.:     0.1882016 α      in ANC's #8, #7, #2, ...

........................................................................
.............................. CYCLE   14 ..............................
........................................................................

 iter      E             dE          RMSdq      gap      omega  full diag
   1    -74.4914186 -0.744914E+02  0.111E-01    1.64       0.0  T
   2    -74.4914203 -0.172687E-05  0.648E-02    1.64       1.0  T
   3    -74.4914187  0.161081E-05  0.769E-03    1.64       1.9  T
   4    -74.4914209 -0.214167E-05  0.284E-03    1.64       5.1  T
   5    -74.4914209 -0.688020E-07  0.117E-03    1.64      12.5  T
   6    -74.4914210 -0.462812E-07  0.401E-04    1.64      36.4  T
   7    -74.4914210 -0.354213E-08  0.214E-04    1.64      68.0  T
     SCC iter.                  ...        0 min,  0.034 sec
     gradient                   ...        0 min,  0.006 sec
 * total energy  :   -73.4837910 Eh     change       -0.1547212E-03 Eh
   gradient norm :     0.0047868 Eh/α   predicted    -0.1086279E-03 ( -29.79%)
   displ. norm   :     0.3269569 α      lambda       -0.1953816E-03
   maximum displ.:     0.2038810 α      in ANC's #8, #2, #7, ...

........................................................................
.............................. CYCLE   15 ..............................
........................................................................

 iter      E             dE          RMSdq      gap      omega  full diag
   1    -74.4932184 -0.744932E+02  0.103E-01    1.64       0.0  T
   2    -74.4932202 -0.180626E-05  0.598E-02    1.64       1.0  T
   3    -74.4932184  0.179693E-05  0.815E-03    1.64       1.8  T
   4    -74.4932207 -0.228307E-05  0.325E-03    1.64       4.5  T
   5    -74.4932208 -0.132675E-06  0.101E-03    1.64      14.4  T
   6    -74.4932209 -0.255371E-07  0.475E-04    1.64      30.7  T
   7    -74.4932209 -0.650250E-08  0.207E-04    1.64      70.5  T
     SCC iter.                  ...        0 min,  0.021 sec
     gradient                   ...        0 min,  0.009 sec
 * total energy  :   -73.4839481 Eh     change       -0.1570958E-03 Eh
   gradient norm :     0.0047142 Eh/α   predicted    -0.1081353E-03 ( -31.17%)
   displ. norm   :     0.4199383 α      lambda       -0.2303065E-03
   maximum displ.:     0.2548684 α      in ANC's #8, #2, #7, ...

........................................................................
.............................. CYCLE   16 ..............................
........................................................................

 iter      E             dE          RMSdq      gap      omega  full diag
   1    -74.4914473 -0.744914E+02  0.137E-01    1.63       0.0  T
   2    -74.4914512 -0.390623E-05  0.790E-02    1.64       1.0  T
   3    -74.4914475  0.378624E-05  0.119E-02    1.64       1.2  T
   4    -74.4914522 -0.471880E-05  0.475E-03    1.64       3.1  T
   5    -74.4914525 -0.291442E-06  0.178E-03    1.64       8.2  T
   6    -74.4914526 -0.994689E-07  0.689E-04    1.64      21.2  T
   7    -74.4914526 -0.148707E-07  0.311E-04    1.64      46.9  T
     SCC iter.                  ...        0 min,  0.021 sec
     gradient                   ...        0 min,  0.006 sec
 * total energy  :   -73.4841297 Eh     change       -0.1815669E-03 Eh
   gradient norm :     0.0062582 Eh/α   predicted    -0.1354609E-03 ( -25.39%)
   displ. norm   :     0.4661524 α      lambda       -0.3186759E-03
   maximum displ.:     0.3245672 α      in ANC's #8, #2, #5, ...

........................................................................
.............................. CYCLE   17 ..............................
........................................................................

 iter      E             dE          RMSdq      gap      omega  full diag
   1    -74.4949746 -0.744950E+02  0.146E-01    1.64       0.0  T
   2    -74.4949797 -0.510916E-05  0.834E-02    1.64       1.0  T
   3    -74.4949748  0.495965E-05  0.147E-02    1.65       1.0  T
   4    -74.4949811 -0.635314E-05  0.632E-03    1.65       2.3  T
   5    -74.4949816 -0.503896E-06  0.150E-03    1.65       9.7  T
   6    -74.4949817 -0.604277E-07  0.646E-04    1.65      22.6  T
   7    -74.4949817 -0.597436E-08  0.354E-04    1.65      41.2  T
     SCC iter.                  ...        0 min,  0.024 sec
     gradient                   ...        0 min,  0.006 sec
 * total energy  :   -73.4843625 Eh     change       -0.2328181E-03 Eh
   gradient norm :     0.0067408 Eh/α   predicted    -0.1939651E-03 ( -16.69%)
   displ. norm   :     0.5355524 α      lambda       -0.2800681E-03
   maximum displ.:     0.3470717 α      in ANC's #8, #2, #5, ...

........................................................................
.............................. CYCLE   18 ..............................
........................................................................

 iter      E             dE          RMSdq      gap      omega  full diag
   1    -74.4909768 -0.744910E+02  0.178E-01    1.64       0.0  T
   2    -74.4909841 -0.734790E-05  0.101E-01    1.65       1.0  T
   3    -74.4909769  0.723186E-05  0.180E-02    1.66       1.0  T
   4    -74.4909860 -0.911675E-05  0.807E-03    1.66       1.8  T
   5    -74.4909869 -0.928274E-06  0.148E-03    1.66       9.8  T
   6    -74.4909870 -0.523963E-07  0.738E-04    1.66      19.8  T
   7    -74.4909870 -0.105395E-07  0.385E-04    1.66      37.9  T
     SCC iter.                  ...        0 min,  0.021 sec
     gradient                   ...        0 min,  0.005 sec
 * total energy  :   -73.4845420 Eh     change       -0.1795609E-03 Eh
   gradient norm :     0.0083199 Eh/α   predicted    -0.1801983E-03 (   0.36%)
   displ. norm   :     0.3896950 α      lambda       -0.4343831E-03
   maximum displ.:     0.2346915 α      in ANC's #8, #5, #10, ...

........................................................................
.............................. CYCLE   19 ..............................
........................................................................

 iter      E             dE          RMSdq      gap      omega  full diag
   1    -74.4958725 -0.744959E+02  0.131E-01    1.66       0.0  T
   2    -74.4958790 -0.649470E-05  0.715E-02    1.67       1.0  T
   3    -74.4958746  0.440454E-05  0.164E-02    1.68       1.0  T
   4    -74.4958807 -0.610784E-05  0.747E-03    1.68       2.0  T
   5    -74.4958812 -0.538420E-06  0.192E-03    1.67       7.6  T
   6    -74.4958813 -0.120733E-06  0.665E-04    1.68      21.9  T
   7    -74.4958813 -0.428281E-08  0.382E-04    1.68      38.2  T
     SCC iter.                  ...        0 min,  0.021 sec
     gradient                   ...        0 min,  0.006 sec
 * total energy  :   -73.4847592 Eh     change       -0.2171949E-03 Eh
   gradient norm :     0.0062329 Eh/α   predicted    -0.2501765E-03 (  15.19%)
   displ. norm   :     0.3677951 α      lambda       -0.2168224E-03
   maximum displ.:     0.2441220 α      in ANC's #8, #5, #2, ...

........................................................................
.............................. CYCLE   20 ..............................
........................................................................

 iter      E             dE          RMSdq      gap      omega  full diag
   1    -74.4930880 -0.744931E+02  0.129E-01    1.66       0.0  T
   2    -74.4930928 -0.484039E-05  0.721E-02    1.67       1.0  T
   3    -74.4930908  0.208526E-05  0.126E-02    1.68       1.2  T
   4    -74.4930936 -0.284404E-05  0.631E-03    1.68       2.3  T
   5    -74.4930942 -0.639173E-06  0.116E-03    1.68      12.6  T
   6    -74.4930943 -0.326425E-07  0.528E-04    1.68      27.6  T
   7    -74.4930943 -0.523461E-08  0.250E-04    1.68      58.4  T
     SCC iter.                  ...        0 min,  0.022 sec
     gradient                   ...        0 min,  0.007 sec
 * total energy  :   -73.4848901 Eh     change       -0.1308743E-03 Eh
   gradient norm :     0.0070522 Eh/α   predicted    -0.1230781E-03 (  -5.96%)
   displ. norm   :     0.1547529 α      lambda       -0.1909368E-03
   maximum displ.:     0.0776755 α      in ANC's #10, #5, #8, ...
 * RMSD in coord.:     0.7049980 α      energy gain  -0.2977525E-01 Eh

generating ANC from exact Hessian ...
Using Lindh-Hessian (1995)
 Shifting diagonal of input Hessian by   9.925018764430730E-003
 Lowest  eigenvalues of input Hessian
    0.000000    0.000000    0.000000    0.000000    0.000000    0.000000
    0.010000    0.010232    0.010470    0.010599    0.010795    0.011110
    0.011489    0.012024    0.012275    0.012409    0.012752    0.014803
 Highest eigenvalues
    1.936938    1.974372    2.010738    2.014971    2.086080    2.217490
 

........................................................................
.............................. CYCLE   21 ..............................
........................................................................

 iter      E             dE          RMSdq      gap      omega  full diag
   1    -74.4956164 -0.744956E+02  0.545E-02    1.69       0.0  T
   2    -74.4956205 -0.407403E-05  0.301E-02    1.69       1.0  T
   3    -74.4956168  0.374225E-05  0.109E-02    1.68       1.3  T
   4    -74.4956210 -0.422659E-05  0.442E-03    1.68       3.3  T
   5    -74.4956214 -0.435752E-06  0.163E-03    1.69       8.9  T
   6    -74.4956215 -0.408060E-07  0.553E-04    1.69      26.4  T
   7    -74.4956215 -0.102359E-07  0.199E-04    1.69      73.1  T
     SCC iter.                  ...        0 min,  0.019 sec
     gradient                   ...        0 min,  0.006 sec
 * total energy  :   -73.4850121 Eh     change       -0.1220390E-03 Eh
   gradient norm :     0.0060938 Eh/α   predicted     0.0000000E+00 (-100.00%)
   displ. norm   :     0.0532974 α      lambda       -0.9454929E-04
   maximum displ.:     0.0210675 α      in ANC's #3, #5, #10, ...

........................................................................
.............................. CYCLE   22 ..............................
........................................................................

 iter      E             dE          RMSdq      gap      omega  full diag
   1    -74.4957869 -0.744958E+02  0.200E-02    1.68       0.0  T
   2    -74.4957875 -0.654717E-06  0.119E-02    1.68       1.2  T
   3    -74.4957871  0.368798E-06  0.384E-03    1.68       3.8  T
   4    -74.4957876 -0.478651E-06  0.114E-03    1.68      12.8  T
   5    -74.4957876 -0.221837E-07  0.648E-04    1.68      22.5  T
   6    -74.4957877 -0.111261E-07  0.256E-04    1.68      57.0  T
     SCC iter.                  ...        0 min,  0.021 sec
     gradient                   ...        0 min,  0.009 sec
 * total energy  :   -73.4850851 Eh     change       -0.7297290E-04 Eh
   gradient norm :     0.0020370 Eh/α   predicted    -0.4977622E-04 ( -31.79%)
   displ. norm   :     0.1040070 α      lambda       -0.8089510E-04
   maximum displ.:     0.0458774 α      in ANC's #3, #5, #8, ...

........................................................................
.............................. CYCLE   23 ..............................
........................................................................

 iter      E             dE          RMSdq      gap      omega  full diag
   1    -74.4958491 -0.744958E+02  0.306E-02    1.68       0.0  T
   2    -74.4958497 -0.624652E-06  0.178E-02    1.68       1.0  T
   3    -74.4958493  0.339558E-06  0.388E-03    1.68       3.8  T
   4    -74.4958498 -0.471285E-06  0.138E-03    1.68      10.6  T
   5    -74.4958498 -0.184916E-07  0.611E-04    1.68      23.9  T
   6    -74.4958498 -0.556479E-08  0.263E-04    1.68      55.5  T
     SCC iter.                  ...        0 min,  0.021 sec
     gradient                   ...        0 min,  0.005 sec
 * total energy  :   -73.4851415 Eh     change       -0.5634843E-04 Eh
   gradient norm :     0.0025437 Eh/α   predicted    -0.4088569E-04 ( -27.44%)
   displ. norm   :     0.1266986 α      lambda       -0.5653708E-04
   maximum displ.:     0.0577096 α      in ANC's #3, #5, #8, ...

........................................................................
.............................. CYCLE   24 ..............................
........................................................................

 iter      E             dE          RMSdq      gap      omega  full diag
   1    -74.4956381 -0.744956E+02  0.349E-02    1.68       0.0  T
   2    -74.4956386 -0.427652E-06  0.203E-02    1.68       1.0  T
   3    -74.4956383  0.260567E-06  0.352E-03    1.68       4.1  T
   4    -74.4956387 -0.364231E-06  0.147E-03    1.68       9.9  T
   5    -74.4956387 -0.271678E-07  0.491E-04    1.68      29.7  T
   6    -74.4956387 -0.165893E-08  0.226E-04    1.68      64.4  T
     SCC iter.                  ...        0 min,  0.018 sec
     gradient                   ...        0 min,  0.006 sec
 * total energy  :   -73.4851860 Eh     change       -0.4453689E-04 Eh
   gradient norm :     0.0035442 Eh/α   predicted    -0.2876469E-04 ( -35.41%)
   displ. norm   :     0.1957998 α      lambda       -0.7524440E-04
   maximum displ.:     0.0904316 α      in ANC's #3, #5, #8, ...

........................................................................
.............................. CYCLE   25 ..............................
........................................................................

 iter      E             dE          RMSdq      gap      omega  full diag
   1    -74.4951413 -0.744951E+02  0.535E-02    1.68       0.0  T
   2    -74.4951422 -0.842424E-06  0.311E-02    1.68       1.0  T
   3    -74.4951414  0.821311E-06  0.544E-03    1.68       2.7  T
   4    -74.4951424 -0.106065E-05  0.203E-03    1.68       7.2  T
   5    -74.4951425 -0.448114E-07  0.802E-04    1.68      18.2  T
   6    -74.4951425 -0.623315E-08  0.448E-04    1.68      32.6  T
     SCC iter.                  ...        0 min,  0.048 sec
     gradient                   ...        0 min,  0.006 sec
 * total energy  :   -73.4852447 Eh     change       -0.5870627E-04 Eh
   gradient norm :     0.0033130 Eh/α   predicted    -0.3910387E-04 ( -33.39%)
   displ. norm   :     0.2375855 α      lambda       -0.7926236E-04
   maximum displ.:     0.1171396 α      in ANC's #8, #5, #3, ...

........................................................................
.............................. CYCLE   26 ..............................
........................................................................

 iter      E             dE          RMSdq      gap      omega  full diag
   1    -74.4946238 -0.744946E+02  0.648E-02    1.68       0.0  T
   2    -74.4946248 -0.104367E-05  0.379E-02    1.69       1.0  T
   3    -74.4946234  0.142126E-05  0.648E-03    1.69       2.3  T
   4    -74.4946252 -0.178952E-05  0.199E-03    1.69       7.3  T
   5    -74.4946252 -0.344471E-07  0.921E-04    1.69      15.8  T
   6    -74.4946252 -0.113932E-07  0.478E-04    1.69      30.5  T
     SCC iter.                  ...        0 min,  0.018 sec
     gradient                   ...        0 min,  0.006 sec
 * total energy  :   -73.4853058 Eh     change       -0.6109519E-04 Eh
   gradient norm :     0.0026790 Eh/α   predicted    -0.4186883E-04 ( -31.47%)
   displ. norm   :     0.2158991 α      lambda       -0.7046343E-04
   maximum displ.:     0.1105541 α      in ANC's #8, #5, #3, ...

........................................................................
.............................. CYCLE   27 ..............................
........................................................................

 iter      E             dE          RMSdq      gap      omega  full diag
   1    -74.4947459 -0.744947E+02  0.586E-02    1.69       0.0  T
   2    -74.4947465 -0.644680E-06  0.344E-02    1.69       1.0  T
   3    -74.4947453  0.124220E-05  0.563E-03    1.69       2.6  T
   4    -74.4947468 -0.154201E-05  0.139E-03    1.69      10.5  T
   5    -74.4947469 -0.121066E-07  0.789E-04    1.69      18.5  T
   6    -74.4947469 -0.124699E-07  0.352E-04    1.69      41.5  T
     SCC iter.                  ...        0 min,  0.018 sec
     gradient                   ...        0 min,  0.005 sec
 * total energy  :   -73.4853628 Eh     change       -0.5694458E-04 Eh
   gradient norm :     0.0027386 Eh/α   predicted    -0.3688119E-04 ( -35.23%)
   displ. norm   :     0.2662032 α      lambda       -0.8408821E-04
   maximum displ.:     0.1367675 α      in ANC's #8, #5, #3, ...

........................................................................
.............................. CYCLE   28 ..............................
........................................................................

 iter      E             dE          RMSdq      gap      omega  full diag
   1    -74.4950177 -0.744950E+02  0.723E-02    1.69       0.0  T
   2    -74.4950186 -0.848445E-06  0.424E-02    1.69       1.0  T
   3    -74.4950168  0.175869E-05  0.661E-03    1.70       2.2  T
   4    -74.4950190 -0.218814E-05  0.160E-03    1.70       9.1  T
   5    -74.4950190 -0.142460E-07  0.969E-04    1.70      15.0  T
   6    -74.4950191 -0.244461E-07  0.381E-04    1.70      38.3  T
     SCC iter.                  ...        0 min,  0.017 sec
     gradient                   ...        0 min,  0.005 sec
 * total energy  :   -73.4854286 Eh     change       -0.6589501E-04 Eh
   gradient norm :     0.0034375 Eh/α   predicted    -0.4502877E-04 ( -31.67%)
   displ. norm   :     0.3042885 α      lambda       -0.8195720E-04
   maximum displ.:     0.1560786 α      in ANC's #8, #3, #5, ...

........................................................................
.............................. CYCLE   29 ..............................
........................................................................

 iter      E             dE          RMSdq      gap      omega  full diag
   1    -74.4949938 -0.744950E+02  0.830E-02    1.69       0.0  T
   2    -74.4949950 -0.127390E-05  0.487E-02    1.70       1.0  T
   3    -74.4949929  0.215542E-05  0.747E-03    1.70       2.0  T
   4    -74.4949956 -0.267590E-05  0.205E-03    1.70       7.1  T
   5    -74.4949956 -0.464749E-07  0.115E-03    1.70      12.7  T
   6    -74.4949956 -0.343037E-07  0.467E-04    1.70      31.2  T
   7    -74.4949956 -0.275263E-08  0.223E-04    1.70      65.4  T
     SCC iter.                  ...        0 min,  0.020 sec
     gradient                   ...        0 min,  0.005 sec
 * total energy  :   -73.4854894 Eh     change       -0.6075468E-04 Eh
   gradient norm :     0.0034434 Eh/α   predicted    -0.4479235E-04 ( -26.27%)
   displ. norm   :     0.2565628 α      lambda       -0.6261506E-04
   maximum displ.:     0.1322138 α      in ANC's #8, #3, #5, ...

........................................................................
.............................. CYCLE   30 ..............................
........................................................................

 iter      E             dE          RMSdq      gap      omega  full diag
   1    -74.4957349 -0.744957E+02  0.711E-02    1.70       0.0  T
   2    -74.4957359 -0.102969E-05  0.416E-02    1.70       1.0  T
   3    -74.4957345  0.147013E-05  0.649E-03    1.71       2.2  T
   4    -74.4957363 -0.182378E-05  0.194E-03    1.71       7.5  T
   5    -74.4957363 -0.472194E-07  0.102E-03    1.71      14.3  T
   6    -74.4957364 -0.277640E-07  0.416E-04    1.71      35.0  T
   7    -74.4957364 -0.254481E-08  0.210E-04    1.71      69.3  T
     SCC iter.                  ...        0 min,  0.019 sec
     gradient                   ...        0 min,  0.006 sec
 * total energy  :   -73.4855349 Eh     change       -0.4552379E-04 Eh
   gradient norm :     0.0025448 Eh/α   predicted    -0.3336897E-04 ( -26.70%)
   displ. norm   :     0.2493779 α      lambda       -0.4574717E-04
   maximum displ.:     0.1316253 α      in ANC's #8, #3, #5, ...

........................................................................
.............................. CYCLE   31 ..............................
........................................................................

 iter      E             dE          RMSdq      gap      omega  full diag
   1    -74.4955873 -0.744956E+02  0.701E-02    1.70       0.0  T
   2    -74.4955883 -0.100077E-05  0.410E-02    1.71       1.0  T
   3    -74.4955872  0.111285E-05  0.620E-03    1.71       2.4  T
   4    -74.4955886 -0.141559E-05  0.192E-03    1.71       7.6  T
   5    -74.4955886 -0.491651E-07  0.825E-04    1.71      17.7  T
   6    -74.4955887 -0.113392E-07  0.405E-04    1.71      36.0  T
     SCC iter.                  ...        0 min,  0.016 sec
     gradient                   ...        0 min,  0.006 sec
 * total energy  :   -73.4855695 Eh     change       -0.3454489E-04 Eh
   gradient norm :     0.0016815 Eh/α   predicted    -0.2429926E-04 ( -29.66%)
   displ. norm   :     0.3330460 α      lambda       -0.4903223E-04
   maximum displ.:     0.1743331 α      in ANC's #8, #3, #5, ...

........................................................................
.............................. CYCLE   32 ..............................
........................................................................

 iter      E             dE          RMSdq      gap      omega  full diag
   1    -74.4978871 -0.744979E+02  0.982E-02    1.71       0.0  T
   2    -74.4978895 -0.243853E-05  0.570E-02    1.71       1.0  T
   3    -74.4978873  0.222561E-05  0.948E-03    1.72       1.5  T
   4    -74.4978901 -0.275637E-05  0.339E-03    1.72       4.3  T
   5    -74.4978902 -0.175311E-06  0.113E-03    1.72      12.9  T
   6    -74.4978903 -0.149180E-07  0.486E-04    1.72      30.0  T
   7    -74.4978903 -0.390456E-08  0.280E-04    1.72      52.0  T
     SCC iter.                  ...        0 min,  0.020 sec
     gradient                   ...        0 min,  0.006 sec
 * total energy  :   -73.4856059 Eh     change       -0.3640051E-04 Eh
   gradient norm :     0.0029834 Eh/α   predicted    -0.2572762E-04 ( -29.32%)
   displ. norm   :     0.3398052 α      lambda       -0.4788076E-04
   maximum displ.:     0.1826912 α      in ANC's #8, #3, #5, ...

........................................................................
.............................. CYCLE   33 ..............................
........................................................................

 iter      E             dE          RMSdq      gap      omega  full diag
   1    -74.4935125 -0.744935E+02  0.979E-02    1.71       0.0  T
   2    -74.4935151 -0.265706E-05  0.568E-02    1.72       1.0  T
   3    -74.4935123  0.282280E-05  0.999E-03    1.72       1.5  T
   4    -74.4935158 -0.350364E-05  0.339E-03    1.72       4.3  T
   5    -74.4935160 -0.151015E-06  0.119E-03    1.72      12.3  T
   6    -74.4935160 -0.166064E-07  0.573E-04    1.72      25.4  T
   7    -74.4935160 -0.104914E-07  0.247E-04    1.72      59.1  T
     SCC iter.                  ...        0 min,  0.020 sec
     gradient                   ...        0 min,  0.005 sec
 * total energy  :   -73.4856162 Eh     change       -0.1030858E-04 Eh
   gradient norm :     0.0040174 Eh/α   predicted    -0.2671555E-04 ( 159.16%)
   displ. norm   :     0.1071043 α      lambda       -0.4636160E-04
   maximum displ.:     0.0561413 α      in ANC's #5, #8, #3, ...

........................................................................
.............................. CYCLE   34 ..............................
........................................................................

 iter      E             dE          RMSdq      gap      omega  full diag
   1    -74.4961886 -0.744962E+02  0.304E-02    1.72       0.0  T
   2    -74.4961890 -0.352932E-06  0.177E-02    1.72       1.0  T
   3    -74.4961887  0.321645E-06  0.318E-03    1.72       4.6  T
   4    -74.4961891 -0.391612E-06  0.123E-03    1.72      11.9  T
   5    -74.4961891 -0.289343E-07  0.601E-04    1.72      24.3  T
   6    -74.4961891 -0.100540E-07  0.197E-04    1.72      74.1  T
     SCC iter.                  ...        0 min,  0.017 sec
     gradient                   ...        0 min,  0.005 sec
 * total energy  :   -73.4856471 Eh     change       -0.3093325E-04 Eh
   gradient norm :     0.0018608 Eh/α   predicted    -0.2344708E-04 ( -24.20%)
   displ. norm   :     0.1824953 α      lambda       -0.3618270E-04
   maximum displ.:     0.0885513 α      in ANC's #6, #8, #1, ...

........................................................................
.............................. CYCLE   35 ..............................
........................................................................

 iter      E             dE          RMSdq      gap      omega  full diag
   1    -74.4977996 -0.744978E+02  0.611E-02    1.72       0.0  T
   2    -74.4978014 -0.183204E-05  0.330E-02    1.72       1.0  T
   3    -74.4977999  0.146993E-05  0.806E-03    1.72       1.8  T
   4    -74.4978016 -0.165416E-05  0.412E-03    1.72       3.5  T
   5    -74.4978019 -0.305961E-06  0.134E-03    1.72      10.9  T
   6    -74.4978019 -0.413820E-07  0.506E-04    1.72      28.8  T
   7    -74.4978019 -0.930515E-08  0.151E-04    1.72      96.3  T
     SCC iter.                  ...        0 min,  0.020 sec
     gradient                   ...        0 min,  0.007 sec
 * total energy  :   -73.4856834 Eh     change       -0.3625320E-04 Eh
   gradient norm :     0.0019144 Eh/α   predicted    -0.1835973E-04 ( -49.36%)
   displ. norm   :     0.3030230 α      lambda       -0.3160317E-04
   maximum displ.:     0.1413092 α      in ANC's #8, #6, #3, ...

........................................................................
.............................. CYCLE   36 ..............................
........................................................................

 iter      E             dE          RMSdq      gap      omega  full diag
   1    -74.4966879 -0.744967E+02  0.935E-02    1.71       0.0  T
   2    -74.4966907 -0.279055E-05  0.521E-02    1.72       1.0  T
   3    -74.4966889  0.185986E-05  0.103E-02    1.72       1.4  T
   4    -74.4966910 -0.215869E-05  0.508E-03    1.72       2.9  T
   5    -74.4966915 -0.431714E-06  0.141E-03    1.72      10.4  T
   6    -74.4966915 -0.496060E-07  0.628E-04    1.72      23.2  T
   7    -74.4966915 -0.158108E-07  0.204E-04    1.72      71.6  T
     SCC iter.                  ...        0 min,  0.020 sec
     gradient                   ...        0 min,  0.007 sec
 * total energy  :   -73.4857244 Eh     change       -0.4098553E-04 Eh
   gradient norm :     0.0023857 Eh/α   predicted    -0.1645013E-04 ( -59.86%)
   displ. norm   :     0.2876436 α      lambda       -0.5600871E-04
   maximum displ.:     0.1418079 α      in ANC's #6, #8, #1, ...

........................................................................
.............................. CYCLE   37 ..............................
........................................................................

 iter      E             dE          RMSdq      gap      omega  full diag
   1    -74.4955593 -0.744956E+02  0.868E-02    1.72       0.0  T
   2    -74.4955616 -0.230204E-05  0.482E-02    1.72       1.0  T
   3    -74.4955604  0.112111E-05  0.927E-03    1.73       1.6  T
   4    -74.4955618 -0.134666E-05  0.471E-03    1.73       3.1  T
   5    -74.4955622 -0.368310E-06  0.119E-03    1.73      12.3  T
   6    -74.4955622 -0.404120E-07  0.527E-04    1.73      27.7  T
   7    -74.4955622 -0.106356E-07  0.199E-04    1.73      73.2  T
     SCC iter.                  ...        0 min,  0.020 sec
     gradient                   ...        0 min,  0.007 sec
 * total energy  :   -73.4857741 Eh     change       -0.4978347E-04 Eh
   gradient norm :     0.0028607 Eh/α   predicted    -0.3032178E-04 ( -39.09%)
   displ. norm   :     0.4804045 α      lambda       -0.1085160E-03
   maximum displ.:     0.2561539 α      in ANC's #6, #1, #8, ...

........................................................................
.............................. CYCLE   38 ..............................
........................................................................

 iter      E             dE          RMSdq      gap      omega  full diag
   1    -74.4929070 -0.744929E+02  0.141E-01    1.72       0.0  T
   2    -74.4929138 -0.679417E-05  0.775E-02    1.73       1.0  T
   3    -74.4929116  0.222549E-05  0.152E-02    1.74       1.0  T
   4    -74.4929144 -0.280947E-05  0.789E-03    1.74       1.8  T
   5    -74.4929154 -0.102097E-05  0.198E-03    1.73       7.4  T
   6    -74.4929155 -0.112929E-06  0.852E-04    1.73      17.1  T
   7    -74.4929155 -0.258895E-07  0.359E-04    1.73      40.6  T
     SCC iter.                  ...        0 min,  0.021 sec
     gradient                   ...        0 min,  0.007 sec
 * total energy  :   -73.4858487 Eh     change       -0.7459901E-04 Eh
   gradient norm :     0.0056751 Eh/α   predicted    -0.6678242E-04 ( -10.48%)
   displ. norm   :     0.2451214 α      lambda       -0.9429640E-04
   maximum displ.:     0.1263807 α      in ANC's #6, #1, #2, ...

........................................................................
.............................. CYCLE   39 ..............................
........................................................................

 iter      E             dE          RMSdq      gap      omega  full diag
   1    -74.4933571 -0.744934E+02  0.617E-02    1.73       0.0  T
   2    -74.4933585 -0.147622E-05  0.337E-02    1.74       1.0  T
   3    -74.4933584  0.179010E-06  0.671E-03    1.74       2.2  T
   4    -74.4933587 -0.348922E-06  0.350E-03    1.74       4.2  T
   5    -74.4933589 -0.204848E-06  0.648E-04    1.74      22.5  T
   6    -74.4933589 -0.884280E-08  0.293E-04    1.74      49.7  T
     SCC iter.                  ...        0 min,  0.018 sec
     gradient                   ...        0 min,  0.007 sec
 * total energy  :   -73.4859218 Eh     change       -0.7307838E-04 Eh
   gradient norm :     0.0058744 Eh/α   predicted    -0.4998280E-04 ( -31.60%)
   displ. norm   :     0.3200930 α      lambda       -0.1442751E-03
   maximum displ.:     0.1531468 α      in ANC's #6, #1, #2, ...

........................................................................
.............................. CYCLE   40 ..............................
........................................................................

 iter      E             dE          RMSdq      gap      omega  full diag
   1    -74.4943846 -0.744944E+02  0.757E-02    1.74       0.0  T
   2    -74.4943868 -0.220459E-05  0.420E-02    1.74       1.0  T
   3    -74.4943863  0.482865E-06  0.807E-03    1.75       1.8  T
   4    -74.4943871 -0.722647E-06  0.405E-03    1.75       3.6  T
   5    -74.4943873 -0.272616E-06  0.940E-04    1.75      15.5  T
   6    -74.4943874 -0.229296E-07  0.376E-04    1.75      38.8  T
     SCC iter.                  ...        0 min,  0.018 sec
     gradient                   ...        0 min,  0.006 sec
 * total energy  :   -73.4860281 Eh     change       -0.1062560E-03 Eh
   gradient norm :     0.0047509 Eh/α   predicted    -0.7953032E-04 ( -25.15%)
   displ. norm   :     0.5090604 α      lambda       -0.1469073E-03
   maximum displ.:     0.2792374 α      in ANC's #6, #1, #2, ...

........................................................................
.............................. CYCLE   41 ..............................
........................................................................

 iter      E             dE          RMSdq      gap      omega  full diag
   1    -74.4916677 -0.744917E+02  0.124E-01    1.74       0.0  T
   2    -74.4916733 -0.558263E-05  0.682E-02    1.75       1.0  T
   3    -74.4916717  0.151514E-05  0.141E-02    1.76       1.0  T
   4    -74.4916738 -0.209428E-05  0.728E-03    1.76       2.0  T
   5    -74.4916747 -0.894184E-06  0.150E-03    1.76       9.7  T
   6    -74.4916748 -0.542958E-07  0.605E-04    1.76      24.1  T
   7    -74.4916748 -0.378289E-08  0.367E-04    1.76      39.8  T
     SCC iter.                  ...        0 min,  0.021 sec
     gradient                   ...        0 min,  0.006 sec
 * total energy  :   -73.4860942 Eh     change       -0.6608792E-04 Eh
   gradient norm :     0.0082588 Eh/α   predicted    -0.9249278E-04 (  39.95%)
   displ. norm   :     0.2300899 α      lambda       -0.2409369E-03
   maximum displ.:     0.1214035 α      in ANC's #5, #3, #15, ...

........................................................................
.............................. CYCLE   42 ..............................
........................................................................

 iter      E             dE          RMSdq      gap      omega  full diag
   1    -74.4999817 -0.745000E+02  0.620E-02    1.76       0.0  T
   2    -74.4999837 -0.200809E-05  0.359E-02    1.76       1.0  T
   3    -74.4999823  0.141591E-05  0.765E-03    1.76       1.9  T
   4    -74.4999840 -0.171558E-05  0.273E-03    1.76       5.3  T
   5    -74.4999842 -0.162395E-06  0.132E-03    1.76      11.0  T
   6    -74.4999842 -0.320741E-07  0.452E-04    1.76      32.2  T
   7    -74.4999842 -0.418852E-08  0.210E-04    1.76      69.4  T
     SCC iter.                  ...        0 min,  0.021 sec
     gradient                   ...        0 min,  0.007 sec
 * total energy  :   -73.4861394 Eh     change       -0.4524649E-04 Eh
   gradient norm :     0.0072660 Eh/α   predicted    -0.1268473E-03 ( 180.35%)
   displ. norm   :     0.2722877 α      lambda       -0.1890002E-03
   maximum displ.:     0.1413688 α      in ANC's #8, #3, #1, ...
 * RMSD in coord.:     0.6253215 α      energy gain  -0.1249294E-02 Eh

generating ANC from exact Hessian ...
Using Lindh-Hessian (1995)
 Shifting diagonal of input Hessian by   9.929339356109807E-003
 Lowest  eigenvalues of input Hessian
    0.000000    0.000000    0.000000    0.000000    0.000000    0.000000
    0.010000    0.010225    0.010551    0.010653    0.010797    0.011254
    0.011501    0.012001    0.012379    0.012540    0.012888    0.014461
 Highest eigenvalues
    1.938956    1.974845    2.010106    2.021842    2.084024    2.210509
 

........................................................................
.............................. CYCLE   43 ..............................
........................................................................

 iter      E             dE          RMSdq      gap      omega  full diag
   1    -74.4958221 -0.744958E+02  0.807E-02    1.75       0.0  T
   2    -74.4958245 -0.236221E-05  0.466E-02    1.76       1.0  T
   3    -74.4958224  0.205669E-05  0.892E-03    1.76       1.6  T
   4    -74.4958250 -0.254541E-05  0.317E-03    1.76       4.6  T
   5    -74.4958251 -0.131385E-06  0.136E-03    1.76      10.7  T
   6    -74.4958251 -0.447819E-07  0.575E-04    1.76      25.4  T
   7    -74.4958251 -0.107059E-07  0.223E-04    1.76      65.4  T
     SCC iter.                  ...        0 min,  0.031 sec
     gradient                   ...        0 min,  0.005 sec
 * total energy  :   -73.4862352 Eh     change       -0.9576983E-04 Eh
   gradient norm :     0.0050731 Eh/α   predicted     0.0000000E+00 (-100.00%)
   displ. norm   :     0.0565027 α      lambda       -0.7407941E-04
   maximum displ.:     0.0340863 α      in ANC's #6, #4, #12, ...

........................................................................
.............................. CYCLE   44 ..............................
........................................................................

 iter      E             dE          RMSdq      gap      omega  full diag
   1    -74.4972636 -0.744973E+02  0.188E-02    1.76       0.0  T
   2    -74.4972638 -0.195186E-06  0.108E-02    1.76       1.4  T
   3    -74.4972637  0.143936E-06  0.269E-03    1.76       5.4  T
   4    -74.4972639 -0.198882E-06  0.993E-04    1.76      14.7  T
   5    -74.4972639  0.839279E-09  0.523E-04    1.76      27.9  T
     SCC iter.                  ...        0 min,  0.050 sec
     gradient                   ...        0 min,  0.009 sec
 * total energy  :   -73.4862972 Eh     change       -0.6205655E-04 Eh
   gradient norm :     0.0022155 Eh/α   predicted    -0.3885068E-04 ( -37.39%)
   displ. norm   :     0.1530716 α      lambda       -0.1160280E-03
   maximum displ.:     0.0961475 α      in ANC's #6, #4, #12, ...

........................................................................
.............................. CYCLE   45 ..............................
........................................................................

 iter      E             dE          RMSdq      gap      omega  full diag
   1    -74.4983801 -0.744984E+02  0.448E-02    1.76       0.0  T
   2    -74.4983807 -0.669003E-06  0.252E-02    1.75       1.0  T
   3    -74.4983803  0.439766E-06  0.533E-03    1.75       2.7  T
   4    -74.4983808 -0.519912E-06  0.284E-03    1.75       5.1  T
   5    -74.4983809 -0.104182E-06  0.119E-03    1.75      12.2  T
   6    -74.4983810 -0.558861E-07  0.276E-04    1.75      52.8  T
   7    -74.4983810 -0.512287E-09  0.148E-04    1.75      98.5  T
     SCC iter.                  ...        0 min,  0.075 sec
     gradient                   ...        0 min,  0.007 sec
 * total energy  :   -73.4863770 Eh     change       -0.7978997E-04 Eh
   gradient norm :     0.0030836 Eh/α   predicted    -0.5937477E-04 ( -25.59%)
   displ. norm   :     0.1347511 α      lambda       -0.6168884E-04
   maximum displ.:     0.0854792 α      in ANC's #6, #4, #12, ...

........................................................................
.............................. CYCLE   46 ..............................
........................................................................

 iter      E             dE          RMSdq      gap      omega  full diag
   1    -74.4981108 -0.744981E+02  0.373E-02    1.75       0.0  T
   2    -74.4981112 -0.341313E-06  0.211E-02    1.75       1.0  T
   3    -74.4981110  0.192353E-06  0.388E-03    1.75       3.8  T
   4    -74.4981111 -0.125563E-06  0.254E-03    1.75       5.7  T
   5    -74.4981113 -0.189327E-06  0.539E-04    1.75      27.1  T
   6    -74.4981113 -0.883209E-08  0.225E-04    1.75      65.0  T
     SCC iter.                  ...        0 min,  0.066 sec
     gradient                   ...        0 min,  0.007 sec
 * total energy  :   -73.4864291 Eh     change       -0.5204419E-04 Eh
   gradient norm :     0.0043987 Eh/α   predicted    -0.3140619E-04 ( -39.65%)
   displ. norm   :     0.1902041 α      lambda       -0.9195060E-04
   maximum displ.:     0.1179702 α      in ANC's #6, #4, #12, ...

........................................................................
.............................. CYCLE   47 ..............................
........................................................................

 iter      E             dE          RMSdq      gap      omega  full diag
   1    -74.4970931 -0.744971E+02  0.513E-02    1.75       0.0  T
   2    -74.4970938 -0.635766E-06  0.292E-02    1.75       1.0  T
   3    -74.4970935  0.277520E-06  0.507E-03    1.75       2.9  T
   4    -74.4970937 -0.209031E-06  0.317E-03    1.75       4.6  T
   5    -74.4970940 -0.286283E-06  0.875E-04    1.75      16.7  T
   6    -74.4970940 -0.240985E-07  0.332E-04    1.75      44.0  T
     SCC iter.                  ...        0 min,  0.062 sec
     gradient                   ...        0 min,  0.007 sec
 * total energy  :   -73.4865074 Eh     change       -0.7837435E-04 Eh
   gradient norm :     0.0044223 Eh/α   predicted    -0.4763947E-04 ( -39.22%)
   displ. norm   :     0.2883870 α      lambda       -0.1329439E-03
   maximum displ.:     0.1796986 α      in ANC's #6, #4, #14, ...

........................................................................
.............................. CYCLE   48 ..............................
........................................................................

 iter      E             dE          RMSdq      gap      omega  full diag
   1    -74.4952981 -0.744953E+02  0.763E-02    1.74       0.0  T
   2    -74.4952996 -0.147828E-05  0.436E-02    1.75       1.0  T
   3    -74.4952992  0.453273E-06  0.751E-03    1.75       1.9  T
   4    -74.4952997 -0.534466E-06  0.422E-03    1.75       3.5  T
   5    -74.4953001 -0.388514E-06  0.126E-03    1.75      11.6  T
   6    -74.4953001 -0.511787E-07  0.506E-04    1.75      28.8  T
   7    -74.4953001 -0.378945E-08  0.291E-04    1.75      50.1  T
     SCC iter.                  ...        0 min,  0.052 sec
     gradient                   ...        0 min,  0.007 sec
 * total energy  :   -73.4866082 Eh     change       -0.1007421E-03 Eh
   gradient norm :     0.0047096 Eh/α   predicted    -0.7200270E-04 ( -28.53%)
   displ. norm   :     0.2876651 α      lambda       -0.1242160E-03
   maximum displ.:     0.1805101 α      in ANC's #6, #4, #14, ...

........................................................................
.............................. CYCLE   49 ..............................
........................................................................

 iter      E             dE          RMSdq      gap      omega  full diag
   1    -74.4940843 -0.744941E+02  0.737E-02    1.74       0.0  T
   2    -74.4940858 -0.147803E-05  0.417E-02    1.75       1.0  T
   3    -74.4940853  0.479117E-06  0.770E-03    1.75       1.9  T
   4    -74.4940859 -0.612863E-06  0.416E-03    1.75       3.5  T
   5    -74.4940863 -0.338566E-06  0.882E-04    1.75      16.5  T
   6    -74.4940863 -0.182720E-07  0.386E-04    1.75      37.8  T
     SCC iter.                  ...        0 min,  0.020 sec
     gradient                   ...        0 min,  0.006 sec
 * total energy  :   -73.4866975 Eh     change       -0.8928905E-04 Eh
   gradient norm :     0.0050034 Eh/α   predicted    -0.6724773E-04 ( -24.69%)
   displ. norm   :     0.2213650 α      lambda       -0.1374559E-03
   maximum displ.:     0.1327839 α      in ANC's #6, #4, #1, ...

........................................................................
.............................. CYCLE   50 ..............................
........................................................................

 iter      E             dE          RMSdq      gap      omega  full diag
   1    -74.4953949 -0.744954E+02  0.546E-02    1.74       0.0  T
   2    -74.4953960 -0.105884E-05  0.302E-02    1.75       1.0  T
   3    -74.4953955  0.516978E-06  0.666E-03    1.75       2.2  T
   4    -74.4953960 -0.556270E-06  0.363E-03    1.75       4.0  T
   5    -74.4953963 -0.245373E-06  0.997E-04    1.75      14.6  T
   6    -74.4953963 -0.318806E-07  0.388E-04    1.75      37.6  T
     SCC iter.                  ...        0 min,  0.020 sec
     gradient                   ...        0 min,  0.007 sec
 * total energy  :   -73.4867923 Eh     change       -0.9487177E-04 Eh
   gradient norm :     0.0034881 Eh/α   predicted    -0.7209612E-04 ( -24.01%)
   displ. norm   :     0.4048481 α      lambda       -0.1308040E-03
   maximum displ.:     0.2522140 α      in ANC's #6, #4, #1, ...

........................................................................
.............................. CYCLE   51 ..............................
........................................................................

 iter      E             dE          RMSdq      gap      omega  full diag
   1    -74.4935178 -0.744935E+02  0.105E-01    1.75       0.0  T
   2    -74.4935214 -0.353617E-05  0.582E-02    1.75       1.0  T
   3    -74.4935209  0.491097E-06  0.111E-02    1.75       1.3  T
   4    -74.4935213 -0.387281E-06  0.635E-03    1.75       2.3  T
   5    -74.4935222 -0.947303E-06  0.153E-03    1.75       9.5  T
   6    -74.4935223 -0.668723E-07  0.671E-04    1.75      21.7  T
   7    -74.4935223 -0.102763E-07  0.355E-04    1.75      41.1  T
     SCC iter.                  ...        0 min,  0.023 sec
     gradient                   ...        0 min,  0.006 sec
 * total energy  :   -73.4868381 Eh     change       -0.4574339E-04 Eh
   gradient norm :     0.0080252 Eh/α   predicted    -0.7613372E-04 (  66.44%)
   displ. norm   :     0.0680529 α      lambda       -0.1457906E-03
   maximum displ.:     0.0436933 α      in ANC's #12, #13, #10, ...

........................................................................
.............................. CYCLE   52 ..............................
........................................................................

 iter      E             dE          RMSdq      gap      omega  full diag
   1    -74.4980143 -0.744980E+02  0.257E-02    1.76       0.0  T
   2    -74.4980149 -0.648162E-06  0.146E-02    1.76       1.0  T
   3    -74.4980147  0.214397E-06  0.415E-03    1.76       3.5  T
   4    -74.4980150 -0.309923E-06  0.144E-03    1.76      10.2  T
   5    -74.4980150 -0.214832E-07  0.860E-04    1.76      17.0  T
   6    -74.4980150 -0.217558E-07  0.268E-04    1.76      54.5  T
     SCC iter.                  ...        0 min,  0.020 sec
     gradient                   ...        0 min,  0.007 sec
 * total energy  :   -73.4869157 Eh     change       -0.7762727E-04 Eh
   gradient norm :     0.0032818 Eh/α   predicted    -0.7324509E-04 (  -5.65%)
   displ. norm   :     0.1863956 α      lambda       -0.5080072E-04
   maximum displ.:     0.1179620 α      in ANC's #4, #6, #1, ...

........................................................................
.............................. CYCLE   53 ..............................
........................................................................

 iter      E             dE          RMSdq      gap      omega  full diag
   1    -74.4982597 -0.744983E+02  0.535E-02    1.76       0.0  T
   2    -74.4982608 -0.102915E-05  0.281E-02    1.76       1.0  T
   3    -74.4982608 -0.526104E-07  0.570E-03    1.76       2.6  T
   4    -74.4982607  0.686817E-07  0.321E-03    1.76       4.5  T
   5    -74.4982610 -0.290417E-06  0.516E-04    1.76      28.3  T
   6    -74.4982610 -0.527953E-08  0.282E-04    1.76      51.7  T
     SCC iter.                  ...        0 min,  0.020 sec
     gradient                   ...        0 min,  0.006 sec
 * total energy  :   -73.4869564 Eh     change       -0.4070610E-04 Eh
   gradient norm :     0.0026177 Eh/α   predicted    -0.2628301E-04 ( -35.43%)
   displ. norm   :     0.3161903 α      lambda       -0.7416272E-04
   maximum displ.:     0.2066902 α      in ANC's #4, #6, #1, ...

........................................................................
.............................. CYCLE   54 ..............................
........................................................................

 iter      E             dE          RMSdq      gap      omega  full diag
   1    -74.4971980 -0.744972E+02  0.938E-02    1.76       0.0  T
   2    -74.4972012 -0.329350E-05  0.488E-02    1.76       1.0  T
   3    -74.4972014 -0.147348E-06  0.993E-03    1.77       1.5  T
   4    -74.4972012  0.187229E-06  0.564E-03    1.77       2.6  T
   5    -74.4972021 -0.884794E-06  0.833E-04    1.77      17.5  T
   6    -74.4972021 -0.170976E-07  0.441E-04    1.77      33.1  T
     SCC iter.                  ...        0 min,  0.020 sec
     gradient                   ...        0 min,  0.006 sec
 * total energy  :   -73.4869953 Eh     change       -0.3887010E-04 Eh
   gradient norm :     0.0040520 Eh/α   predicted    -0.4079219E-04 (   4.94%)
   displ. norm   :     0.0584528 α      lambda       -0.4750756E-04
   maximum displ.:     0.0277204 α      in ANC's #4, #1, #7, ...

........................................................................
.............................. CYCLE   55 ..............................
........................................................................

 iter      E             dE          RMSdq      gap      omega  full diag
   1    -74.4982597 -0.744983E+02  0.254E-02    1.77       0.0  T
   2    -74.4982602 -0.417001E-06  0.132E-02    1.77       1.1  T
   3    -74.4982600  0.203235E-06  0.349E-03    1.77       4.2  T
   4    -74.4982602 -0.236903E-06  0.191E-03    1.77       7.6  T
   5    -74.4982603 -0.734917E-07  0.614E-04    1.77      23.8  T
   6    -74.4982603 -0.872538E-08  0.201E-04    1.77      72.4  T
     SCC iter.                  ...        0 min,  0.020 sec
     gradient                   ...        0 min,  0.007 sec
 * total energy  :   -73.4870226 Eh     change       -0.2736165E-04 Eh
   gradient norm :     0.0025631 Eh/α   predicted    -0.2383608E-04 ( -12.89%)
   displ. norm   :     0.1242945 α      lambda       -0.2938645E-04
   maximum displ.:     0.0824588 α      in ANC's #4, #1, #6, ...

........................................................................
.............................. CYCLE   56 ..............................
........................................................................

 iter      E             dE          RMSdq      gap      omega  full diag
   1    -74.4980813 -0.744981E+02  0.408E-02    1.76       0.0  T
   2    -74.4980820 -0.667078E-06  0.210E-02    1.77       1.0  T
   3    -74.4980819  0.759225E-07  0.433E-03    1.77       3.4  T
   4    -74.4980819 -0.698967E-08  0.282E-03    1.77       5.2  T
   5    -74.4980822 -0.228724E-06  0.593E-04    1.77      24.6  T
   6    -74.4980822 -0.118225E-07  0.224E-04    1.77      65.1  T
     SCC iter.                  ...        0 min,  0.019 sec
     gradient                   ...        0 min,  0.007 sec
 * total energy  :   -73.4870462 Eh     change       -0.2353819E-04 Eh
   gradient norm :     0.0023478 Eh/α   predicted    -0.1492150E-04 ( -36.61%)
   displ. norm   :     0.2695200 α      lambda       -0.5493960E-04
   maximum displ.:     0.1776355 α      in ANC's #4, #1, #6, ...

........................................................................
.............................. CYCLE   57 ..............................
........................................................................

 iter      E             dE          RMSdq      gap      omega  full diag
   1    -74.4968529 -0.744969E+02  0.864E-02    1.76       0.0  T
   2    -74.4968560 -0.308325E-05  0.448E-02    1.77       1.0  T
   3    -74.4968556  0.433330E-06  0.928E-03    1.77       1.6  T
   4    -74.4968558 -0.202671E-06  0.594E-03    1.77       2.5  T
   5    -74.4968567 -0.965199E-06  0.141E-03    1.77      10.3  T
   6    -74.4968568 -0.640198E-07  0.513E-04    1.77      28.5  T
   7    -74.4968568 -0.697231E-08  0.218E-04    1.77      66.8  T
     SCC iter.                  ...        0 min,  0.027 sec
     gradient                   ...        0 min,  0.009 sec
 * total energy  :   -73.4870822 Eh     change       -0.3598341E-04 Eh
   gradient norm :     0.0029578 Eh/α   predicted    -0.2946816E-04 ( -18.11%)
   displ. norm   :     0.1405231 α      lambda       -0.4449324E-04
   maximum displ.:     0.0726140 α      in ANC's #4, #1, #7, ...

[...]
           -------------------------------------------------
          |                Final Singlepoint                |
           -------------------------------------------------

          ...................................................
          :                      SETUP                      :
          :.................................................:
          :  # basis functions                 128          :
          :  # atomic orbitals                 127          :
          :  # shells                           73          :
          :  # electrons                       132          :
          :  max. iterations                   250          :
          :  Hamiltonian                  GFN2-xTB          :
          :  restarted?                      false          :
          :  GBSA solvation                  false          :
          :  PC potential                    false          :
          :  electronic temp.          300.0000000     K    :
          :  accuracy                    1.0000000          :
          :  -> integral cutoff          0.2500000E+02      :
          :  -> integral neglect         0.1000000E-07      :
          :  -> SCF convergence          0.1000000E-05 Eh   :
          :  -> wf. convergence          0.1000000E-03 e    :
          :  Broyden damping             0.4000000          :
          :  net charge                          0          :
          :  unpaired electrons                  0          :
          ...................................................

 iter      E             dE          RMSdq      gap      omega  full diag
   1    -74.4980260 -0.744980E+02  0.138E-04    1.77       0.0  T
   2    -74.4980260 -0.652420E-10  0.917E-05    1.77     159.0  T
   3    -74.4980260 -0.159815E-09  0.559E-05    1.77     260.8  T

   *** convergence criteria satisfied after 3 iterations ***

         #    Occupation            Energy/Eh            Energy/eV
      -------------------------------------------------------------
         1        2.0000           -0.7221141             -19.6497
       ...           ...                  ...                  ...
        60        2.0000           -0.4273179             -11.6279
        61        2.0000           -0.4215951             -11.4722
        62        2.0000           -0.4182437             -11.3810
        63        2.0000           -0.4107597             -11.1773
        64        2.0000           -0.4047613             -11.0141
        65        2.0000           -0.3859390             -10.5019
        66        2.0000           -0.3665941              -9.9755 (HOMO)
        67                         -0.3016276              -8.2077 (LUMO)
        68                         -0.2437852              -6.6337
        69                         -0.2384852              -6.4895
        70                         -0.2364735              -6.4348
        71                         -0.2252676              -6.1298
       ...                                ...                  ...
       127                          0.6959302              18.9372
      -------------------------------------------------------------
                  HL-Gap            0.0649665 Eh            1.7678 eV
             Fermi-level           -0.3341109 Eh           -9.0916 eV

 SCC (total)                   0 d,  0 h,  0 min,  0.021 sec
 SCC setup                      ...        0 min,  0.001 sec (  4.838%)
 Dispersion                     ...        0 min,  0.000 sec (  1.153%)
 classical contributions        ...        0 min,  0.000 sec (  0.800%)
 integral evaluation            ...        0 min,  0.001 sec (  6.357%)
 iterations                     ...        0 min,  0.010 sec ( 45.854%)
 molecular gradient             ...        0 min,  0.006 sec ( 28.289%)
 printout                       ...        0 min,  0.003 sec ( 12.573%)

         :::::::::::::::::::::::::::::::::::::::::::::::::::::
         ::                     SUMMARY                     ::
         :::::::::::::::::::::::::::::::::::::::::::::::::::::
         :: total energy             -73.487218388619 Eh    ::
         :: gradient norm              0.000365385917 Eh/a0 ::
         :: HOMO-LUMO gap              1.767828613442 eV    ::
         ::.................................................::
         :: SCC energy               -74.497606453089 Eh    ::
         :: -> isotropic ES            0.089449601610 Eh    ::
         :: -> anisotropic ES          0.002452721420 Eh    ::
         :: -> anisotropic XC          0.026850808174 Eh    ::
         :: -> dispersion             -0.049857892140 Eh    ::
         :: repulsion energy           1.010388064470 Eh    ::
         :: add. restraining           0.000000000000 Eh    ::
         :: total charge              -0.000000000000 e     ::
         :::::::::::::::::::::::::::::::::::::::::::::::::::::

           -------------------------------------------------
          |                Property Printout                |
           -------------------------------------------------

    * Orbital Energies and Occupations

         #    Occupation            Energy/Eh            Energy/eV
      -------------------------------------------------------------
         1        2.0000           -0.7221141             -19.6497
       ...           ...                  ...                  ...
        54        2.0000           -0.4436715             -12.0729
        55        2.0000           -0.4396371             -11.9631
        56        2.0000           -0.4361830             -11.8691
        57        2.0000           -0.4341243             -11.8131
        58        2.0000           -0.4295086             -11.6875
        59        2.0000           -0.4279332             -11.6447
        60        2.0000           -0.4273179             -11.6279
        61        2.0000           -0.4215951             -11.4722
        62        2.0000           -0.4182437             -11.3810
        63        2.0000           -0.4107597             -11.1773
        64        2.0000           -0.4047613             -11.0141
        65        2.0000           -0.3859390             -10.5019
        66        2.0000           -0.3665941              -9.9755 (HOMO)
        67                         -0.3016276              -8.2077 (LUMO)
        68                         -0.2437852              -6.6337
        69                         -0.2384852              -6.4895
        70                         -0.2364735              -6.4348
        71                         -0.2252676              -6.1298
        72                         -0.2031051              -5.5268
        73                         -0.1685584              -4.5867
        74                         -0.1512995              -4.1171
        75                         -0.1136207              -3.0918
        76                         -0.0933168              -2.5393
        77                         -0.0196454              -0.5346
       ...                                ...                  ...
       127                          0.6959302              18.9372
      -------------------------------------------------------------
                  HL-Gap            0.0649665 Eh            1.7678 eV
             Fermi-level           -0.3341109 Eh           -9.0916 eV

     #   Z          covCN         q      C6AA      α(0)
     1   8 O        0.857    -0.346    20.624     6.089
     2   6 C        2.835     0.211    23.538     7.950
     3   6 C        3.707     0.251    16.857     5.869
     4   8 O        1.701    -0.316    19.281     5.928
     5   6 C        3.647     0.044    20.152     6.450
     6   8 O        1.700    -0.336    19.643     5.984
     7   6 C        3.647     0.045    20.149     6.450
     8   6 C        2.987    -0.015    28.378     8.738
     9   6 C        2.922    -0.032    28.798     8.800
    10   6 C        2.945    -0.043    29.068     8.843
    11   6 C        2.966     0.052    26.825     8.495
    12  16 S        2.073    -0.170   148.230    20.491
    13   6 C        3.792    -0.019    20.914     6.513
    14   6 C        3.718     0.083    19.320     6.279
    15   8 O        1.656    -0.432    21.477     6.256
    16   6 C        2.978    -0.037    28.906     8.819
    17   6 C        2.923    -0.030    28.751     8.793
    18   6 C        2.893    -0.066    29.643     8.927
    19   6 C        2.907    -0.010    28.258     8.717
    20   6 C        2.970     0.017    27.639     8.623
    21   6 C        2.923    -0.028    28.704     8.786
    22   6 C        2.917    -0.027    28.684     8.783
    23   6 C        2.920    -0.024    28.609     8.771
    24   6 C        2.916    -0.027    28.670     8.780
    25   6 C        2.928    -0.028    28.700     8.786
    26   1 H        0.924     0.040     2.444     2.445
    27   1 H        0.925     0.061     2.184     2.311
    28   1 H        0.924     0.032     2.552     2.498
    29   1 H        0.925     0.058     2.225     2.332
    30   1 H        0.924     0.049     2.338     2.391
    31   1 H        0.924     0.028     2.614     2.529
    32   1 H        0.926     0.055     2.263     2.352
    33   1 H        0.926     0.040     2.448     2.446
    34   1 H        0.925     0.056     2.250     2.346
    35   1 H        0.924     0.046     2.374     2.409
    36   1 H        0.923     0.030     2.583     2.513
    37   1 H        0.924     0.061     2.183     2.311
    38   1 H        0.805     0.290     0.752     1.362
    39   1 H        0.926     0.053     2.284     2.363
    40   1 H        0.926     0.061     2.187     2.313
    41   1 H        0.926     0.055     2.253     2.347
    42   1 H        0.925     0.071     2.079     2.255
    43   1 H        0.926     0.040     2.451     2.448
    44   1 H        0.926     0.037     2.489     2.467
    45   1 H        0.926     0.038     2.471     2.458
    46   1 H        0.926     0.039     2.467     2.456
    47   1 H        0.926     0.043     2.414     2.430

 Mol. C6AA /au·bohr⁶  :      27094.958902
 Mol. C8AA /au·bohr⁸  :     682723.430841
 Mol. α(0) /au        :        258.704799


Wiberg/Mayer (AO) data.
largest (>0.10) Wiberg bond orders for each atom

 ---------------------------------------------------------------------------
     #   Z sym  total        # sym  WBO       # sym  WBO       # sym  WBO
 ---------------------------------------------------------------------------
     1   8 O    2.074 --     2 C    1.812
     2   6 C    3.926 --     1 O    1.812    18 C    1.074     3 C    0.898
     3   6 C    3.925 --     4 O    0.977     6 O    0.960     8 C    0.944
                             2 C    0.898
     4   8 O    2.094 --     5 C    0.981     3 C    0.977
     5   6 C    3.945 --     4 O    0.981    27 H    0.980    26 H    0.980
                            28 H    0.978
     6   8 O    2.078 --     7 C    0.981     3 C    0.960
     7   6 C    3.945 --     6 O    0.981    29 H    0.981    30 H    0.979
                            31 H    0.977
     8   6 C    3.981 --     9 C    1.409    17 C    1.386     3 C    0.944
     9   6 C    3.989 --    10 C    1.441     8 C    1.409    32 H    0.964
                            16 C    0.104
    10   6 C    3.988 --     9 C    1.441    11 C    1.395    33 H    0.966
                            17 C    0.103
    11   6 C    3.959 --    10 C    1.395    16 C    1.374    12 S    1.045
    12  16 S    2.230 --    11 C    1.045    13 C    0.983
    13   6 C    3.978 --    14 C    0.996    12 S    0.983    34 H    0.975
                            35 H    0.974
    14   6 C    3.956 --    15 O    1.004    13 C    0.996    37 H    0.971
                            36 H    0.970
    15   8 O    1.972 --    14 C    1.004    38 H    0.901
    16   6 C    3.989 --    17 C    1.469    11 C    1.374    39 H    0.967
                             9 C    0.104
    17   6 C    3.988 --    16 C    1.469     8 C    1.386    40 H    0.965
                            10 C    0.103
    18   6 C    3.988 --    19 C    1.746     2 C    1.074    41 H    0.959
    19   6 C    3.978 --    18 C    1.746    20 C    1.123    42 H    0.957
    20   6 C    3.990 --    25 C    1.361    21 C    1.358    19 C    1.123
    21   6 C    3.990 --    22 C    1.467    20 C    1.358    43 H    0.966
                            24 C    0.104
    22   6 C    3.992 --    21 C    1.467    23 C    1.424    44 H    0.970
                            25 C    0.103
    23   6 C    3.979 --    24 C    1.430    22 C    1.424    45 H    0.971
    24   6 C    3.992 --    25 C    1.461    23 C    1.430    46 H    0.970
                            21 C    0.104
    25   6 C    3.989 --    24 C    1.461    20 C    1.361    47 H    0.968
                            22 C    0.103
    26   1 H    0.998 --     5 C    0.980
    27   1 H    0.996 --     5 C    0.980
    28   1 H    0.999 --     5 C    0.978
    29   1 H    0.996 --     7 C    0.981
    30   1 H    0.998 --     7 C    0.979
    31   1 H    0.999 --     7 C    0.977
    32   1 H    0.997 --     9 C    0.964
    33   1 H    0.998 --    10 C    0.966
    34   1 H    0.997 --    13 C    0.975
    35   1 H    0.998 --    13 C    0.974
    36   1 H    0.999 --    14 C    0.970
    37   1 H    0.996 --    14 C    0.971
    38   1 H    0.916 --    15 O    0.901
    39   1 H    0.997 --    16 C    0.967
    40   1 H    0.996 --    17 C    0.965
    41   1 H    0.997 --    18 C    0.959
    42   1 H    0.994 --    19 C    0.957
    43   1 H    0.998 --    21 C    0.966
    44   1 H    0.998 --    22 C    0.970
    45   1 H    0.998 --    23 C    0.971
    46   1 H    0.998 --    24 C    0.970
    47   1 H    0.998 --    25 C    0.968
 ---------------------------------------------------------------------------

Topologies differ in total number of bonds
Writing topology from bond orders to xtbtopo.mol

molecular dipole:
                 x           y           z       tot (Debye)
 q only:        0.854       0.748       1.086
   full:        1.231       0.697       1.407       5.071
molecular quadrupole (traceless):
                xx          xy          yy          xz          yz          zz
 q only:       -0.516      12.859       9.428       8.507      -6.675      -8.912
  q+dip:       -7.608      17.898      11.789       7.038      -8.270      -4.181
   full:       -6.107      15.903      13.769       8.249      -8.362      -7.662

           -------------------------------------------------
          |                Geometry Summary                 |
           -------------------------------------------------

      molecular mass/u    :      358.4518216
   center of mass at/Å    :       -0.2223664       0.0124122      -0.2335248
  moments of inertia/u·Å² :        0.2616029E+04   0.4196091E+04   0.6113626E+04
rotational constants/cm⁻¹ :        0.6443977E-02   0.4017461E-02   0.2757387E-02

 * 42 selected distances

     #   Z          #   Z                                           value/Å
     1   8 O        2   6 C                                       1.2087012
     3   6 C        4   8 O                                       1.4007255
     4   8 O        5   6 C                                       1.4136603
     3   6 C        6   8 O                                       1.4119585
     6   8 O        7   6 C                                       1.4145337
     8   6 C        9   6 C                                       1.3862869
     9   6 C       10   6 C                                       1.3833725
    10   6 C       11   6 C                                       1.3880640
    13   6 C       14   6 C                                       1.5275812 (max)
    14   6 C       15   8 O                                       1.4040288
    11   6 C       16   6 C                                       1.3928828
     8   6 C       17   6 C                                       1.3921787
    16   6 C       17   6 C                                       1.3780515
    18   6 C       19   6 C                                       1.3423171
    20   6 C       21   6 C                                       1.3984158
    21   6 C       22   6 C                                       1.3805077
    22   6 C       23   6 C                                       1.3865522
    23   6 C       24   6 C                                       1.3857192
    20   6 C       25   6 C                                       1.3987311
    24   6 C       25   6 C                                       1.3809710
     5   6 C       26   1 H                                       1.0941463
     5   6 C       27   1 H                                       1.0878127
     5   6 C       28   1 H                                       1.0947639
     7   6 C       29   1 H                                       1.0882718
     7   6 C       30   1 H                                       1.0926688
     7   6 C       31   1 H                                       1.0956834
     9   6 C       32   1 H                                       1.0783188
    10   6 C       33   1 H                                       1.0786597
    13   6 C       34   1 H                                       1.0904659
    13   6 C       35   1 H                                       1.0918656
    14   6 C       36   1 H                                       1.0987273
    14   6 C       37   1 H                                       1.0921740
    15   8 O       38   1 H                                       0.9639997 (min)
    16   6 C       39   1 H                                       1.0788946
    17   6 C       40   1 H                                       1.0796931
    18   6 C       41   1 H                                       1.0785421
    19   6 C       42   1 H                                       1.0842945
    21   6 C       43   1 H                                       1.0788851
    22   6 C       44   1 H                                       1.0802333
    23   6 C       45   1 H                                       1.0797805
    24   6 C       46   1 H                                       1.0799924
    25   6 C       47   1 H                                       1.0804251

 * 4 distinct bonds (by element types)

   Z      Z             #   av. dist./Å        max./Å        min./Å
   1 H    6 C          21     1.0859190     1.0987273     1.0783188
   6 C    6 C          14     1.3944023     1.5275812     1.3423171
   1 H    8 O           1     0.9639997     0.9639997     0.9639997
   6 C    8 O           6     1.3756013     1.4145337     1.2087012


optimized geometry written to: xtbopt.xyz


           -------------------------------------------------
          | TOTAL ENERGY              -73.487218388619 Eh   |
          | GRADIENT NORM               0.000365385917 Eh/α |
          | HOMO-LUMO GAP               1.767828613442 eV   |
           -------------------------------------------------
########################################################################
[WARNING] Runtime exception occurred
-2- restart_readRestart: Dimension missmatch in restart file.
-1- restart_readRestart: Number of electron missmatch in restart file.
########################################################################

------------------------------------------------------------------------
 * finished run on 2025/12/01 at 14:19:01.995     
------------------------------------------------------------------------
 total:
 * wall-time:     0 d,  0 h,  0 min,  2.577 sec
 *  cpu-time:     0 d,  0 h,  0 min, 58.512 sec
 * ratio c/w:    22.703 speedup
 SCF:
 * wall-time:     0 d,  0 h,  0 min,  0.057 sec
 *  cpu-time:     0 d,  0 h,  0 min,  1.301 sec
 * ratio c/w:    22.779 speedup
 ANC optimizer:
 * wall-time:     0 d,  0 h,  0 min,  2.498 sec
 *  cpu-time:     0 d,  0 h,  0 min, 56.957 sec
 * ratio c/w:    22.799 speedup

normal termination of xtb
