      -----------------------------------------------------------      
     |                   =====================                   |     
     |                           x T B                           |     
     |                   =====================                   |     
     |                         S. Grimme                         |     
     |          Mulliken Center for Theoretical Chemistry        |     
     |                    University of Bonn                     |     
      -----------------------------------------------------------      

   * xtb version 6.7.1 (edcfbbe) compiled by 'albert@albert-system' on 2024-07-22

   xtb is free software: you can redistribute it and/or modify it under
   the terms of the GNU Lesser General Public License as published by
   the Free Software Foundation, either version 3 of the License, or
   (at your option) any later version.
   
   xtb is distributed in the hope that it will be useful,
   but WITHOUT ANY WARRANTY; without even the implied warranty of
   MERCHANTABILITY or FITNESS FOR A PARTICULAR PURPOSE.  See the
   GNU Lesser General Public License for more details.
   
   Cite this work as:
   * C. Bannwarth, E. Caldeweyher, S. Ehlert, A. Hansen, P. Pracht,
     J. Seibert, S. Spicher, S. Grimme, WIREs Comput. Mol. Sci., 2020, 11,
     e01493. DOI: 10.1002/wcms.1493
   
   for GFN2-xTB:
   * C. Bannwarth, S. Ehlert and S. Grimme., J. Chem. Theory Comput., 2019,
     15, 1652-1671. DOI: 10.1021/acs.jctc.8b01176
   for GFN1-xTB:
   * S. Grimme, C. Bannwarth, P. Shushkov, J. Chem. Theory Comput., 2017,
     13, 1989-2009. DOI: 10.1021/acs.jctc.7b00118
   for GFN0-xTB:
   * P. Pracht, E. Caldeweyher, S. Ehlert, S. Grimme, ChemRxiv, 2019, preprint.
     DOI: 10.26434/chemrxiv.8326202.v1
   for GFN-FF:
   * S. Spicher and S. Grimme, Angew. Chem. Int. Ed., 2020, 59, 15665-15673.
     DOI: 10.1002/anie.202004239
   
   for ALPB and GBSA implicit solvation:
   * S. Ehlert, M. Stahn, S. Spicher, S. Grimme, J. Chem. Theory Comput.,
     2021, 17, 4250-4261. DOI: 10.1021/acs.jctc.1c00471
   
   for ddCOSMO and CPCM-X implicit solvation:
   * M. Stahn, S. Ehlert, S. Grimme, J. Phys. Chem. A,
     2023, XX, XXXX-XXXX. DOI: 10.1021/acs.jpca.3c04382
   
   for DFT-D4:
   * E. Caldeweyher, C. Bannwarth and S. Grimme, J. Chem. Phys., 2017,
     147, 034112. DOI: 10.1063/1.4993215
   * E. Caldeweyher, S. Ehlert, A. Hansen, H. Neugebauer, S. Spicher,
     C. Bannwarth and S. Grimme, J. Chem. Phys., 2019, 150, 154122.
     DOI: 10.1063/1.5090222
   * E. Caldeweyher, J.-M. Mewes, S. Ehlert and S. Grimme, Phys. Chem. Chem. Phys.
     2020, 22, 8499-8512. DOI: 10.1039/D0CP00502A
   
   for sTDA-xTB:
   * S. Grimme and C. Bannwarth, J. Chem. Phys., 2016, 145, 054103.
     DOI: 10.1063/1.4959605
   
   in the mass-spec context:
   * V. Asgeirsson, C. Bauer and S. Grimme, Chem. Sci., 2017, 8, 4879.
     DOI: 10.1039/c7sc00601b
   * J. Koopman and S. Grimme, ACS Omega 2019, 4, 12, 15120-15133.
     DOI: 10.1021/acsomega.9b02011
   
   for metadynamics refer to:
   * S. Grimme, J. Chem. Theory Comput., 2019, 155, 2847-2862
     DOI: 10.1021/acs.jctc.9b00143
   
   for SPH calculations refer to:
   * S. Spicher and S. Grimme, J. Chem. Theory Comput., 2021, 17, 1701-1714
     DOI: 10.1021/acs.jctc.0c01306
   
   for ONIOM refer to:
   * C. Plett, A. Katbashev, S. Ehlert, S. Grimme, M. Bursch,
     Phys. Chem. Chem. Phys., 2023, 25, 17860-17868. DOI: 10.1039/D3CP02178E
   
   for DIPRO refer to:
   * J. Kohn, N. Gildemeister, S. Grimme, D. Fazzi, A. Hansen,
     J. Chem. Phys., 2023, just accepted.
   
   for PTB refer to:
   * S. Grimme, M. Mueller, A. Hansen, J. Chem. Phys., 2023, 158, 124111.
     DOI: 10.1063/5.0137838
   
   with help from (in alphabetical order)
   P. Atkinson, C. Bannwarth, F. Bohle, G. Brandenburg, E. Caldeweyher
   M. Checinski, S. Dohm, S. Ehlert, S. Ehrlich, I. Gerasimov, C. Hölzer
   A. Katbashev, J. Kohn, J. Koopman, C. Lavigne, S. Lehtola, F. März, M. Müller,
   F. Musil, H. Neugebauer, J. Pisarek, C. Plett, P. Pracht, F. Pultar,
   J. Seibert, P. Shushkov, S. Spicher, M. Stahn, M. Steiner, T. Strunk,
   J. Stückrath, T. Rose, and J. Unsleber
   
 * started run on 2025/12/01 at 14:19:18.236     
   ID    Z sym.   atoms
    1    6 C      1, 2, 4, 5, 7, 8, 10, 11, 13, 15-17
    2    8 O      3, 6, 9, 12, 14
    3    1 H      18-39

           -------------------------------------------------
          |                Calculation Setup                |
           -------------------------------------------------

          program call               : xtb pipeline_data/3_conformer_xyz/acrylates/rdkit/RBFPEAGEJJSYCX-UHFFFAOYSA-N_conf240.xyz --opt --gfn 2-xTB --iterations 250
          coordinate file            : pipeline_data/3_conformer_xyz/acrylates/rdkit/RBFPEAGEJJSYCX-UHFFFAOYSA-N_conf240.xyz
          omp threads                :                    24

########################################################################
[WARNING] Please study the warnings concerning your input carefully
-1- readin_getIntValue: could not parse '2-xTB'
########################################################################

           -------------------------------------------------
          |                 G F N 2 - x T B                 |
           -------------------------------------------------

        Reference                      10.1021/acs.jctc.8b01176
      * Hamiltonian:
        H0-scaling (s, p, d)           1.850000    2.230000    2.230000
        zeta-weighting                 0.500000
      * Dispersion:
        s8                             2.700000
        a1                             0.520000
        a2                             5.000000
        s9                             5.000000
      * Repulsion:
        kExp                           1.500000    1.000000
        rExp                           1.000000
      * Coulomb:
        alpha                          2.000000
        third order                    shell-resolved
        anisotropic                    true
        a3                             3.000000
        a5                             4.000000
        cn-shift                       1.200000
        cn-exp                         4.000000
        max-rad                        5.000000

q/qsh data taken from xtbrestart
CAMM data taken from xtbrestart

          ...................................................
          :                      SETUP                      :
          :.................................................:
          :  # basis functions                  90          :
          :  # atomic orbitals                  90          :
          :  # shells                           56          :
          :  # electrons                       100          :
          :  max. iterations                   250          :
          :  Hamiltonian                  GFN2-xTB          :
          :  restarted?                       true          :
          :  GBSA solvation                  false          :
          :  PC potential                    false          :
          :  electronic temp.          300.0000000     K    :
          :  accuracy                    1.0000000          :
          :  -> integral cutoff          0.2500000E+02      :
          :  -> integral neglect         0.1000000E-07      :
          :  -> SCF convergence          0.1000000E-05 Eh   :
          :  -> wf. convergence          0.1000000E-03 e    :
          :  Broyden damping             0.4000000          :
          :  net charge                          0          :
          :  unpaired electrons                  0          :
          ...................................................

 iter      E             dE          RMSdq      gap      omega  full diag
   1    -57.7370881 -0.577371E+02  0.453E+00    2.82       0.0  T
   2    -57.7481998 -0.111116E-01  0.265E+00    2.78       1.0  T
   3    -57.7489150 -0.715288E-03  0.351E-01    2.86       1.0  T
   4    -57.7501434 -0.122840E-02  0.217E-01    2.85       1.0  T
   5    -57.7510627 -0.919245E-03  0.101E-01    2.87       1.0  T
   6    -57.7511372 -0.744674E-04  0.244E-02    2.86       1.0  T
   7    -57.7511402 -0.302078E-05  0.846E-03    2.86       1.9  T
   8    -57.7511406 -0.382307E-06  0.392E-03    2.86       4.1  T
   9    -57.7511407 -0.107985E-06  0.179E-03    2.86       8.9  T
  10    -57.7511407 -0.276130E-07  0.545E-04    2.86      29.4  T
  11    -57.7511407 -0.924359E-09  0.186E-04    2.86      86.3  T

   *** convergence criteria satisfied after 11 iterations ***

         #    Occupation            Energy/Eh            Energy/eV
      -------------------------------------------------------------
         1        2.0000           -0.7327351             -19.9387
       ...           ...                  ...                  ...
        44        2.0000           -0.4360390             -11.8652
        45        2.0000           -0.4315939             -11.7443
        46        2.0000           -0.4231304             -11.5140
        47        2.0000           -0.4160057             -11.3201
        48        2.0000           -0.3993730             -10.8675
        49        2.0000           -0.3970408             -10.8040
        50        2.0000           -0.3917442             -10.6599 (HOMO)
        51                         -0.2865596              -7.7977 (LUMO)
        52                         -0.1716598              -4.6711
        53                         -0.0239966              -0.6530
        54                          0.0259277               0.7055
        55                          0.0493586               1.3431
       ...                                ...                  ...
        90                          0.6298267              17.1385
      -------------------------------------------------------------
                  HL-Gap            0.1051846 Eh            2.8622 eV
             Fermi-level           -0.3391519 Eh           -9.2288 eV

 SCC (total)                   0 d,  0 h,  0 min,  0.034 sec
 SCC setup                      ...        0 min,  0.000 sec (  1.291%)
 Dispersion                     ...        0 min,  0.001 sec (  1.748%)
 classical contributions        ...        0 min,  0.000 sec (  0.282%)
 integral evaluation            ...        0 min,  0.002 sec (  4.434%)
 iterations                     ...        0 min,  0.028 sec ( 81.803%)
 molecular gradient             ...        0 min,  0.003 sec (  9.675%)
 printout                       ...        0 min,  0.000 sec (  0.656%)

         :::::::::::::::::::::::::::::::::::::::::::::::::::::
         ::                     SUMMARY                     ::
         :::::::::::::::::::::::::::::::::::::::::::::::::::::
         :: total energy             -57.172932781961 Eh    ::
         :: gradient norm              0.156834547058 Eh/a0 ::
         :: HOMO-LUMO gap              2.862219823930 eV    ::
         ::.................................................::
         :: SCC energy               -57.751165204702 Eh    ::
         :: -> isotropic ES            0.096426754088 Eh    ::
         :: -> anisotropic ES          0.008605872135 Eh    ::
         :: -> anisotropic XC          0.006026058785 Eh    ::
         :: -> dispersion             -0.027007913595 Eh    ::
         :: repulsion energy           0.578232422741 Eh    ::
         :: add. restraining           0.000000000000 Eh    ::
         :: total charge               0.000000000000 e     ::
         :::::::::::::::::::::::::::::::::::::::::::::::::::::

      ----------------------------------------------------------- 
     |                   =====================                   |
     |                        A N C O P T                        |
     |                   =====================                   |
     |               Approximate Normal Coordinate               |
     |                Rational Function Optimizer                |
      ----------------------------------------------------------- 
      ----------------------------------------------------------- 
     |                   =====================                   |
     |                        A N C O P T                        |
     |                   =====================                   |
     |               Approximate Normal Coordinate               |
     |                Rational Function Optimizer                |
      ----------------------------------------------------------- 

          ...................................................
          :                      SETUP                      :
          :.................................................:
          :   optimization level            normal          :
          :   max. optcycles                   200          :
          :   ANC micro-cycles                  20          :
          :   degrees of freedom               111          :
          :.................................................:
          :   RF solver                   davidson          :
          :   write xtbopt.log                true          :
          :   linear?                        false          :
          :   energy convergence         0.5000000E-05 Eh   :
          :   grad. convergence          0.1000000E-02 Eh/α :
          :   maxmium RF displ.          1.0000000          :
          :   Hlow (freq-cutoff)         0.1000000E-01      :
          :   Hmax (freq-cutoff)         5.0000000          :
          :   S6 in model hess.         20.0000000          :
          ...................................................

generating ANC from exact Hessian ...
Using Lindh-Hessian (1995)
 Shifting diagonal of input Hessian by   9.882803654895139E-003
 Lowest  eigenvalues of input Hessian
    0.000000    0.000000    0.000000    0.000000    0.000000    0.010000
    0.000000    0.010119    0.010399    0.010503    0.010989    0.011682
    0.012006    0.012823    0.013963    0.014419    0.017424    0.018071
 Highest eigenvalues
    1.643690    1.692921    1.758697    1.811856    1.868757    2.127741
 

........................................................................
.............................. CYCLE    1 ..............................
........................................................................

 iter      E             dE          RMSdq      gap      omega  full diag
   1    -57.7511407 -0.577511E+02  0.586E-05    2.86       0.0  T
   2    -57.7511407 -0.574119E-11  0.370E-05    2.86     432.6  T
   3    -57.7511407 -0.123634E-11  0.999E-06    2.86    1602.5  T
     SCC iter.                  ...        0 min,  0.007 sec
     gradient                   ...        0 min,  0.003 sec
 * total energy  :   -57.1729328 Eh     change       -0.1300506E-09 Eh
   gradient norm :     0.1568341 Eh/α   predicted     0.0000000E+00 (-100.00%)
   displ. norm   :     0.3528111 α      lambda       -0.2722387E-01
   maximum displ.:     0.1148113 α      in ANC's #16, #10, #30, ...

........................................................................
.............................. CYCLE    2 ..............................
........................................................................

 iter      E             dE          RMSdq      gap      omega  full diag
   1    -57.7822013 -0.577822E+02  0.251E-01    3.18       0.0  T
   2    -57.7825246 -0.323258E-03  0.154E-01    3.12       1.0  T
   3    -57.7825017  0.228732E-04  0.620E-02    3.11       1.0  T
   4    -57.7825357 -0.340390E-04  0.241E-02    3.09       1.0  T
   5    -57.7825533 -0.175477E-04  0.849E-03    3.10       1.9  T
   6    -57.7825551 -0.184491E-05  0.313E-03    3.10       5.1  T
   7    -57.7825552 -0.711813E-07  0.114E-03    3.10      14.0  T
   8    -57.7825552 -0.377788E-08  0.419E-04    3.10      38.2  T
   9    -57.7825552 -0.804448E-09  0.140E-04    3.10     114.8  T
     SCC iter.                  ...        0 min,  0.016 sec
     gradient                   ...        0 min,  0.003 sec
 * total energy  :   -57.1918951 Eh     change       -0.1896233E-01 Eh
   gradient norm :     0.0641613 Eh/α   predicted    -0.1531911E-01 ( -19.21%)
   displ. norm   :     0.3812830 α      lambda       -0.9179804E-02
   maximum displ.:     0.1600312 α      in ANC's #10, #16, #19, ...

........................................................................
.............................. CYCLE    3 ..............................
........................................................................

 iter      E             dE          RMSdq      gap      omega  full diag
   1    -57.7985975 -0.577986E+02  0.177E-01    3.35       0.0  T
   2    -57.7987504 -0.152849E-03  0.109E-01    3.31       1.0  T
   3    -57.7987385  0.119116E-04  0.437E-02    3.29       1.0  T
   4    -57.7987557 -0.172316E-04  0.178E-02    3.29       1.0  T
   5    -57.7987645 -0.878086E-05  0.677E-03    3.29       2.4  T
   6    -57.7987657 -0.123030E-05  0.187E-03    3.29       8.6  T
   7    -57.7987657 -0.202574E-07  0.780E-04    3.29      20.5  T
   8    -57.7987657 -0.194560E-08  0.282E-04    3.29      56.8  T
     SCC iter.                  ...        0 min,  0.014 sec
     gradient                   ...        0 min,  0.003 sec
 * total energy  :   -57.1976280 Eh     change       -0.5732936E-02 Eh
   gradient norm :     0.0191626 Eh/α   predicted    -0.5262240E-02 (  -8.21%)
   displ. norm   :     0.3709141 α      lambda       -0.2649079E-02
   maximum displ.:     0.1910977 α      in ANC's #10, #16, #9, ...

........................................................................
.............................. CYCLE    4 ..............................
........................................................................

 iter      E             dE          RMSdq      gap      omega  full diag
   1    -57.7985512 -0.577986E+02  0.108E-01    3.37       0.0  T
   2    -57.7985728 -0.215784E-04  0.658E-02    3.36       1.0  T
   3    -57.7985721  0.720226E-06  0.153E-02    3.36       1.0  T
   4    -57.7985743 -0.220034E-05  0.479E-03    3.36       3.3  T
   5    -57.7985746 -0.371750E-06  0.224E-03    3.36       7.2  T
   6    -57.7985747 -0.988733E-07  0.111E-03    3.36      14.4  T
   7    -57.7985747 -0.209221E-07  0.340E-04    3.36      47.1  T
   8    -57.7985747 -0.612879E-09  0.107E-04    3.36     149.4  T
     SCC iter.                  ...        0 min,  0.015 sec
     gradient                   ...        0 min,  0.003 sec
 * total energy  :   -57.1996565 Eh     change       -0.2028420E-02 Eh
   gradient norm :     0.0147319 Eh/α   predicted    -0.1506792E-02 ( -25.72%)
   displ. norm   :     0.4964615 α      lambda       -0.2369737E-02
   maximum displ.:     0.2524171 α      in ANC's #10, #16, #9, ...

........................................................................
.............................. CYCLE    5 ..............................
........................................................................

 iter      E             dE          RMSdq      gap      omega  full diag
   1    -57.7959270 -0.577959E+02  0.132E-01    3.41       0.0  T
   2    -57.7959483 -0.212578E-04  0.801E-02    3.41       1.0  T
   3    -57.7959475  0.764717E-06  0.153E-02    3.41       1.0  T
   4    -57.7959499 -0.243548E-05  0.557E-03    3.41       2.9  T
   5    -57.7959505 -0.599477E-06  0.300E-03    3.41       5.3  T
   6    -57.7959507 -0.183526E-06  0.123E-03    3.41      13.0  T
   7    -57.7959507 -0.148244E-07  0.377E-04    3.41      42.4  T
   8    -57.7959507 -0.470791E-09  0.116E-04    3.41     137.5  T
     SCC iter.                  ...        0 min,  0.014 sec
     gradient                   ...        0 min,  0.003 sec
 * total energy  :   -57.2013840 Eh     change       -0.1727568E-02 Eh
   gradient norm :     0.0160861 Eh/α   predicted    -0.1476908E-02 ( -14.51%)
   displ. norm   :     0.4294262 α      lambda       -0.1509395E-02
   maximum displ.:     0.2175443 α      in ANC's #10, #9, #16, ...

........................................................................
.............................. CYCLE    6 ..............................
........................................................................

 iter      E             dE          RMSdq      gap      omega  full diag
   1    -57.7960492 -0.577960E+02  0.108E-01    3.44       0.0  T
   2    -57.7960544 -0.518872E-05  0.654E-02    3.44       1.0  T
   3    -57.7960518  0.259252E-05  0.118E-02    3.44       1.4  T
   4    -57.7960552 -0.338638E-05  0.539E-03    3.44       3.0  T
   5    -57.7960559 -0.708393E-06  0.174E-03    3.44       9.2  T
   6    -57.7960559 -0.120281E-07  0.567E-04    3.44      28.2  T
   7    -57.7960559 -0.190297E-08  0.226E-04    3.44      71.0  T
     SCC iter.                  ...        0 min,  0.013 sec
     gradient                   ...        0 min,  0.003 sec
 * total energy  :   -57.2024942 Eh     change       -0.1110205E-02 Eh
   gradient norm :     0.0161353 Eh/α   predicted    -0.8938845E-03 ( -19.48%)
   displ. norm   :     0.3826560 α      lambda       -0.1179213E-02
   maximum displ.:     0.1910240 α      in ANC's #9, #10, #16, ...

........................................................................
.............................. CYCLE    7 ..............................
........................................................................

 iter      E             dE          RMSdq      gap      omega  full diag
   1    -57.7994259 -0.577994E+02  0.105E-01    3.44       0.0  T
   2    -57.7994301 -0.416985E-05  0.637E-02    3.44       1.0  T
   3    -57.7994280  0.208043E-05  0.110E-02    3.44       1.5  T
   4    -57.7994309 -0.290581E-05  0.468E-03    3.44       3.4  T
   5    -57.7994314 -0.464417E-06  0.186E-03    3.44       8.6  T
   6    -57.7994314 -0.209700E-07  0.630E-04    3.44      25.4  T
   7    -57.7994314 -0.356087E-08  0.223E-04    3.44      71.8  T
     SCC iter.                  ...        0 min,  0.013 sec
     gradient                   ...        0 min,  0.003 sec
 * total energy  :   -57.2033563 Eh     change       -0.8620608E-03 Eh
   gradient norm :     0.0127422 Eh/α   predicted    -0.6759404E-03 ( -21.59%)
   displ. norm   :     0.3825911 α      lambda       -0.8613674E-03
   maximum displ.:     0.1693384 α      in ANC's #10, #9, #16, ...

........................................................................
.............................. CYCLE    8 ..............................
........................................................................

 iter      E             dE          RMSdq      gap      omega  full diag
   1    -57.8020656 -0.578021E+02  0.104E-01    3.45       0.0  T
   2    -57.8020765 -0.108978E-04  0.628E-02    3.45       1.0  T
   3    -57.8020746  0.184448E-05  0.131E-02    3.45       1.2  T
   4    -57.8020766 -0.195844E-05  0.655E-03    3.45       2.4  T
   5    -57.8020779 -0.127946E-05  0.205E-03    3.45       7.8  T
   6    -57.8020779 -0.376399E-07  0.890E-04    3.45      18.0  T
   7    -57.8020779 -0.568479E-08  0.252E-04    3.45      63.5  T
     SCC iter.                  ...        0 min,  0.013 sec
     gradient                   ...        0 min,  0.004 sec
 * total energy  :   -57.2039768 Eh     change       -0.6204586E-03 Eh
   gradient norm :     0.0092943 Eh/α   predicted    -0.4937309E-03 ( -20.42%)
   displ. norm   :     0.3748030 α      lambda       -0.6718302E-03
   maximum displ.:     0.1500898 α      in ANC's #9, #16, #10, ...

........................................................................
.............................. CYCLE    9 ..............................
........................................................................

 iter      E             dE          RMSdq      gap      omega  full diag
   1    -57.8043579 -0.578044E+02  0.111E-01    3.45       0.0  T
   2    -57.8043624 -0.449148E-05  0.668E-02    3.45       1.0  T
   3    -57.8043629 -0.449315E-06  0.684E-03    3.45       2.3  T
   4    -57.8043635 -0.625038E-06  0.305E-03    3.45       5.3  T
   5    -57.8043635 -0.334205E-07  0.182E-03    3.45       8.8  T
   6    -57.8043636 -0.376175E-07  0.810E-04    3.45      19.8  T
   7    -57.8043636 -0.127826E-07  0.233E-04    3.45      68.8  T
     SCC iter.                  ...        0 min,  0.014 sec
     gradient                   ...        0 min,  0.004 sec
 * total energy  :   -57.2044533 Eh     change       -0.4765013E-03 Eh
   gradient norm :     0.0073512 Eh/α   predicted    -0.3831371E-03 ( -19.59%)
   displ. norm   :     0.3889334 α      lambda       -0.5010298E-03
   maximum displ.:     0.1675717 α      in ANC's #11, #16, #10, ...

........................................................................
.............................. CYCLE   10 ..............................
........................................................................

 iter      E             dE          RMSdq      gap      omega  full diag
   1    -57.8037347 -0.578037E+02  0.110E-01    3.47       0.0  T
   2    -57.8037404 -0.562576E-05  0.659E-02    3.47       1.0  T
   3    -57.8037405 -0.168694E-06  0.762E-03    3.47       2.1  T
   4    -57.8037410 -0.512911E-06  0.449E-03    3.47       3.6  T
   5    -57.8037415 -0.446325E-06  0.207E-03    3.47       7.7  T
   6    -57.8037415 -0.292831E-07  0.564E-04    3.47      28.4  T
   7    -57.8037415 -0.289193E-08  0.190E-04    3.47      84.2  T
     SCC iter.                  ...        0 min,  0.013 sec
     gradient                   ...        0 min,  0.004 sec
 * total energy  :   -57.2047936 Eh     change       -0.3403464E-03 Eh
   gradient norm :     0.0095356 Eh/α   predicted    -0.2884119E-03 ( -15.26%)
   displ. norm   :     0.3605311 α      lambda       -0.5798192E-03
   maximum displ.:     0.1816901 α      in ANC's #5, #12, #11, ...

........................................................................
.............................. CYCLE   11 ..............................
........................................................................

 iter      E             dE          RMSdq      gap      omega  full diag
   1    -57.8099363 -0.578099E+02  0.105E-01    3.50       0.0  T
   2    -57.8099449 -0.856683E-05  0.617E-02    3.49       1.0  T
   3    -57.8099413  0.356067E-05  0.137E-02    3.49       1.2  T
   4    -57.8099451 -0.380546E-05  0.650E-03    3.49       2.5  T
   5    -57.8099464 -0.122082E-05  0.205E-03    3.49       7.8  T
   6    -57.8099464 -0.861481E-08  0.742E-04    3.49      21.6  T
   7    -57.8099464 -0.306071E-08  0.193E-04    3.49      83.1  T
     SCC iter.                  ...        0 min,  0.013 sec
     gradient                   ...        0 min,  0.003 sec
 * total energy  :   -57.2050108 Eh     change       -0.2171438E-03 Eh
   gradient norm :     0.0129735 Eh/α   predicted    -0.3275940E-03 (  50.87%)
   displ. norm   :     0.3473011 α      lambda       -0.5130111E-03
   maximum displ.:     0.1575239 α      in ANC's #11, #16, #5, ...

........................................................................
.............................. CYCLE   12 ..............................
........................................................................

 iter      E             dE          RMSdq      gap      omega  full diag
   1    -57.8028048 -0.578028E+02  0.108E-01    3.51       0.0  T
   2    -57.8028131 -0.829893E-05  0.645E-02    3.52       1.0  T
   3    -57.8028118  0.131734E-05  0.110E-02    3.52       1.5  T
   4    -57.8028136 -0.181886E-05  0.595E-03    3.52       2.7  T
   5    -57.8028145 -0.959539E-06  0.227E-03    3.52       7.1  T
   6    -57.8028146 -0.215581E-07  0.877E-04    3.52      18.3  T
   7    -57.8028146 -0.517271E-08  0.248E-04    3.52      64.6  T
     SCC iter.                  ...        0 min,  0.013 sec
     gradient                   ...        0 min,  0.003 sec
 * total energy  :   -57.2052397 Eh     change       -0.2289410E-03 Eh
   gradient norm :     0.0100261 Eh/α   predicted    -0.2874494E-03 (  25.56%)
   displ. norm   :     0.1345223 α      lambda       -0.2950004E-03
   maximum displ.:     0.0975592 α      in ANC's #9, #16, #14, ...

........................................................................
.............................. CYCLE   13 ..............................
........................................................................

 iter      E             dE          RMSdq      gap      omega  full diag
   1    -57.8074158 -0.578074E+02  0.440E-02    3.52       0.0  T
   2    -57.8074215 -0.574221E-05  0.260E-02    3.52       1.0  T
   3    -57.8074207  0.809283E-06  0.107E-02    3.53       1.5  T
   4    -57.8074217 -0.101457E-05  0.422E-03    3.53       3.8  T
   5    -57.8074223 -0.541344E-06  0.114E-03    3.53      14.1  T
   6    -57.8074223 -0.214613E-07  0.525E-04    3.53      30.5  T
   7    -57.8074223 -0.102142E-08  0.124E-04    3.53     128.7  T
     SCC iter.                  ...        0 min,  0.013 sec
     gradient                   ...        0 min,  0.004 sec
 * total energy  :   -57.2054002 Eh     change       -0.1605235E-03 Eh
   gradient norm :     0.0073372 Eh/α   predicted    -0.1501841E-03 (  -6.44%)
   displ. norm   :     0.1878186 α      lambda       -0.3285059E-03
   maximum displ.:     0.0900147 α      in ANC's #5, #6, #9, ...

........................................................................
.............................. CYCLE   14 ..............................
........................................................................

 iter      E             dE          RMSdq      gap      omega  full diag
   1    -57.8073766 -0.578074E+02  0.555E-02    3.55       0.0  T
   2    -57.8073803 -0.370983E-05  0.328E-02    3.55       1.0  T
   3    -57.8073777  0.260056E-05  0.107E-02    3.55       1.5  T
   4    -57.8073805 -0.277713E-05  0.431E-03    3.55       3.7  T
   5    -57.8073811 -0.546245E-06  0.115E-03    3.55      13.9  T
   6    -57.8073811 -0.523359E-08  0.614E-04    3.55      26.1  T
   7    -57.8073811 -0.170697E-08  0.155E-04    3.55     103.6  T
     SCC iter.                  ...        0 min,  0.019 sec
     gradient                   ...        0 min,  0.003 sec
 * total energy  :   -57.2055861 Eh     change       -0.1858684E-03 Eh
   gradient norm :     0.0057642 Eh/α   predicted    -0.1700503E-03 (  -8.51%)
   displ. norm   :     0.3266732 α      lambda       -0.2455649E-03
   maximum displ.:     0.1719594 α      in ANC's #5, #6, #7, ...

........................................................................
.............................. CYCLE   15 ..............................
........................................................................

 iter      E             dE          RMSdq      gap      omega  full diag
   1    -57.8051656 -0.578052E+02  0.863E-02    3.56       0.0  T
   2    -57.8051676 -0.197118E-05  0.510E-02    3.56       1.0  T
   3    -57.8051592  0.839103E-05  0.173E-02    3.56       1.0  T
   4    -57.8051690 -0.976993E-05  0.293E-03    3.56       5.5  T
   5    -57.8051691 -0.808064E-07  0.161E-03    3.56       9.9  T
   6    -57.8051691 -0.801958E-08  0.531E-04    3.56      30.1  T
   7    -57.8051691 -0.288583E-08  0.142E-04    3.56     112.6  T
     SCC iter.                  ...        0 min,  0.017 sec
     gradient                   ...        0 min,  0.003 sec
 * total energy  :   -57.2057388 Eh     change       -0.1527000E-03 Eh
   gradient norm :     0.0077924 Eh/α   predicted    -0.1358896E-03 ( -11.01%)
   displ. norm   :     0.2157020 α      lambda       -0.1842606E-03
   maximum displ.:     0.1116812 α      in ANC's #5, #6, #9, ...

........................................................................
.............................. CYCLE   16 ..............................
........................................................................

 iter      E             dE          RMSdq      gap      omega  full diag
   1    -57.8062138 -0.578062E+02  0.540E-02    3.58       0.0  T
   2    -57.8062154 -0.166608E-05  0.319E-02    3.58       1.0  T
   3    -57.8062100  0.537833E-05  0.137E-02    3.58       1.2  T
   4    -57.8062162 -0.616360E-05  0.269E-03    3.58       6.0  T
   5    -57.8062164 -0.157719E-06  0.105E-03    3.58      15.2  T
   6    -57.8062164 -0.353347E-08  0.466E-04    3.58      34.3  T
   7    -57.8062164 -0.605397E-09  0.101E-04    3.58     158.7  T
     SCC iter.                  ...        0 min,  0.013 sec
     gradient                   ...        0 min,  0.003 sec
 * total energy  :   -57.2058561 Eh     change       -0.1173461E-03 Eh
   gradient norm :     0.0053474 Eh/α   predicted    -0.9641763E-04 ( -17.83%)
   displ. norm   :     0.3216906 α      lambda       -0.2291881E-03
   maximum displ.:     0.1570807 α      in ANC's #5, #6, #9, ...

........................................................................
.............................. CYCLE   17 ..............................
........................................................................

 iter      E             dE          RMSdq      gap      omega  full diag
   1    -57.8043574 -0.578044E+02  0.995E-02    3.57       0.0  T
   2    -57.8043625 -0.506959E-05  0.594E-02    3.57       1.0  T
   3    -57.8043626 -0.100642E-06  0.622E-03    3.57       2.6  T
   4    -57.8043632 -0.626180E-06  0.306E-03    3.57       5.2  T
   5    -57.8043633 -0.112671E-06  0.184E-03    3.57       8.7  T
   6    -57.8043634 -0.353448E-07  0.739E-04    3.57      21.7  T
   7    -57.8043634 -0.665662E-08  0.205E-04    3.57      78.0  T
     SCC iter.                  ...        0 min,  0.012 sec
     gradient                   ...        0 min,  0.003 sec
 * total energy  :   -57.2059619 Eh     change       -0.1057901E-03 Eh
   gradient norm :     0.0116084 Eh/α   predicted    -0.1264539E-03 (  19.53%)
   displ. norm   :     0.1475619 α      lambda       -0.2150810E-03
   maximum displ.:     0.0558114 α      in ANC's #9, #2, #16, ...

........................................................................
.............................. CYCLE   18 ..............................
........................................................................

 iter      E             dE          RMSdq      gap      omega  full diag
   1    -57.8079793 -0.578080E+02  0.454E-02    3.60       0.0  T
   2    -57.8079865 -0.713801E-05  0.276E-02    3.59       1.0  T
   3    -57.8079847  0.180001E-05  0.114E-02    3.59       1.4  T
   4    -57.8079864 -0.169267E-05  0.521E-03    3.59       3.1  T
   5    -57.8079872 -0.874956E-06  0.905E-04    3.59      17.7  T
   6    -57.8079873 -0.103935E-07  0.472E-04    3.59      33.9  T
     SCC iter.                  ...        0 min,  0.010 sec
     gradient                   ...        0 min,  0.003 sec
 * total energy  :   -57.2060550 Eh     change       -0.9307128E-04 Eh
   gradient norm :     0.0054064 Eh/α   predicted    -0.1098859E-03 (  18.07%)
   displ. norm   :     0.1217913 α      lambda       -0.8062181E-04
   maximum displ.:     0.0568541 α      in ANC's #5, #7, #6, ...

........................................................................
.............................. CYCLE   19 ..............................
........................................................................

 iter      E             dE          RMSdq      gap      omega  full diag
   1    -57.8074138 -0.578074E+02  0.375E-02    3.59       0.0  T
   2    -57.8074143 -0.473451E-06  0.222E-02    3.59       1.0  T
   3    -57.8074142  0.652120E-07  0.292E-03    3.59       5.5  T
   4    -57.8074144 -0.168198E-06  0.143E-03    3.59      11.2  T
   5    -57.8074144 -0.339373E-07  0.705E-04    3.59      22.7  T
   6    -57.8074144 -0.318947E-08  0.283E-04    3.59      56.5  T
     SCC iter.                  ...        0 min,  0.011 sec
     gradient                   ...        0 min,  0.003 sec
 * total energy  :   -57.2061111 Eh     change       -0.5610653E-04 Eh
   gradient norm :     0.0033637 Eh/α   predicted    -0.4091021E-04 ( -27.08%)
   displ. norm   :     0.1671084 α      lambda       -0.8190756E-04
   maximum displ.:     0.0676817 α      in ANC's #5, #7, #4, ...

........................................................................
.............................. CYCLE   20 ..............................
........................................................................

 iter      E             dE          RMSdq      gap      omega  full diag
   1    -57.8071076 -0.578071E+02  0.514E-02    3.59       0.0  T
   2    -57.8071082 -0.548532E-06  0.306E-02    3.59       1.0  T
   3    -57.8071079  0.285627E-06  0.432E-03    3.59       3.7  T
   4    -57.8071084 -0.486350E-06  0.175E-03    3.59       9.2  T
   5    -57.8071084 -0.407444E-07  0.899E-04    3.59      17.8  T
   6    -57.8071084 -0.548948E-08  0.276E-04    3.59      58.1  T
     SCC iter.                  ...        0 min,  0.010 sec
     gradient                   ...        0 min,  0.003 sec
 * total energy  :   -57.2061634 Eh     change       -0.5227338E-04 Eh
   gradient norm :     0.0040610 Eh/α   predicted    -0.4209882E-04 ( -19.46%)
   displ. norm   :     0.1528129 α      lambda       -0.6053300E-04
   maximum displ.:     0.0639211 α      in ANC's #7, #2, #10, ...
 * RMSD in coord.:     0.6743097 α      energy gain  -0.3323059E-01 Eh

generating ANC from exact Hessian ...
Using Lindh-Hessian (1995)
 Shifting diagonal of input Hessian by   9.875603129762925E-003
 Lowest  eigenvalues of input Hessian
    0.000000    0.000000    0.000000    0.000000    0.000000    0.010000
    0.000000    0.010134    0.010298    0.010559    0.011043    0.011428
    0.011752    0.012576    0.013912    0.015111    0.017468    0.017751
 Highest eigenvalues
    1.574503    1.591259    1.602928    1.830679    1.922538    2.377637
 

........................................................................
.............................. CYCLE   21 ..............................
........................................................................

 iter      E             dE          RMSdq      gap      omega  full diag
   1    -57.8070814 -0.578071E+02  0.426E-02    3.60       0.0  T
   2    -57.8070817 -0.397369E-06  0.254E-02    3.60       1.0  T
   3    -57.8070802  0.153931E-05  0.719E-03    3.59       2.2  T
   4    -57.8070820 -0.178934E-05  0.136E-03    3.59      11.7  T
   5    -57.8070820 -0.188601E-07  0.721E-04    3.59      22.2  T
   6    -57.8070820 -0.156758E-08  0.210E-04    3.59      76.3  T
     SCC iter.                  ...        0 min,  0.011 sec
     gradient                   ...        0 min,  0.003 sec
 * total energy  :   -57.2062031 Eh     change       -0.3970264E-04 Eh
   gradient norm :     0.0042035 Eh/α   predicted     0.0000000E+00 (-100.00%)
   displ. norm   :     0.0361186 α      lambda       -0.4956604E-04
   maximum displ.:     0.0155684 α      in ANC's #4, #5, #3, ...

........................................................................
.............................. CYCLE   22 ..............................
........................................................................

 iter      E             dE          RMSdq      gap      omega  full diag
   1    -57.8079372 -0.578079E+02  0.123E-02    3.60       0.0  T
   2    -57.8079373 -0.166570E-06  0.739E-03    3.60       2.2  T
   3    -57.8079371  0.215500E-06  0.294E-03    3.60       5.4  T
   4    -57.8079374 -0.250315E-06  0.862E-04    3.60      18.6  T
   5    -57.8079374 -0.195890E-07  0.282E-04    3.60      56.8  T
     SCC iter.                  ...        0 min,  0.009 sec
     gradient                   ...        0 min,  0.003 sec
 * total energy  :   -57.2062405 Eh     change       -0.3744032E-04 Eh
   gradient norm :     0.0015255 Eh/α   predicted    -0.2482243E-04 ( -33.70%)
   displ. norm   :     0.1272755 α      lambda       -0.5284316E-04
   maximum displ.:     0.0617249 α      in ANC's #4, #5, #3, ...

........................................................................
.............................. CYCLE   23 ..............................
........................................................................

 iter      E             dE          RMSdq      gap      omega  full diag
   1    -57.8088847 -0.578089E+02  0.363E-02    3.61       0.0  T
   2    -57.8088852 -0.503529E-06  0.218E-02    3.61       1.0  T
   3    -57.8088847  0.567391E-06  0.473E-03    3.61       3.4  T
   4    -57.8088854 -0.708364E-06  0.163E-03    3.61       9.8  T
   5    -57.8088854 -0.520302E-07  0.746E-04    3.61      21.5  T
   6    -57.8088854 -0.256090E-08  0.209E-04    3.61      76.7  T
     SCC iter.                  ...        0 min,  0.011 sec
     gradient                   ...        0 min,  0.003 sec
 * total energy  :   -57.2062844 Eh     change       -0.4392889E-04 Eh
   gradient norm :     0.0034551 Eh/α   predicted    -0.2661207E-04 ( -39.42%)
   displ. norm   :     0.0745096 α      lambda       -0.3065198E-04
   maximum displ.:     0.0379899 α      in ANC's #4, #5, #3, ...

........................................................................
.............................. CYCLE   24 ..............................
........................................................................

 iter      E             dE          RMSdq      gap      omega  full diag
   1    -57.8086456 -0.578086E+02  0.194E-02    3.61       0.0  T
   2    -57.8086456 -0.731415E-07  0.116E-02    3.61       1.4  T
   3    -57.8086456 -0.125237E-07  0.103E-03    3.61      15.6  T
   4    -57.8086457 -0.128483E-07  0.623E-04    3.61      25.7  T
   5    -57.8086457 -0.506442E-08  0.304E-04    3.61      52.8  T
     SCC iter.                  ...        0 min,  0.010 sec
     gradient                   ...        0 min,  0.003 sec
 * total energy  :   -57.2063123 Eh     change       -0.2784624E-04 Eh
   gradient norm :     0.0030282 Eh/α   predicted    -0.1559770E-04 ( -43.99%)
   displ. norm   :     0.2551040 α      lambda       -0.1001690E-03
   maximum displ.:     0.1309893 α      in ANC's #4, #5, #3, ...

........................................................................
.............................. CYCLE   25 ..............................
........................................................................

 iter      E             dE          RMSdq      gap      omega  full diag
   1    -57.8072092 -0.578072E+02  0.658E-02    3.60       0.0  T
   2    -57.8072100 -0.829633E-06  0.393E-02    3.60       1.0  T
   3    -57.8072103 -0.265443E-06  0.288E-03    3.60       5.6  T
   4    -57.8072103 -0.442512E-07  0.178E-03    3.60       9.0  T
   5    -57.8072103 -0.164816E-07  0.106E-03    3.60      15.1  T
   6    -57.8072104 -0.218393E-07  0.260E-04    3.60      61.6  T
   7    -57.8072104 -0.510028E-09  0.102E-04    3.60     157.3  T
     SCC iter.                  ...        0 min,  0.012 sec
     gradient                   ...        0 min,  0.003 sec
 * total energy  :   -57.2063842 Eh     change       -0.7186414E-04 Eh
   gradient norm :     0.0025976 Eh/α   predicted    -0.5343808E-04 ( -25.64%)
   displ. norm   :     0.2021835 α      lambda       -0.5127946E-04
   maximum displ.:     0.1087047 α      in ANC's #4, #5, #3, ...

........................................................................
.............................. CYCLE   26 ..............................
........................................................................

 iter      E             dE          RMSdq      gap      omega  full diag
   1    -57.8065321 -0.578065E+02  0.516E-02    3.60       0.0  T
   2    -57.8065325 -0.446030E-06  0.306E-02    3.60       1.0  T
   3    -57.8065327 -0.184494E-06  0.195E-03    3.60       8.2  T
   4    -57.8065327 -0.912435E-08  0.110E-03    3.60      14.5  T
   5    -57.8065327  0.623103E-09  0.608E-04    3.60      26.4  T
   6    -57.8065327 -0.781755E-08  0.206E-04    3.60      77.9  T
     SCC iter.                  ...        0 min,  0.011 sec
     gradient                   ...        0 min,  0.003 sec
 * total energy  :   -57.2064227 Eh     change       -0.3850580E-04 Eh
   gradient norm :     0.0037481 Eh/α   predicted    -0.2670546E-04 ( -30.65%)
   displ. norm   :     0.1708539 α      lambda       -0.5242171E-04
   maximum displ.:     0.0958570 α      in ANC's #4, #5, #3, ...

........................................................................
.............................. CYCLE   27 ..............................
........................................................................

 iter      E             dE          RMSdq      gap      omega  full diag
   1    -57.8069216 -0.578069E+02  0.436E-02    3.61       0.0  T
   2    -57.8069219 -0.315466E-06  0.257E-02    3.60       1.0  T
   3    -57.8069219  0.108145E-09  0.234E-03    3.60       6.8  T
   4    -57.8069220 -0.104556E-06  0.136E-03    3.60      11.8  T
   5    -57.8069220 -0.310310E-07  0.601E-04    3.60      26.6  T
   6    -57.8069220 -0.148960E-08  0.177E-04    3.60      90.3  T
     SCC iter.                  ...        0 min,  0.011 sec
     gradient                   ...        0 min,  0.003 sec
 * total energy  :   -57.2064681 Eh     change       -0.4541071E-04 Eh
   gradient norm :     0.0035962 Eh/α   predicted    -0.2697682E-04 ( -40.59%)
   displ. norm   :     0.3010824 α      lambda       -0.1015119E-03
   maximum displ.:     0.1699123 α      in ANC's #4, #5, #3, ...

........................................................................
.............................. CYCLE   28 ..............................
........................................................................

 iter      E             dE          RMSdq      gap      omega  full diag
   1    -57.8075210 -0.578075E+02  0.775E-02    3.61       0.0  T
   2    -57.8075218 -0.791729E-06  0.457E-02    3.61       1.0  T
   3    -57.8075219 -0.100303E-06  0.348E-03    3.61       4.6  T
   4    -57.8075221 -0.222100E-06  0.205E-03    3.61       7.8  T
   5    -57.8075222 -0.507523E-07  0.104E-03    3.61      15.5  T
   6    -57.8075222 -0.101677E-07  0.301E-04    3.61      53.2  T
   7    -57.8075222 -0.737607E-09  0.980E-05    3.61     163.4  T
     SCC iter.                  ...        0 min,  0.014 sec
     gradient                   ...        0 min,  0.003 sec
 * total energy  :   -57.2065526 Eh     change       -0.8456548E-04 Eh
   gradient norm :     0.0035506 Eh/α   predicted    -0.5536800E-04 ( -34.53%)
   displ. norm   :     0.4387205 α      lambda       -0.1276718E-03
   maximum displ.:     0.2469515 α      in ANC's #4, #5, #3, ...

........................................................................
.............................. CYCLE   29 ..............................
........................................................................

 iter      E             dE          RMSdq      gap      omega  full diag
   1    -57.8067502 -0.578068E+02  0.113E-01    3.61       0.0  T
   2    -57.8067516 -0.138035E-05  0.664E-02    3.61       1.0  T
   3    -57.8067522 -0.652516E-06  0.336E-03    3.61       4.8  T
   4    -57.8067523 -0.467753E-07  0.195E-03    3.61       8.2  T
   5    -57.8067523 -0.115738E-07  0.587E-04    3.61      27.3  T
   6    -57.8067523 -0.279681E-08  0.204E-04    3.61      78.7  T
     SCC iter.                  ...        0 min,  0.012 sec
     gradient                   ...        0 min,  0.004 sec
 * total energy  :   -57.2066551 Eh     change       -0.1024349E-03 Eh
   gradient norm :     0.0047547 Eh/α   predicted    -0.7612760E-04 ( -25.68%)
   displ. norm   :     0.4699233 α      lambda       -0.1512344E-03
   maximum displ.:     0.2635782 α      in ANC's #4, #5, #3, ...

........................................................................
.............................. CYCLE   30 ..............................
........................................................................

 iter      E             dE          RMSdq      gap      omega  full diag
   1    -57.8070968 -0.578071E+02  0.120E-01    3.62       0.0  T
   2    -57.8070984 -0.157728E-05  0.707E-02    3.62       1.0  T
   3    -57.8070989 -0.501520E-06  0.396E-03    3.62       4.0  T
   4    -57.8070991 -0.232670E-06  0.214E-03    3.62       7.5  T
   5    -57.8070991 -0.123206E-07  0.687E-04    3.62      23.3  T
   6    -57.8070991 -0.221327E-08  0.202E-04    3.62      79.1  T
     SCC iter.                  ...        0 min,  0.013 sec
     gradient                   ...        0 min,  0.003 sec
 * total energy  :   -57.2067711 Eh     change       -0.1159970E-03 Eh
   gradient norm :     0.0049863 Eh/α   predicted    -0.9231591E-04 ( -20.42%)
   displ. norm   :     0.4374148 α      lambda       -0.1435682E-03
   maximum displ.:     0.2401625 α      in ANC's #4, #5, #3, ...

........................................................................
.............................. CYCLE   31 ..............................
........................................................................

 iter      E             dE          RMSdq      gap      omega  full diag
   1    -57.8072848 -0.578073E+02  0.108E-01    3.62       0.0  T
   2    -57.8072861 -0.127378E-05  0.638E-02    3.62       1.0  T
   3    -57.8072865 -0.391760E-06  0.368E-03    3.62       4.4  T
   4    -57.8072867 -0.222806E-06  0.195E-03    3.62       8.2  T
   5    -57.8072867 -0.899299E-08  0.547E-04    3.62      29.3  T
   6    -57.8072867 -0.156356E-08  0.228E-04    3.62      70.2  T
     SCC iter.                  ...        0 min,  0.012 sec
     gradient                   ...        0 min,  0.004 sec
 * total energy  :   -57.2068909 Eh     change       -0.1198413E-03 Eh
   gradient norm :     0.0041960 Eh/α   predicted    -0.8551979E-04 ( -28.64%)
   displ. norm   :     0.4725226 α      lambda       -0.1974822E-03
   maximum displ.:     0.2485550 α      in ANC's #4, #5, #3, ...

........................................................................
.............................. CYCLE   32 ..............................
........................................................................

 iter      E             dE          RMSdq      gap      omega  full diag
   1    -57.8098357 -0.578098E+02  0.113E-01    3.64       0.0  T
   2    -57.8098380 -0.230730E-05  0.663E-02    3.64       1.0  T
   3    -57.8098363  0.165178E-05  0.852E-03    3.64       1.9  T
   4    -57.8098387 -0.238406E-05  0.317E-03    3.64       5.0  T
   5    -57.8098389 -0.179882E-06  0.160E-03    3.64      10.0  T
   6    -57.8098389 -0.141241E-07  0.479E-04    3.64      33.5  T
   7    -57.8098389 -0.122292E-08  0.132E-04    3.64     121.1  T
     SCC iter.                  ...        0 min,  0.014 sec
     gradient                   ...        0 min,  0.004 sec
 * total energy  :   -57.2070329 Eh     change       -0.1420007E-03 Eh
   gradient norm :     0.0033464 Eh/α   predicted    -0.1207881E-03 ( -14.94%)
   displ. norm   :     0.8293814 α      lambda       -0.2752886E-03
   maximum displ.:     0.4550037 α      in ANC's #4, #5, #3, ...

........................................................................
.............................. CYCLE   33 ..............................
........................................................................

 iter      E             dE          RMSdq      gap      omega  full diag
   1    -57.7991820 -0.577992E+02  0.207E-01    3.57       0.0  T
   2    -57.7991950 -0.130398E-04  0.123E-01    3.58       1.0  T
   3    -57.7991648  0.301598E-04  0.313E-02    3.58       1.0  T
   4    -57.7991997 -0.348886E-04  0.729E-03    3.58       2.2  T
   5    -57.7992007 -0.992888E-06  0.336E-03    3.58       4.8  T
   6    -57.7992008 -0.379896E-07  0.140E-03    3.58      11.5  T
   7    -57.7992008 -0.105261E-07  0.353E-04    3.58      45.4  T
   8    -57.7992008 -0.704532E-09  0.113E-04    3.58     141.4  T
     SCC iter.                  ...        0 min,  0.015 sec
     gradient                   ...        0 min,  0.003 sec
 * total energy  :   -57.2069836 Eh     change        0.4933092E-04 Eh
   gradient norm :     0.0176866 Eh/α   predicted    -0.2323264E-03 (-570.96%)
   displ. norm   :     0.2088793 α      lambda       -0.4680742E-03
   maximum displ.:     0.1242529 α      in ANC's #4, #5, #3, ...

........................................................................
.............................. CYCLE   34 ..............................
........................................................................

 iter      E             dE          RMSdq      gap      omega  full diag
   1    -57.8078062 -0.578078E+02  0.682E-02    3.64       0.0  T
   2    -57.8078145 -0.829957E-05  0.416E-02    3.63       1.0  T
   3    -57.8078031  0.114401E-04  0.221E-02    3.63       1.0  T
   4    -57.8078170 -0.139777E-04  0.549E-03    3.63       2.9  T
   5    -57.8078178 -0.799010E-06  0.143E-03    3.63      11.2  T
   6    -57.8078178 -0.926639E-08  0.801E-04    3.63      20.0  T
   7    -57.8078178 -0.195525E-08  0.190E-04    3.63      84.1  T
     SCC iter.                  ...        0 min,  0.013 sec
     gradient                   ...        0 min,  0.003 sec
 * total energy  :   -57.2072104 Eh     change       -0.2267711E-03 Eh
   gradient norm :     0.0030789 Eh/α   predicted    -0.2442535E-03 (   7.71%)
   displ. norm   :     0.2274247 α      lambda       -0.9494791E-04
   maximum displ.:     0.1242195 α      in ANC's #3, #4, #5, ...

........................................................................
.............................. CYCLE   35 ..............................
........................................................................

 iter      E             dE          RMSdq      gap      omega  full diag
   1    -57.8091649 -0.578092E+02  0.545E-02    3.62       0.0  T
   2    -57.8091661 -0.124477E-05  0.322E-02    3.62       1.0  T
   3    -57.8091662 -0.529445E-07  0.311E-03    3.63       5.1  T
   4    -57.8091663 -0.160834E-06  0.120E-03    3.62      13.4  T
   5    -57.8091663 -0.706490E-08  0.658E-04    3.62      24.3  T
   6    -57.8091663 -0.330296E-09  0.264E-04    3.62      60.6  T
     SCC iter.                  ...        0 min,  0.025 sec
     gradient                   ...        0 min,  0.004 sec
 * total energy  :   -57.2072846 Eh     change       -0.7428345E-04 Eh
   gradient norm :     0.0036383 Eh/α   predicted    -0.4993100E-04 ( -32.78%)
   displ. norm   :     0.6838242 α      lambda       -0.2168759E-03
   maximum displ.:     0.3809151 α      in ANC's #3, #4, #5, ...

........................................................................
.............................. CYCLE   36 ..............................
........................................................................

 iter      E             dE          RMSdq      gap      omega  full diag
   1    -57.8071286 -0.578071E+02  0.159E-01    3.61       0.0  T
   2    -57.8071314 -0.278050E-05  0.938E-02    3.61       1.0  T
   3    -57.8071319 -0.463630E-06  0.710E-03    3.61       2.3  T
   4    -57.8071327 -0.875918E-06  0.382E-03    3.61       4.2  T
   5    -57.8071328 -0.105541E-06  0.201E-03    3.61       8.0  T
   6    -57.8071329 -0.608583E-07  0.468E-04    3.61      34.2  T
   7    -57.8071329 -0.190386E-08  0.173E-04    3.61      92.5  T
     SCC iter.                  ...        0 min,  0.013 sec
     gradient                   ...        0 min,  0.008 sec
 * total energy  :   -57.2074642 Eh     change       -0.1795729E-03 Eh
   gradient norm :     0.0057356 Eh/α   predicted    -0.1591505E-03 ( -11.37%)
   displ. norm   :     0.5958985 α      lambda       -0.2166347E-03
   maximum displ.:     0.3534003 α      in ANC's #3, #4, #5, ...

........................................................................
.............................. CYCLE   37 ..............................
........................................................................

 iter      E             dE          RMSdq      gap      omega  full diag
   1    -57.8053335 -0.578053E+02  0.133E-01    3.60       0.0  T
   2    -57.8053374 -0.397427E-05  0.791E-02    3.59       1.0  T
   3    -57.8053378 -0.363059E-06  0.681E-03    3.59       2.4  T
   4    -57.8053384 -0.645899E-06  0.390E-03    3.59       4.1  T
   5    -57.8053387 -0.218572E-06  0.217E-03    3.59       7.4  T
   6    -57.8053387 -0.426944E-07  0.602E-04    3.59      26.6  T
   7    -57.8053387 -0.520065E-08  0.208E-04    3.59      77.0  T
     SCC iter.                  ...        0 min,  0.026 sec
     gradient                   ...        0 min,  0.005 sec
 * total energy  :   -57.2076130 Eh     change       -0.1487852E-03 Eh
   gradient norm :     0.0101031 Eh/α   predicted    -0.1467812E-03 (  -1.35%)
   displ. norm   :     0.3696054 α      lambda       -0.2651543E-03
   maximum displ.:     0.2291385 α      in ANC's #3, #4, #7, ...

........................................................................
.............................. CYCLE   38 ..............................
........................................................................

 iter      E             dE          RMSdq      gap      omega  full diag
   1    -57.8091801 -0.578092E+02  0.811E-02    3.62       0.0  T
   2    -57.8091839 -0.379517E-05  0.488E-02    3.62       1.0  T
   3    -57.8091728  0.111366E-04  0.193E-02    3.61       1.0  T
   4    -57.8091854 -0.126360E-04  0.393E-03    3.61       4.1  T
   5    -57.8091858 -0.365530E-06  0.146E-03    3.61      10.9  T
   6    -57.8091858 -0.687303E-08  0.596E-04    3.61      26.9  T
   7    -57.8091858 -0.111471E-08  0.172E-04    3.61      93.1  T
     SCC iter.                  ...        0 min,  0.012 sec
     gradient                   ...        0 min,  0.004 sec
 * total energy  :   -57.2077746 Eh     change       -0.1616008E-03 Eh
   gradient norm :     0.0058841 Eh/α   predicted    -0.1506908E-03 (  -6.75%)
   displ. norm   :     0.6394212 α      lambda       -0.2633440E-03
   maximum displ.:     0.3876454 α      in ANC's #3, #4, #5, ...

........................................................................
.............................. CYCLE   39 ..............................
........................................................................

 iter      E             dE          RMSdq      gap      omega  full diag
   1    -57.8054933 -0.578055E+02  0.153E-01    3.56       0.0  T
   2    -57.8054964 -0.306729E-05  0.905E-02    3.57       1.0  T
   3    -57.8054831  0.132899E-04  0.208E-02    3.57       1.0  T
   4    -57.8054986 -0.155716E-04  0.368E-03    3.57       4.3  T
   5    -57.8054987 -0.938683E-07  0.211E-03    3.57       7.6  T
   6    -57.8054988 -0.209731E-07  0.572E-04    3.57      28.0  T
   7    -57.8054988 -0.185828E-08  0.200E-04    3.57      79.9  T
     SCC iter.                  ...        0 min,  0.012 sec
     gradient                   ...        0 min,  0.004 sec
 * total energy  :   -57.2079317 Eh     change       -0.1571332E-03 Eh
   gradient norm :     0.0106521 Eh/α   predicted    -0.1855092E-03 (  18.06%)
   displ. norm   :     0.3040771 α      lambda       -0.2436929E-03
   maximum displ.:     0.2080970 α      in ANC's #3, #7, #4, ...

........................................................................
.............................. CYCLE   40 ..............................
........................................................................

 iter      E             dE          RMSdq      gap      omega  full diag
   1    -57.8091079 -0.578091E+02  0.639E-02    3.56       0.0  T
   2    -57.8091125 -0.456061E-05  0.378E-02    3.56       1.0  T
   3    -57.8091121  0.350879E-06  0.696E-03    3.57       2.3  T
   4    -57.8091127 -0.538159E-06  0.325E-03    3.57       4.9  T
   5    -57.8091130 -0.298084E-06  0.122E-03    3.57      13.1  T
   6    -57.8091130 -0.130416E-07  0.416E-04    3.56      38.5  T
   7    -57.8091130 -0.593367E-09  0.135E-04    3.56     118.9  T
     SCC iter.                  ...        0 min,  0.023 sec
     gradient                   ...        0 min,  0.004 sec
 * total energy  :   -57.2080649 Eh     change       -0.1331574E-03 Eh
   gradient norm :     0.0120979 Eh/α   predicted    -0.1331158E-03 (  -0.03%)
   displ. norm   :     0.4716512 α      lambda       -0.2810478E-03
   maximum displ.:     0.3224279 α      in ANC's #3, #4, #5, ...

........................................................................
.............................. CYCLE   41 ..............................
........................................................................

 iter      E             dE          RMSdq      gap      omega  full diag
   1    -57.8072415 -0.578072E+02  0.956E-02    3.57       0.0  T
   2    -57.8072444 -0.298197E-05  0.567E-02    3.57       1.0  T
   3    -57.8072415  0.290329E-05  0.110E-02    3.57       1.5  T
   4    -57.8072450 -0.343788E-05  0.381E-03    3.57       4.2  T
   5    -57.8072453 -0.347663E-06  0.150E-03    3.57      10.7  T
   6    -57.8072453 -0.910021E-08  0.605E-04    3.57      26.5  T
   7    -57.8072453 -0.250262E-08  0.165E-04    3.57      96.9  T
     SCC iter.                  ...        0 min,  0.016 sec
     gradient                   ...        0 min,  0.003 sec
 * total energy  :   -57.2082402 Eh     change       -0.1753328E-03 Eh
   gradient norm :     0.0084138 Eh/α   predicted    -0.1717890E-03 (  -2.02%)
   displ. norm   :     0.3569385 α      lambda       -0.2934432E-03
   maximum displ.:     0.2650089 α      in ANC's #3, #7, #4, ...

........................................................................
.............................. CYCLE   42 ..............................
........................................................................

 iter      E             dE          RMSdq      gap      omega  full diag
   1    -57.8100998 -0.578101E+02  0.807E-02    3.60       0.0  T
   2    -57.8101166 -0.168451E-04  0.489E-02    3.59       1.0  T
   3    -57.8101084  0.826888E-05  0.198E-02    3.59       1.0  T
   4    -57.8101162 -0.781655E-05  0.920E-03    3.59       1.7  T
   5    -57.8101188 -0.257671E-05  0.133E-03    3.59      12.1  T
   6    -57.8101188 -0.415197E-08  0.674E-04    3.59      23.8  T
   7    -57.8101188 -0.181749E-08  0.180E-04    3.59      89.1  T
     SCC iter.                  ...        0 min,  0.028 sec
     gradient                   ...        0 min,  0.003 sec
 * total energy  :   -57.2083199 Eh     change       -0.7969542E-04 Eh
   gradient norm :     0.0116324 Eh/α   predicted    -0.1654177E-03 ( 107.56%)
   displ. norm   :     0.5189274 α      lambda       -0.2868459E-03
   maximum displ.:     0.3384115 α      in ANC's #3, #4, #5, ...
 * RMSD in coord.:     1.1605353 α      energy gain  -0.2156539E-02 Eh

generating ANC from exact Hessian ...
Using Lindh-Hessian (1995)
 Shifting diagonal of input Hessian by   9.834414552884783E-003
 Lowest  eigenvalues of input Hessian
    0.000000    0.000000    0.000000    0.000000    0.000000    0.000000
    0.010000    0.010061    0.010245    0.010584    0.010978    0.011322
    0.011634    0.012353    0.013933    0.015460    0.017428    0.018001
 Highest eigenvalues
    1.577943    1.592464    1.598770    1.810005    1.903842    2.361563
 

........................................................................
.............................. CYCLE   43 ..............................
........................................................................

 iter      E             dE          RMSdq      gap      omega  full diag
   1    -57.8044002 -0.578044E+02  0.112E-01    3.54       0.0  T
   2    -57.8044072 -0.695376E-05  0.666E-02    3.54       1.0  T
   3    -57.8043850  0.221402E-04  0.267E-02    3.54       1.0  T
   4    -57.8044101 -0.250792E-04  0.499E-03    3.54       3.2  T
   5    -57.8044106 -0.533723E-06  0.196E-03    3.54       8.2  T
   6    -57.8044106 -0.138340E-07  0.959E-04    3.54      16.7  T
   7    -57.8044106 -0.382347E-08  0.237E-04    3.54      67.7  T
     SCC iter.                  ...        0 min,  0.031 sec
     gradient                   ...        0 min,  0.006 sec
 * total energy  :   -57.2084627 Eh     change       -0.1427799E-03 Eh
   gradient norm :     0.0096725 Eh/α   predicted     0.0000000E+00 (-100.00%)
   displ. norm   :     0.0624404 α      lambda       -0.2141150E-03
   maximum displ.:     0.0326608 α      in ANC's #4, #14, #10, ...

........................................................................
.............................. CYCLE   44 ..............................
........................................................................

 iter      E             dE          RMSdq      gap      omega  full diag
   1    -57.8095449 -0.578095E+02  0.286E-02    3.58       0.0  T
   2    -57.8095469 -0.204146E-05  0.175E-02    3.57       1.0  T
   3    -57.8095454  0.154115E-05  0.105E-02    3.57       1.5  T
   4    -57.8095477 -0.231902E-05  0.287E-03    3.57       5.6  T
   5    -57.8095480 -0.240339E-06  0.674E-04    3.57      23.8  T
   6    -57.8095480 -0.156241E-08  0.343E-04    3.57      46.7  T
     SCC iter.                  ...        0 min,  0.028 sec
     gradient                   ...        0 min,  0.006 sec
 * total energy  :   -57.2086071 Eh     change       -0.1443811E-03 Eh
   gradient norm :     0.0032037 Eh/α   predicted    -0.1075481E-03 ( -25.51%)
   displ. norm   :     0.0972232 α      lambda       -0.1051235E-03
   maximum displ.:     0.0599749 α      in ANC's #4, #14, #10, ...

........................................................................
.............................. CYCLE   45 ..............................
........................................................................

 iter      E             dE          RMSdq      gap      omega  full diag
   1    -57.8123563 -0.578124E+02  0.323E-02    3.60       0.0  T
   2    -57.8123582 -0.191398E-05  0.193E-02    3.59       1.0  T
   3    -57.8123566  0.154889E-05  0.940E-03    3.59       1.7  T
   4    -57.8123586 -0.190616E-05  0.288E-03    3.59       5.6  T
   5    -57.8123588 -0.248979E-06  0.787E-04    3.59      20.4  T
   6    -57.8123588 -0.369574E-08  0.397E-04    3.59      40.3  T
     SCC iter.                  ...        0 min,  0.011 sec
     gradient                   ...        0 min,  0.003 sec
 * total energy  :   -57.2086848 Eh     change       -0.7768359E-04 Eh
   gradient norm :     0.0026295 Eh/α   predicted    -0.5307722E-04 ( -31.68%)
   displ. norm   :     0.1711784 α      lambda       -0.1165614E-03
   maximum displ.:     0.1042601 α      in ANC's #4, #14, #2, ...

........................................................................
.............................. CYCLE   46 ..............................
........................................................................

 iter      E             dE          RMSdq      gap      omega  full diag
   1    -57.8134070 -0.578134E+02  0.543E-02    3.61       0.0  T
   2    -57.8134093 -0.226698E-05  0.324E-02    3.61       1.0  T
   3    -57.8134074  0.188613E-05  0.923E-03    3.61       1.7  T
   4    -57.8134096 -0.222544E-05  0.334E-03    3.61       4.8  T
   5    -57.8134099 -0.292298E-06  0.126E-03    3.61      12.7  T
   6    -57.8134099 -0.803229E-08  0.568E-04    3.61      28.2  T
   7    -57.8134099 -0.118015E-08  0.954E-05    3.61     167.8  T
     SCC iter.                  ...        0 min,  0.027 sec
     gradient                   ...        0 min,  0.016 sec
 * total energy  :   -57.2087792 Eh     change       -0.9447211E-04 Eh
   gradient norm :     0.0039617 Eh/α   predicted    -0.5999495E-04 ( -36.49%)
   displ. norm   :     0.2897615 α      lambda       -0.1640788E-03
   maximum displ.:     0.1769174 α      in ANC's #4, #14, #2, ...

........................................................................
.............................. CYCLE   47 ..............................
........................................................................

 iter      E             dE          RMSdq      gap      omega  full diag
   1    -57.8121829 -0.578122E+02  0.902E-02    3.63       0.0  T
   2    -57.8121849 -0.203823E-05  0.538E-02    3.63       1.0  T
   3    -57.8121824  0.252849E-05  0.106E-02    3.63       1.5  T
   4    -57.8121859 -0.350994E-05  0.351E-03    3.63       4.6  T
   5    -57.8121860 -0.143928E-06  0.165E-03    3.63       9.7  T
   6    -57.8121860 -0.660648E-08  0.393E-04    3.63      40.7  T
   7    -57.8121860 -0.200728E-08  0.129E-04    3.63     124.5  T
     SCC iter.                  ...        0 min,  0.022 sec
     gradient                   ...        0 min,  0.004 sec
 * total energy  :   -57.2088998 Eh     change       -0.1205831E-03 Eh
   gradient norm :     0.0055165 Eh/α   predicted    -0.8892869E-04 ( -26.25%)
   displ. norm   :     0.2192911 α      lambda       -0.9687386E-04
   maximum displ.:     0.1359525 α      in ANC's #4, #2, #14, ...

........................................................................
.............................. CYCLE   48 ..............................
........................................................................

 iter      E             dE          RMSdq      gap      omega  full diag
   1    -57.8105190 -0.578105E+02  0.648E-02    3.64       0.0  T
   2    -57.8105203 -0.130324E-05  0.386E-02    3.64       1.0  T
   3    -57.8105197  0.636002E-06  0.629E-03    3.64       2.5  T
   4    -57.8105207 -0.100505E-05  0.267E-03    3.64       6.0  T
   5    -57.8105208 -0.126050E-06  0.128E-03    3.64      12.5  T
   6    -57.8105208 -0.517836E-08  0.391E-04    3.64      40.9  T
   7    -57.8105209 -0.227663E-08  0.953E-05    3.64     168.0  T
     SCC iter.                  ...        0 min,  0.013 sec
     gradient                   ...        0 min,  0.003 sec
 * total energy  :   -57.2089676 Eh     change       -0.6775614E-04 Eh
   gradient norm :     0.0051634 Eh/α   predicted    -0.5076941E-04 ( -25.07%)
   displ. norm   :     0.1433576 α      lambda       -0.7447395E-04
   maximum displ.:     0.0891018 α      in ANC's #4, #2, #3, ...

........................................................................
.............................. CYCLE   49 ..............................
........................................................................

 iter      E             dE          RMSdq      gap      omega  full diag
   1    -57.8100873 -0.578101E+02  0.387E-02    3.65       0.0  T
   2    -57.8100887 -0.142331E-05  0.231E-02    3.65       1.0  T
   3    -57.8100885  0.250408E-06  0.409E-03    3.65       3.9  T
   4    -57.8100887 -0.243416E-06  0.231E-03    3.65       6.9  T
   5    -57.8100889 -0.159580E-06  0.661E-04    3.65      24.2  T
   6    -57.8100889 -0.128276E-08  0.290E-04    3.65      55.1  T
     SCC iter.                  ...        0 min,  0.011 sec
     gradient                   ...        0 min,  0.003 sec
 * total energy  :   -57.2090232 Eh     change       -0.5565145E-04 Eh
   gradient norm :     0.0026863 Eh/α   predicted    -0.3800297E-04 ( -31.71%)
   displ. norm   :     0.1660004 α      lambda       -0.7137195E-04
   maximum displ.:     0.1004894 α      in ANC's #4, #2, #3, ...

........................................................................
.............................. CYCLE   50 ..............................
........................................................................

 iter      E             dE          RMSdq      gap      omega  full diag
   1    -57.8103315 -0.578103E+02  0.394E-02    3.65       0.0  T
   2    -57.8103324 -0.939543E-06  0.234E-02    3.65       1.0  T
   3    -57.8103324 -0.127657E-07  0.237E-03    3.65       6.8  T
   4    -57.8103325 -0.670005E-07  0.108E-03    3.65      14.8  T
   5    -57.8103325 -0.191386E-07  0.632E-04    3.65      25.3  T
   6    -57.8103325 -0.554721E-08  0.273E-04    3.65      58.6  T
     SCC iter.                  ...        0 min,  0.011 sec
     gradient                   ...        0 min,  0.003 sec
 * total energy  :   -57.2090757 Eh     change       -0.5246466E-04 Eh
   gradient norm :     0.0027030 Eh/α   predicted    -0.3667325E-04 ( -30.10%)
   displ. norm   :     0.1846015 α      lambda       -0.6068018E-04
   maximum displ.:     0.1107228 α      in ANC's #4, #2, #3, ...

........................................................................
.............................. CYCLE   51 ..............................
........................................................................

 iter      E             dE          RMSdq      gap      omega  full diag
   1    -57.8108047 -0.578108E+02  0.422E-02    3.65       0.0  T
   2    -57.8108051 -0.359856E-06  0.249E-02    3.65       1.0  T
   3    -57.8108049  0.172337E-06  0.291E-03    3.65       5.5  T
   4    -57.8108051 -0.226478E-06  0.133E-03    3.65      12.1  T
   5    -57.8108052 -0.433689E-07  0.502E-04    3.65      31.9  T
   6    -57.8108052 -0.104367E-08  0.193E-04    3.65      83.1  T
     SCC iter.                  ...        0 min,  0.010 sec
     gradient                   ...        0 min,  0.003 sec
 * total energy  :   -57.2091241 Eh     change       -0.4842271E-04 Eh
   gradient norm :     0.0037941 Eh/α   predicted    -0.3137474E-04 ( -35.21%)
   displ. norm   :     0.2447268 α      lambda       -0.7803983E-04
   maximum displ.:     0.1435856 α      in ANC's #4, #2, #1, ...

........................................................................
.............................. CYCLE   52 ..............................
........................................................................

 iter      E             dE          RMSdq      gap      omega  full diag
   1    -57.8113872 -0.578114E+02  0.534E-02    3.64       0.0  T
   2    -57.8113875 -0.277545E-06  0.316E-02    3.64       1.0  T
   3    -57.8113856  0.186367E-05  0.765E-03    3.64       2.1  T
   4    -57.8113877 -0.211198E-05  0.103E-03    3.64      15.6  T
   5    -57.8113877 -0.637404E-08  0.443E-04    3.64      36.2  T
   6    -57.8113877 -0.409308E-09  0.130E-04    3.64     122.8  T
     SCC iter.                  ...        0 min,  0.010 sec
     gradient                   ...        0 min,  0.003 sec
 * total energy  :   -57.2091891 Eh     change       -0.6502728E-04 Eh
   gradient norm :     0.0046002 Eh/α   predicted    -0.4135845E-04 ( -36.40%)
   displ. norm   :     0.3609876 α      lambda       -0.1117263E-03
   maximum displ.:     0.2128963 α      in ANC's #4, #2, #1, ...

........................................................................
.............................. CYCLE   53 ..............................
........................................................................

 iter      E             dE          RMSdq      gap      omega  full diag
   1    -57.8112706 -0.578113E+02  0.809E-02    3.63       0.0  T
   2    -57.8112714 -0.831214E-06  0.478E-02    3.63       1.0  T
   3    -57.8112639  0.759213E-05  0.154E-02    3.63       1.0  T
   4    -57.8112723 -0.845159E-05  0.152E-03    3.63      10.5  T
   5    -57.8112723 -0.189180E-07  0.766E-04    3.63      20.9  T
   6    -57.8112723 -0.114302E-08  0.185E-04    3.63      86.4  T
     SCC iter.                  ...        0 min,  0.010 sec
     gradient                   ...        0 min,  0.003 sec
 * total energy  :   -57.2092807 Eh     change       -0.9155657E-04 Eh
   gradient norm :     0.0036048 Eh/α   predicted    -0.6316345E-04 ( -31.01%)
   displ. norm   :     0.4255313 α      lambda       -0.1253050E-03
   maximum displ.:     0.2472239 α      in ANC's #4, #2, #1, ...

........................................................................
.............................. CYCLE   54 ..............................
........................................................................

 iter      E             dE          RMSdq      gap      omega  full diag
   1    -57.8108825 -0.578109E+02  0.955E-02    3.60       0.0  T
   2    -57.8108834 -0.915790E-06  0.565E-02    3.60       1.0  T
   3    -57.8108697  0.137171E-04  0.207E-02    3.60       1.0  T
   4    -57.8108849 -0.152064E-04  0.163E-03    3.60       9.8  T
   5    -57.8108849 -0.188812E-07  0.835E-04    3.60      19.2  T
   6    -57.8108849 -0.178672E-08  0.236E-04    3.60      67.8  T
     SCC iter.                  ...        0 min,  0.010 sec
     gradient                   ...        0 min,  0.004 sec
 * total energy  :   -57.2093766 Eh     change       -0.9593016E-04 Eh
   gradient norm :     0.0034100 Eh/α   predicted    -0.7400290E-04 ( -22.86%)
   displ. norm   :     0.3954086 α      lambda       -0.1118223E-03
   maximum displ.:     0.2307763 α      in ANC's #4, #2, #1, ...

........................................................................
.............................. CYCLE   55 ..............................
........................................................................

 iter      E             dE          RMSdq      gap      omega  full diag
   1    -57.8102763 -0.578103E+02  0.896E-02    3.57       0.0  T
   2    -57.8102782 -0.185131E-05  0.529E-02    3.57       1.0  T
   3    -57.8102662  0.119432E-04  0.194E-02    3.57       1.0  T
   4    -57.8102795 -0.132430E-04  0.199E-03    3.57       8.1  T
   5    -57.8102795 -0.705744E-07  0.847E-04    3.57      18.9  T
   6    -57.8102795 -0.161089E-08  0.268E-04    3.57      59.8  T
     SCC iter.                  ...        0 min,  0.010 sec
     gradient                   ...        0 min,  0.003 sec
 * total energy  :   -57.2094589 Eh     change       -0.8227024E-04 Eh
   gradient norm :     0.0034218 Eh/α   predicted    -0.6465803E-04 ( -21.41%)
   displ. norm   :     0.3237222 α      lambda       -0.9772231E-04
   maximum displ.:     0.1783766 α      in ANC's #4, #2, #1, ...

........................................................................
.............................. CYCLE   56 ..............................
........................................................................

 iter      E             dE          RMSdq      gap      omega  full diag
   1    -57.8110390 -0.578110E+02  0.739E-02    3.55       0.0  T
   2    -57.8110398 -0.747321E-06  0.436E-02    3.55       1.0  T
   3    -57.8110356  0.421807E-05  0.116E-02    3.55       1.4  T
   4    -57.8110403 -0.472196E-05  0.146E-03    3.55      10.9  T
   5    -57.8110403 -0.302269E-07  0.722E-04    3.55      22.2  T
   6    -57.8110403 -0.123735E-08  0.209E-04    3.55      76.7  T
     SCC iter.                  ...        0 min,  0.010 sec
     gradient                   ...        0 min,  0.003 sec
 * total energy  :   -57.2095308 Eh     change       -0.7193865E-04 Eh
   gradient norm :     0.0040661 Eh/α   predicted    -0.5398423E-04 ( -24.96%)
   displ. norm   :     0.4465018 α      lambda       -0.1010642E-03
   maximum displ.:     0.2607706 α      in ANC's #4, #2, #1, ...

........................................................................
.............................. CYCLE   57 ..............................
........................................................................

 iter      E             dE          RMSdq      gap      omega  full diag
   1    -57.8088027 -0.578088E+02  0.100E-01    3.52       0.0  T
   2    -57.8088040 -0.126233E-05  0.593E-02    3.52       1.0  T
   3    -57.8087850  0.190214E-04  0.242E-02    3.53       1.0  T
   4    -57.8088061 -0.210829E-04  0.187E-03    3.52       8.6  T
   5    -57.8088061 -0.275460E-07  0.978E-04    3.52      16.4  T
   6    -57.8088061 -0.275679E-08  0.341E-04    3.52      47.0  T
     SCC iter.                  ...        0 min,  0.010 sec
     gradient                   ...        0 min,  0.003 sec
 * total energy  :   -57.2095981 Eh     change       -0.6726930E-04 Eh
   gradient norm :     0.0060397 Eh/α   predicted    -0.6060678E-04 (  -9.90%)
   displ. norm   :     0.2959162 α      lambda       -0.1540411E-03
   maximum displ.:     0.1255758 α      in ANC's #1, #4, #2, ...

[...]
H26-C5-H25=108.67              C7-O6-C5=113.24                C8-C7-O6=108.76                H27-C7-O6=110.46               
H27-C7-C8=108.92               H28-C7-O6=110.20               H28-C7-C8=109.80               H28-C7-H27=108.70              
O9-C8-C7=108.52                H29-C8-C7=108.59               H29-C8-O9=110.25               H30-C8-C7=109.55               
H30-C8-O9=110.29               H30-C8-H29=109.62              C10-O9-C8=115.49               C11-C10-O9=114.13              
H31-C10-O9=111.06              H31-C10-C11=108.07             H32-C10-O9=105.15              H32-C10-C11=108.93             
H32-C10-H31=109.39             
 
 selected dihedral angles (degree)
 ---------------------------------
O3-C2-C1-H18= 67.70           O3-C2-C1-H19=307.26           O3-C2-C1-H20=187.59           H21-C2-C1-H18=184.63          
H21-C2-C1-H19= 64.20          H21-C2-C1-H20=304.52          H22-C2-C1-H18=303.97          H22-C2-C1-H19=183.53          
H22-C2-C1-H20= 63.85          C4-O3-C2-C1=291.46            C4-O3-C2-H21=171.54           C4-O3-C2-H22= 55.04           
C5-C4-O3-C2=200.94            H23-C4-O3-C2= 80.80           H24-C4-O3-C2=319.97           O6-C5-C4-O3= 84.10            
O6-C5-C4-H23=204.99           O6-C5-C4-H24=323.79           H25-C5-C4-O3=204.66           H25-C5-C4-H23=325.55          
H25-C5-C4-H24= 84.35          H26-C5-C4-O3=323.56           H26-C5-C4-H23= 84.45          H26-C5-C4-H24=203.25          
C7-O6-C5-C4=183.56            C7-O6-C5-H25= 63.05           C7-O6-C5-H26=303.02           C8-C7-O6-C5=184.89            
H27-C7-O6-C5=304.36           H28-C7-O6-C5= 64.48           O9-C8-C7-O6= 79.72            O9-C8-C7-H27=319.29           
O9-C8-C7-H28=200.37           H29-C8-C7-O6=319.87           H29-C8-C7-H27=199.44          H29-C8-C7-H28= 80.52          
H30-C8-C7-O6=200.19           H30-C8-C7-H27= 79.75          H30-C8-C7-H28=320.83          C10-O9-C8-C7=204.74           
C10-O9-C8-H29=323.55          C10-O9-C8-H30= 84.74          C11-C10-O9-C8=289.72          H31-C10-O9-C8= 52.18          
H32-C10-O9-C8=170.40          
           -------------------------------------------------
          |                Final Singlepoint                |
           -------------------------------------------------

          ...................................................
          :                      SETUP                      :
          :.................................................:
          :  # basis functions                  90          :
          :  # atomic orbitals                  90          :
          :  # shells                           56          :
          :  # electrons                       100          :
          :  max. iterations                   250          :
          :  Hamiltonian                  GFN2-xTB          :
          :  restarted?                      false          :
          :  GBSA solvation                  false          :
          :  PC potential                    false          :
          :  electronic temp.          300.0000000     K    :
          :  accuracy                    1.0000000          :
          :  -> integral cutoff          0.2500000E+02      :
          :  -> integral neglect         0.1000000E-07      :
          :  -> SCF convergence          0.1000000E-05 Eh   :
          :  -> wf. convergence          0.1000000E-03 e    :
          :  Broyden damping             0.4000000          :
          :  net charge                          0          :
          :  unpaired electrons                  0          :
          ...................................................

 iter      E             dE          RMSdq      gap      omega  full diag
   1    -57.8115835 -0.578116E+02  0.848E-05    3.43       0.0  T
   2    -57.8115835 -0.151417E-10  0.638E-05    3.43     250.8  T
   3    -57.8115835 -0.923919E-10  0.324E-05    3.43     494.7  T

   *** convergence criteria satisfied after 3 iterations ***

         #    Occupation            Energy/Eh            Energy/eV
      -------------------------------------------------------------
         1        2.0000           -0.7399387             -20.1348
       ...           ...                  ...                  ...
        44        2.0000           -0.4417427             -12.0204
        45        2.0000           -0.4345239             -11.8240
        46        2.0000           -0.4167713             -11.3409
        47        2.0000           -0.4120922             -11.2136
        48        2.0000           -0.3975037             -10.8166
        49        2.0000           -0.3949843             -10.7481
        50        2.0000           -0.3928888             -10.6910 (HOMO)
        51                         -0.2667582              -7.2589 (LUMO)
        52                         -0.1618940              -4.4054
        53                          0.0021125               0.0575
        54                          0.0228822               0.6227
        55                          0.0295556               0.8042
       ...                                ...                  ...
        90                          0.6993256              19.0296
      -------------------------------------------------------------
                  HL-Gap            0.1261306 Eh            3.4322 eV
             Fermi-level           -0.3298235 Eh           -8.9750 eV

 SCC (total)                   0 d,  0 h,  0 min,  0.013 sec
 SCC setup                      ...        0 min,  0.001 sec (  7.898%)
 Dispersion                     ...        0 min,  0.000 sec (  1.456%)
 classical contributions        ...        0 min,  0.000 sec (  1.283%)
 integral evaluation            ...        0 min,  0.001 sec (  6.004%)
 iterations                     ...        0 min,  0.006 sec ( 46.629%)
 molecular gradient             ...        0 min,  0.004 sec ( 34.002%)
 printout                       ...        0 min,  0.000 sec (  2.502%)

         :::::::::::::::::::::::::::::::::::::::::::::::::::::
         ::                     SUMMARY                     ::
         :::::::::::::::::::::::::::::::::::::::::::::::::::::
         :: total energy             -57.210090088051 Eh    ::
         :: gradient norm              0.000425749016 Eh/a0 ::
         :: HOMO-LUMO gap              3.432188237283 eV    ::
         ::.................................................::
         :: SCC energy               -57.811493328359 Eh    ::
         :: -> isotropic ES            0.099570359215 Eh    ::
         :: -> anisotropic ES          0.005937091604 Eh    ::
         :: -> anisotropic XC          0.007704120023 Eh    ::
         :: -> dispersion             -0.027823144747 Eh    ::
         :: repulsion energy           0.601403240308 Eh    ::
         :: add. restraining           0.000000000000 Eh    ::
         :: total charge              -0.000000000000 e     ::
         :::::::::::::::::::::::::::::::::::::::::::::::::::::

           -------------------------------------------------
          |                Property Printout                |
           -------------------------------------------------

    * Orbital Energies and Occupations

         #    Occupation            Energy/Eh            Energy/eV
      -------------------------------------------------------------
         1        2.0000           -0.7399387             -20.1348
       ...           ...                  ...                  ...
        38        2.0000           -0.4665493             -12.6955
        39        2.0000           -0.4643444             -12.6355
        40        2.0000           -0.4560794             -12.4106
        41        2.0000           -0.4517190             -12.2919
        42        2.0000           -0.4496511             -12.2356
        43        2.0000           -0.4456327             -12.1263
        44        2.0000           -0.4417427             -12.0204
        45        2.0000           -0.4345239             -11.8240
        46        2.0000           -0.4167713             -11.3409
        47        2.0000           -0.4120922             -11.2136
        48        2.0000           -0.3975037             -10.8166
        49        2.0000           -0.3949843             -10.7481
        50        2.0000           -0.3928888             -10.6910 (HOMO)
        51                         -0.2667582              -7.2589 (LUMO)
        52                         -0.1618940              -4.4054
        53                          0.0021125               0.0575
        54                          0.0228822               0.6227
        55                          0.0295556               0.8042
        56                          0.0326686               0.8890
        57                          0.0828077               2.2533
        58                          0.0961053               2.6152
        59                          0.1009456               2.7469
        60                          0.1037494               2.8232
        61                          0.1084762               2.9518
       ...                                ...                  ...
        90                          0.6993256              19.0296
      -------------------------------------------------------------
                  HL-Gap            0.1261306 Eh            3.4322 eV
             Fermi-level           -0.3298235 Eh           -8.9750 eV

     #   Z          covCN         q      C6AA      α(0)
     1   6 C        3.750    -0.117    22.811     6.812
     2   6 C        3.695     0.081    19.389     6.299
     3   8 O        1.701    -0.313    19.223     5.920
     4   6 C        3.695     0.081    19.387     6.299
     5   6 C        3.704     0.080    19.384     6.295
     6   8 O        1.702    -0.305    19.081     5.898
     7   6 C        3.704     0.081    19.374     6.293
     8   6 C        3.694     0.072    19.538     6.324
     9   8 O        1.701    -0.303    19.038     5.891
    10   6 C        3.694     0.075    19.497     6.317
    11   6 C        3.699     0.063    19.679     6.344
    12   8 O        1.705    -0.259    18.289     5.774
    13   6 C        2.726     0.356    20.954     7.494
    14   8 O        0.856    -0.422    22.120     6.306
    15   6 C        2.938    -0.006    28.181     8.706
    16   6 C        3.759    -0.110    22.657     6.786
    17   6 C        2.844    -0.081    30.023     8.980
    18   1 H        0.925     0.040     2.448     2.447
    19   1 H        0.925     0.050     2.323     2.383
    20   1 H        0.925     0.042     2.427     2.436
    21   1 H        0.924     0.052     2.300     2.371
    22   1 H        0.923     0.022     2.701     2.570
    23   1 H        0.923     0.026     2.639     2.540
    24   1 H        0.923     0.043     2.406     2.426
    25   1 H        0.923     0.023     2.695     2.567
    26   1 H        0.923     0.041     2.437     2.441
    27   1 H        0.923     0.039     2.461     2.453
    28   1 H        0.923     0.027     2.623     2.533
    29   1 H        0.924     0.043     2.404     2.425
    30   1 H        0.923     0.056     2.242     2.341
    31   1 H        0.923     0.033     2.545     2.495
    32   1 H        0.924     0.066     2.130     2.282
    33   1 H        0.924     0.066     2.125     2.280
    34   1 H        0.924     0.055     2.254     2.348
    35   1 H        0.925     0.069     2.099     2.266
    36   1 H        0.925     0.061     2.186     2.312
    37   1 H        0.925     0.051     2.308     2.376
    38   1 H        0.926     0.063     2.163     2.300
    39   1 H        0.926     0.056     2.247     2.344

 Mol. C6AA /au·bohr⁶  :      12416.286513
 Mol. C8AA /au·bohr⁸  :     265913.328442
 Mol. α(0) /au        :        165.673675


Wiberg/Mayer (AO) data.
largest (>0.10) Wiberg bond orders for each atom

 ---------------------------------------------------------------------------
     #   Z sym  total        # sym  WBO       # sym  WBO       # sym  WBO
 ---------------------------------------------------------------------------
     1   6 C    3.996 --     2 C    1.008    18 H    0.987    19 H    0.987
                            20 H    0.986
     2   6 C    3.953 --     1 C    1.008     3 O    0.984    21 H    0.971
                            22 H    0.967
     3   8 O    2.079 --     4 C    0.989     2 C    0.984
     4   6 C    3.961 --     5 C    0.997     3 O    0.989    23 H    0.967
                            24 H    0.965
     5   6 C    3.958 --     4 C    0.997     6 O    0.987    25 H    0.966
                            26 H    0.965
     6   8 O    2.076 --     5 C    0.987     7 C    0.986
     7   6 C    3.958 --     8 C    0.998     6 O    0.986    28 H    0.966
                            27 H    0.965
     8   6 C    3.951 --     7 C    0.998     9 O    0.977    29 H    0.966
                            30 H    0.959
     9   8 O    2.096 --    10 C    1.006     8 C    0.977
    10   6 C    3.959 --     9 O    1.006    11 C    0.977    32 H    0.967
                            31 H    0.961
    11   6 C    3.933 --    10 C    0.977    34 H    0.970    33 H    0.963
                            12 O    0.954
    12   8 O    2.312 --    13 C    1.120    11 C    0.954    14 O    0.167
    13   6 C    3.915 --    14 O    1.714    12 O    1.120    15 C    0.995
    14   8 O    2.031 --    13 C    1.714    12 O    0.167
    15   6 C    3.986 --    17 C    1.878    16 C    1.029    13 C    0.995
    16   6 C    3.994 --    15 C    1.029    37 H    0.985    35 H    0.967
                            36 H    0.967
    17   6 C    3.987 --    15 C    1.878    39 H    0.974    38 H    0.973
    18   1 H    0.998 --     1 C    0.987
    19   1 H    0.998 --     1 C    0.987
    20   1 H    0.998 --     1 C    0.986
    21   1 H    0.997 --     2 C    0.971
    22   1 H    1.000 --     2 C    0.967
    23   1 H    0.999 --     4 C    0.967
    24   1 H    0.998 --     4 C    0.965
    25   1 H    0.999 --     5 C    0.966
    26   1 H    0.998 --     5 C    0.965
    27   1 H    0.998 --     7 C    0.965
    28   1 H    0.999 --     7 C    0.966
    29   1 H    0.998 --     8 C    0.966
    30   1 H    0.996 --     8 C    0.959
    31   1 H    0.998 --    10 C    0.961
    32   1 H    0.996 --    10 C    0.967
    33   1 H    0.996 --    11 C    0.963
    34   1 H    0.996 --    11 C    0.970
    35   1 H    0.995 --    16 C    0.967
    36   1 H    0.996 --    16 C    0.967
    37   1 H    0.997 --    16 C    0.985
    38   1 H    0.996 --    17 C    0.973
    39   1 H    0.997 --    17 C    0.974
 ---------------------------------------------------------------------------

Topologies differ in total number of bonds
Writing topology from bond orders to xtbtopo.mol

molecular dipole:
                 x           y           z       tot (Debye)
 q only:        0.031      -0.109      -0.697
   full:        0.049      -0.166      -0.792       2.061
molecular quadrupole (traceless):
                xx          xy          yy          xz          yz          zz
 q only:        8.965       3.651       1.267      -1.994       1.352     -10.231
  q+dip:        6.496       2.601       2.851      -1.037       0.626      -9.346
   full:        7.906       1.846       3.217      -0.400       0.610     -11.123

           -------------------------------------------------
          |                Geometry Summary                 |
           -------------------------------------------------

      molecular mass/u    :      246.3005519
   center of mass at/Å    :        0.3959202      -0.0883037       0.0009310
  moments of inertia/u·Å² :        0.4211755E+03   0.4024101E+04   0.4182075E+04
rotational constants/cm⁻¹ :        0.4002519E-01   0.4189168E-02   0.4030926E-02

 * 36 selected distances

     #   Z          #   Z                                           value/Å
     1   6 C        2   6 C                                       1.5282010
     2   6 C        3   8 O                                       1.4086230
     3   8 O        4   6 C                                       1.4088487
     4   6 C        5   6 C                                       1.5253941
     5   6 C        6   8 O                                       1.4060333
     6   8 O        7   6 C                                       1.4073927
     7   6 C        8   6 C                                       1.5234523
     8   6 C        9   8 O                                       1.4160561
     9   8 O       10   6 C                                       1.3976244
    10   6 C       11   6 C                                       1.5393668 (max)
    11   6 C       12   8 O                                       1.4197990
    12   8 O       13   6 C                                       1.3406058
    13   6 C       14   8 O                                       1.2088138
    15   6 C       17   6 C                                       1.3284505
     1   6 C       18   1 H                                       1.0874222
     1   6 C       19   1 H                                       1.0872306
     1   6 C       20   1 H                                       1.0866447
     2   6 C       21   1 H                                       1.0930425
     2   6 C       22   1 H                                       1.1011564
     4   6 C       23   1 H                                       1.0998690
     4   6 C       24   1 H                                       1.0982892
     5   6 C       25   1 H                                       1.1015951
     5   6 C       26   1 H                                       1.0995754
     7   6 C       27   1 H                                       1.0995944
     7   6 C       28   1 H                                       1.1008379
     8   6 C       29   1 H                                       1.0974047
     8   6 C       30   1 H                                       1.0981040
    10   6 C       31   1 H                                       1.1009095
    10   6 C       32   1 H                                       1.0931724
    11   6 C       33   1 H                                       1.0948695
    11   6 C       34   1 H                                       1.0921622
    16   6 C       35   1 H                                       1.0887304
    16   6 C       36   1 H                                       1.0894352
    16   6 C       37   1 H                                       1.0860811
    17   6 C       38   1 H                                       1.0754146 (min)
    17   6 C       39   1 H                                       1.0773918

 * 3 distinct bonds (by element types)

   Z      Z             #   av. dist./Å        max./Å        min./Å
   1 H    6 C          22     1.0931333     1.1015951     1.0754146
   6 C    6 C           5     1.4889729     1.5393668     1.3284505
   6 C    8 O           9     1.3793107     1.4197990     1.2088138


optimized geometry written to: xtbopt.xyz


           -------------------------------------------------
          | TOTAL ENERGY              -57.210090088051 Eh   |
          | GRADIENT NORM               0.000425749016 Eh/α |
          | HOMO-LUMO GAP               3.432188237283 eV   |
           -------------------------------------------------

------------------------------------------------------------------------
 * finished run on 2025/12/01 at 14:19:19.983     
------------------------------------------------------------------------
 total:
 * wall-time:     0 d,  0 h,  0 min,  1.747 sec
 *  cpu-time:     0 d,  0 h,  0 min, 39.732 sec
 * ratio c/w:    22.747 speedup
 SCF:
 * wall-time:     0 d,  0 h,  0 min,  0.035 sec
 *  cpu-time:     0 d,  0 h,  0 min,  0.783 sec
 * ratio c/w:    22.618 speedup
 ANC optimizer:
 * wall-time:     0 d,  0 h,  0 min,  1.691 sec
 *  cpu-time:     0 d,  0 h,  0 min, 38.599 sec
 * ratio c/w:    22.829 speedup

normal termination of xtb
