      -----------------------------------------------------------      
     |                   =====================                   |     
     |                           x T B                           |     
     |                   =====================                   |     
     |                         S. Grimme                         |     
     |          Mulliken Center for Theoretical Chemistry        |     
     |                    University of Bonn                     |     
      -----------------------------------------------------------      

   * xtb version 6.7.1 (edcfbbe) compiled by 'albert@albert-system' on 2024-07-22

   xtb is free software: you can redistribute it and/or modify it under
   the terms of the GNU Lesser General Public License as published by
   the Free Software Foundation, either version 3 of the License, or
   (at your option) any later version.
   
   xtb is distributed in the hope that it will be useful,
   but WITHOUT ANY WARRANTY; without even the implied warranty of
   MERCHANTABILITY or FITNESS FOR A PARTICULAR PURPOSE.  See the
   GNU Lesser General Public License for more details.
   
   Cite this work as:
   * C. Bannwarth, E. Caldeweyher, S. Ehlert, A. Hansen, P. Pracht,
     J. Seibert, S. Spicher, S. Grimme, WIREs Comput. Mol. Sci., 2020, 11,
     e01493. DOI: 10.1002/wcms.1493
   
   for GFN2-xTB:
   * C. Bannwarth, S. Ehlert and S. Grimme., J. Chem. Theory Comput., 2019,
     15, 1652-1671. DOI: 10.1021/acs.jctc.8b01176
   for GFN1-xTB:
   * S. Grimme, C. Bannwarth, P. Shushkov, J. Chem. Theory Comput., 2017,
     13, 1989-2009. DOI: 10.1021/acs.jctc.7b00118
   for GFN0-xTB:
   * P. Pracht, E. Caldeweyher, S. Ehlert, S. Grimme, ChemRxiv, 2019, preprint.
     DOI: 10.26434/chemrxiv.8326202.v1
   for GFN-FF:
   * S. Spicher and S. Grimme, Angew. Chem. Int. Ed., 2020, 59, 15665-15673.
     DOI: 10.1002/anie.202004239
   
   for ALPB and GBSA implicit solvation:
   * S. Ehlert, M. Stahn, S. Spicher, S. Grimme, J. Chem. Theory Comput.,
     2021, 17, 4250-4261. DOI: 10.1021/acs.jctc.1c00471
   
   for ddCOSMO and CPCM-X implicit solvation:
   * M. Stahn, S. Ehlert, S. Grimme, J. Phys. Chem. A,
     2023, XX, XXXX-XXXX. DOI: 10.1021/acs.jpca.3c04382
   
   for DFT-D4:
   * E. Caldeweyher, C. Bannwarth and S. Grimme, J. Chem. Phys., 2017,
     147, 034112. DOI: 10.1063/1.4993215
   * E. Caldeweyher, S. Ehlert, A. Hansen, H. Neugebauer, S. Spicher,
     C. Bannwarth and S. Grimme, J. Chem. Phys., 2019, 150, 154122.
     DOI: 10.1063/1.5090222
   * E. Caldeweyher, J.-M. Mewes, S. Ehlert and S. Grimme, Phys. Chem. Chem. Phys.
     2020, 22, 8499-8512. DOI: 10.1039/D0CP00502A
   
   for sTDA-xTB:
   * S. Grimme and C. Bannwarth, J. Chem. Phys., 2016, 145, 054103.
     DOI: 10.1063/1.4959605
   
   in the mass-spec context:
   * V. Asgeirsson, C. Bauer and S. Grimme, Chem. Sci., 2017, 8, 4879.
     DOI: 10.1039/c7sc00601b
   * J. Koopman and S. Grimme, ACS Omega 2019, 4, 12, 15120-15133.
     DOI: 10.1021/acsomega.9b02011
   
   for metadynamics refer to:
   * S. Grimme, J. Chem. Theory Comput., 2019, 155, 2847-2862
     DOI: 10.1021/acs.jctc.9b00143
   
   for SPH calculations refer to:
   * S. Spicher and S. Grimme, J. Chem. Theory Comput., 2021, 17, 1701-1714
     DOI: 10.1021/acs.jctc.0c01306
   
   for ONIOM refer to:
   * C. Plett, A. Katbashev, S. Ehlert, S. Grimme, M. Bursch,
     Phys. Chem. Chem. Phys., 2023, 25, 17860-17868. DOI: 10.1039/D3CP02178E
   
   for DIPRO refer to:
   * J. Kohn, N. Gildemeister, S. Grimme, D. Fazzi, A. Hansen,
     J. Chem. Phys., 2023, just accepted.
   
   for PTB refer to:
   * S. Grimme, M. Mueller, A. Hansen, J. Chem. Phys., 2023, 158, 124111.
     DOI: 10.1063/5.0137838
   
   with help from (in alphabetical order)
   P. Atkinson, C. Bannwarth, F. Bohle, G. Brandenburg, E. Caldeweyher
   M. Checinski, S. Dohm, S. Ehlert, S. Ehrlich, I. Gerasimov, C. Hölzer
   A. Katbashev, J. Kohn, J. Koopman, C. Lavigne, S. Lehtola, F. März, M. Müller,
   F. Musil, H. Neugebauer, J. Pisarek, C. Plett, P. Pracht, F. Pultar,
   J. Seibert, P. Shushkov, S. Spicher, M. Stahn, M. Steiner, T. Strunk,
   J. Stückrath, T. Rose, and J. Unsleber
   
 * started run on 2025/12/01 at 14:19:21.436     
   ID    Z sym.   atoms
    1    6 C      1, 2, 4, 5, 7, 8, 10, 11, 13, 15-17
    2    8 O      3, 6, 9, 12, 14
    3    1 H      18-39

           -------------------------------------------------
          |                Calculation Setup                |
           -------------------------------------------------

          program call               : xtb pipeline_data/3_conformer_xyz/acrylates/rdkit/RBFPEAGEJJSYCX-UHFFFAOYSA-N_conf166.xyz --opt --gfn 2-xTB --iterations 250
          coordinate file            : pipeline_data/3_conformer_xyz/acrylates/rdkit/RBFPEAGEJJSYCX-UHFFFAOYSA-N_conf166.xyz
          omp threads                :                    24

########################################################################
[WARNING] Please study the warnings concerning your input carefully
-1- readin_getIntValue: could not parse '2-xTB'
########################################################################

           -------------------------------------------------
          |                 G F N 2 - x T B                 |
           -------------------------------------------------

        Reference                      10.1021/acs.jctc.8b01176
      * Hamiltonian:
        H0-scaling (s, p, d)           1.850000    2.230000    2.230000
        zeta-weighting                 0.500000
      * Dispersion:
        s8                             2.700000
        a1                             0.520000
        a2                             5.000000
        s9                             5.000000
      * Repulsion:
        kExp                           1.500000    1.000000
        rExp                           1.000000
      * Coulomb:
        alpha                          2.000000
        third order                    shell-resolved
        anisotropic                    true
        a3                             3.000000
        a5                             4.000000
        cn-shift                       1.200000
        cn-exp                         4.000000
        max-rad                        5.000000

q/qsh data taken from xtbrestart
CAMM data taken from xtbrestart

          ...................................................
          :                      SETUP                      :
          :.................................................:
          :  # basis functions                  90          :
          :  # atomic orbitals                  90          :
          :  # shells                           56          :
          :  # electrons                       100          :
          :  max. iterations                   250          :
          :  Hamiltonian                  GFN2-xTB          :
          :  restarted?                       true          :
          :  GBSA solvation                  false          :
          :  PC potential                    false          :
          :  electronic temp.          300.0000000     K    :
          :  accuracy                    1.0000000          :
          :  -> integral cutoff          0.2500000E+02      :
          :  -> integral neglect         0.1000000E-07      :
          :  -> SCF convergence          0.1000000E-05 Eh   :
          :  -> wf. convergence          0.1000000E-03 e    :
          :  Broyden damping             0.4000000          :
          :  net charge                          0          :
          :  unpaired electrons                  0          :
          ...................................................

 iter      E             dE          RMSdq      gap      omega  full diag
   1    -57.7373281 -0.577373E+02  0.442E+00    2.85       0.0  T
   2    -57.7475108 -0.101827E-01  0.262E+00    2.94       1.0  T
   3    -57.7503049 -0.279409E-02  0.274E-01    3.03       1.0  T
   4    -57.7506035 -0.298610E-03  0.156E-01    3.06       1.0  T
   5    -57.7506238 -0.203201E-04  0.458E-02    3.08       1.0  T
   6    -57.7506455 -0.216871E-04  0.159E-02    3.07       1.0  T
   7    -57.7506477 -0.217886E-05  0.758E-03    3.07       2.1  T
   8    -57.7506481 -0.468234E-06  0.320E-03    3.06       5.0  T
   9    -57.7506481  0.202821E-07  0.176E-03    3.06       9.1  T
  10    -57.7506482 -0.748878E-07  0.587E-04    3.06      27.3  T
  11    -57.7506482 -0.413096E-08  0.233E-04    3.06      68.8  T

   *** convergence criteria satisfied after 11 iterations ***

         #    Occupation            Energy/Eh            Energy/eV
      -------------------------------------------------------------
         1        2.0000           -0.7383619             -20.0918
       ...           ...                  ...                  ...
        44        2.0000           -0.4414602             -12.0127
        45        2.0000           -0.4309759             -11.7275
        46        2.0000           -0.4246722             -11.5559
        47        2.0000           -0.4157137             -11.3121
        48        2.0000           -0.4083964             -11.1130
        49        2.0000           -0.3998125             -10.8795
        50        2.0000           -0.3986087             -10.8467 (HOMO)
        51                         -0.2859831              -7.7820 (LUMO)
        52                         -0.1758029              -4.7838
        53                         -0.0419499              -1.1415
        54                          0.0202947               0.5522
        55                          0.0540635               1.4711
       ...                                ...                  ...
        90                          0.6201857              16.8761
      -------------------------------------------------------------
                  HL-Gap            0.1126256 Eh            3.0647 eV
             Fermi-level           -0.3422959 Eh           -9.3143 eV

 SCC (total)                   0 d,  0 h,  0 min,  0.036 sec
 SCC setup                      ...        0 min,  0.000 sec (  1.177%)
 Dispersion                     ...        0 min,  0.000 sec (  1.019%)
 classical contributions        ...        0 min,  0.000 sec (  0.563%)
 integral evaluation            ...        0 min,  0.001 sec (  3.715%)
 iterations                     ...        0 min,  0.030 sec ( 81.924%)
 molecular gradient             ...        0 min,  0.004 sec ( 10.971%)
 printout                       ...        0 min,  0.000 sec (  0.553%)

         :::::::::::::::::::::::::::::::::::::::::::::::::::::
         ::                     SUMMARY                     ::
         :::::::::::::::::::::::::::::::::::::::::::::::::::::
         :: total energy             -57.178202926246 Eh    ::
         :: gradient norm              0.143809214527 Eh/a0 ::
         :: HOMO-LUMO gap              3.064698064291 eV    ::
         ::.................................................::
         :: SCC energy               -57.750867915585 Eh    ::
         :: -> isotropic ES            0.095677218515 Eh    ::
         :: -> anisotropic ES          0.004987280002 Eh    ::
         :: -> anisotropic XC          0.009062168919 Eh    ::
         :: -> dispersion             -0.027538810249 Eh    ::
         :: repulsion energy           0.572664989340 Eh    ::
         :: add. restraining           0.000000000000 Eh    ::
         :: total charge               0.000000000000 e     ::
         :::::::::::::::::::::::::::::::::::::::::::::::::::::

      ----------------------------------------------------------- 
     |                   =====================                   |
     |                        A N C O P T                        |
     |                   =====================                   |
     |               Approximate Normal Coordinate               |
     |                Rational Function Optimizer                |
      ----------------------------------------------------------- 
      ----------------------------------------------------------- 
     |                   =====================                   |
     |                        A N C O P T                        |
     |                   =====================                   |
     |               Approximate Normal Coordinate               |
     |                Rational Function Optimizer                |
      ----------------------------------------------------------- 

          ...................................................
          :                      SETUP                      :
          :.................................................:
          :   optimization level            normal          :
          :   max. optcycles                   200          :
          :   ANC micro-cycles                  20          :
          :   degrees of freedom               111          :
          :.................................................:
          :   RF solver                   davidson          :
          :   write xtbopt.log                true          :
          :   linear?                        false          :
          :   energy convergence         0.5000000E-05 Eh   :
          :   grad. convergence          0.1000000E-02 Eh/α :
          :   maxmium RF displ.          1.0000000          :
          :   Hlow (freq-cutoff)         0.1000000E-01      :
          :   Hmax (freq-cutoff)         5.0000000          :
          :   S6 in model hess.         20.0000000          :
          ...................................................

generating ANC from exact Hessian ...
Using Lindh-Hessian (1995)
 Shifting diagonal of input Hessian by   9.859376226976876E-003
 Lowest  eigenvalues of input Hessian
    0.000000    0.000000    0.000000    0.000000    0.000000    0.000000
    0.010000    0.010170    0.010355    0.010539    0.011380    0.011489
    0.011918    0.012503    0.013354    0.014794    0.015934    0.016286
 Highest eigenvalues
    1.628358    1.722634    1.747394    1.787083    1.884837    2.143524
 

........................................................................
.............................. CYCLE    1 ..............................
........................................................................

 iter      E             dE          RMSdq      gap      omega  full diag
   1    -57.7506482 -0.577506E+02  0.689E-05    3.06       0.0  T
   2    -57.7506482 -0.142251E-10  0.433E-05    3.06     369.8  T
   3    -57.7506482  0.710543E-11  0.271E-05    3.06     589.8  T
     SCC iter.                  ...        0 min,  0.006 sec
     gradient                   ...        0 min,  0.003 sec
 * total energy  :   -57.1782029 Eh     change       -0.2083667E-09 Eh
   gradient norm :     0.1438096 Eh/α   predicted     0.0000000E+00 (-100.00%)
   displ. norm   :     0.4178144 α      lambda       -0.3010637E-01
   maximum displ.:     0.1641959 α      in ANC's #19, #24, #35, ...

........................................................................
.............................. CYCLE    2 ..............................
........................................................................

 iter      E             dE          RMSdq      gap      omega  full diag
   1    -57.7928982 -0.577929E+02  0.271E-01    3.34       0.0  T
   2    -57.7931797 -0.281545E-03  0.164E-01    3.28       1.0  T
   3    -57.7931676  0.121504E-04  0.557E-02    3.25       1.0  T
   4    -57.7932006 -0.330608E-04  0.119E-02    3.23       1.4  T
   5    -57.7932030 -0.234879E-05  0.507E-03    3.24       3.2  T
   6    -57.7932030 -0.689931E-07  0.327E-03    3.24       4.9  T
   7    -57.7932033 -0.243814E-06  0.118E-03    3.25      13.6  T
   8    -57.7932033 -0.837458E-08  0.415E-04    3.25      38.6  T
   9    -57.7932033 -0.947189E-09  0.140E-04    3.25     114.7  T
     SCC iter.                  ...        0 min,  0.017 sec
     gradient                   ...        0 min,  0.003 sec
 * total energy  :   -57.1996173 Eh     change       -0.2141433E-01 Eh
   gradient norm :     0.0612750 Eh/α   predicted    -0.1770106E-01 ( -17.34%)
   displ. norm   :     0.4254934 α      lambda       -0.1124167E-01
   maximum displ.:     0.2344009 α      in ANC's #19, #24, #9, ...

........................................................................
.............................. CYCLE    3 ..............................
........................................................................

 iter      E             dE          RMSdq      gap      omega  full diag
   1    -57.8131657 -0.578132E+02  0.194E-01    3.46       0.0  T
   2    -57.8132963 -0.130536E-03  0.117E-01    3.41       1.0  T
   3    -57.8132936  0.265620E-05  0.359E-02    3.38       1.0  T
   4    -57.8133057 -0.120879E-04  0.835E-03    3.38       1.9  T
   5    -57.8133067 -0.102915E-05  0.298E-03    3.38       5.4  T
   6    -57.8133068 -0.534123E-07  0.127E-03    3.38      12.6  T
   7    -57.8133068  0.401329E-09  0.826E-04    3.38      19.4  T
   8    -57.8133068 -0.972321E-08  0.339E-04    3.38      47.3  T
     SCC iter.                  ...        0 min,  0.015 sec
     gradient                   ...        0 min,  0.006 sec
 * total energy  :   -57.2066596 Eh     change       -0.7042379E-02 Eh
   gradient norm :     0.0173017 Eh/α   predicted    -0.6638461E-02 (  -5.74%)
   displ. norm   :     0.3443293 α      lambda       -0.2690650E-02
   maximum displ.:     0.1802124 α      in ANC's #19, #9, #24, ...

........................................................................
.............................. CYCLE    4 ..............................
........................................................................

 iter      E             dE          RMSdq      gap      omega  full diag
   1    -57.8121637 -0.578122E+02  0.108E-01    3.42       0.0  T
   2    -57.8121807 -0.170651E-04  0.651E-02    3.41       1.0  T
   3    -57.8121776  0.315946E-05  0.153E-02    3.40       1.0  T
   4    -57.8121799 -0.230243E-05  0.899E-03    3.40       1.8  T
   5    -57.8121824 -0.252302E-05  0.200E-03    3.40       8.0  T
   6    -57.8121824 -0.371630E-07  0.882E-04    3.40      18.2  T
   7    -57.8121824 -0.307770E-08  0.367E-04    3.40      43.6  T
     SCC iter.                  ...        0 min,  0.018 sec
     gradient                   ...        0 min,  0.003 sec
 * total energy  :   -57.2085921 Eh     change       -0.1932496E-02 Eh
   gradient norm :     0.0109020 Eh/α   predicted    -0.1504837E-02 ( -22.13%)
   displ. norm   :     0.3748580 α      lambda       -0.1588052E-02
   maximum displ.:     0.2056952 α      in ANC's #9, #19, #15, ...

........................................................................
.............................. CYCLE    5 ..............................
........................................................................

 iter      E             dE          RMSdq      gap      omega  full diag
   1    -57.8095349 -0.578095E+02  0.113E-01    3.41       0.0  T
   2    -57.8095487 -0.137623E-04  0.676E-02    3.41       1.0  T
   3    -57.8095493 -0.569421E-06  0.891E-03    3.40       1.8  T
   4    -57.8095496 -0.362816E-06  0.420E-03    3.40       3.8  T
   5    -57.8095499 -0.316460E-06  0.230E-03    3.40       7.0  T
   6    -57.8095500 -0.714959E-07  0.850E-04    3.40      18.8  T
   7    -57.8095500 -0.296445E-08  0.259E-04    3.40      61.7  T
     SCC iter.                  ...        0 min,  0.013 sec
     gradient                   ...        0 min,  0.003 sec
 * total energy  :   -57.2096948 Eh     change       -0.1102687E-02 Eh
   gradient norm :     0.0101030 Eh/α   predicted    -0.9056057E-03 ( -17.87%)
   displ. norm   :     0.3102177 α      lambda       -0.8129767E-03
   maximum displ.:     0.1768266 α      in ANC's #9, #19, #8, ...

........................................................................
.............................. CYCLE    6 ..............................
........................................................................

 iter      E             dE          RMSdq      gap      omega  full diag
   1    -57.8095332 -0.578095E+02  0.849E-02    3.41       0.0  T
   2    -57.8095356 -0.239621E-05  0.506E-02    3.41       1.0  T
   3    -57.8095330  0.257634E-05  0.107E-02    3.41       1.5  T
   4    -57.8095364 -0.338870E-05  0.338E-03    3.41       4.7  T
   5    -57.8095365 -0.169963E-06  0.153E-03    3.41      10.4  T
   6    -57.8095365 -0.922156E-08  0.620E-04    3.41      25.8  T
   7    -57.8095365 -0.249240E-08  0.176E-04    3.41      90.8  T
     SCC iter.                  ...        0 min,  0.025 sec
     gradient                   ...        0 min,  0.005 sec
 * total energy  :   -57.2102473 Eh     change       -0.5524566E-03 Eh
   gradient norm :     0.0086074 Eh/α   predicted    -0.4456078E-03 ( -19.34%)
   displ. norm   :     0.2552992 α      lambda       -0.4618162E-03
   maximum displ.:     0.1277143 α      in ANC's #9, #3, #8, ...

........................................................................
.............................. CYCLE    7 ..............................
........................................................................

 iter      E             dE          RMSdq      gap      omega  full diag
   1    -57.8097609 -0.578098E+02  0.813E-02    3.39       0.0  T
   2    -57.8097652 -0.423413E-05  0.483E-02    3.39       1.0  T
   3    -57.8097655 -0.297888E-06  0.522E-03    3.40       3.1  T
   4    -57.8097658 -0.374810E-06  0.215E-03    3.40       7.4  T
   5    -57.8097659 -0.669168E-08  0.147E-03    3.40      10.9  T
   6    -57.8097659 -0.267077E-07  0.660E-04    3.40      24.3  T
   7    -57.8097659 -0.610383E-08  0.201E-04    3.40      79.5  T
     SCC iter.                  ...        0 min,  0.015 sec
     gradient                   ...        0 min,  0.003 sec
 * total energy  :   -57.2105430 Eh     change       -0.2956976E-03 Eh
   gradient norm :     0.0105557 Eh/α   predicted    -0.2459591E-03 ( -16.82%)
   displ. norm   :     0.2037279 α      lambda       -0.3302665E-03
   maximum displ.:     0.0779624 α      in ANC's #9, #5, #3, ...

........................................................................
.............................. CYCLE    8 ..............................
........................................................................

 iter      E             dE          RMSdq      gap      omega  full diag
   1    -57.8126914 -0.578127E+02  0.548E-02    3.41       0.0  T
   2    -57.8126966 -0.517322E-05  0.330E-02    3.42       1.0  T
   3    -57.8126918  0.478081E-05  0.143E-02    3.41       1.1  T
   4    -57.8126970 -0.524465E-05  0.470E-03    3.42       3.4  T
   5    -57.8126976 -0.628281E-06  0.107E-03    3.42      15.0  T
   6    -57.8126977 -0.343627E-08  0.548E-04    3.42      29.2  T
   7    -57.8126977 -0.953285E-09  0.171E-04    3.42      93.9  T
     SCC iter.                  ...        0 min,  0.013 sec
     gradient                   ...        0 min,  0.004 sec
 * total energy  :   -57.2107295 Eh     change       -0.1865304E-03 Eh
   gradient norm :     0.0049137 Eh/α   predicted    -0.1720035E-03 (  -7.79%)
   displ. norm   :     0.1778969 α      lambda       -0.1870469E-03
   maximum displ.:     0.0787551 α      in ANC's #5, #3, #14, ...

........................................................................
.............................. CYCLE    9 ..............................
........................................................................

 iter      E             dE          RMSdq      gap      omega  full diag
   1    -57.8123386 -0.578123E+02  0.601E-02    3.40       0.0  T
   2    -57.8123406 -0.198423E-05  0.357E-02    3.40       1.0  T
   3    -57.8123388  0.170920E-05  0.822E-03    3.41       1.9  T
   4    -57.8123408 -0.193745E-05  0.302E-03    3.41       5.3  T
   5    -57.8123410 -0.249889E-06  0.105E-03    3.41      15.3  T
   6    -57.8123410 -0.393434E-08  0.446E-04    3.40      35.9  T
   7    -57.8123410 -0.750859E-09  0.125E-04    3.41     128.5  T
     SCC iter.                  ...        0 min,  0.013 sec
     gradient                   ...        0 min,  0.003 sec
 * total energy  :   -57.2108579 Eh     change       -0.1283943E-03 Eh
   gradient norm :     0.0051262 Eh/α   predicted    -0.9648557E-04 ( -24.85%)
   displ. norm   :     0.1750458 α      lambda       -0.1460639E-03
   maximum displ.:     0.0904730 α      in ANC's #5, #3, #14, ...

........................................................................
.............................. CYCLE   10 ..............................
........................................................................

 iter      E             dE          RMSdq      gap      omega  full diag
   1    -57.8124697 -0.578125E+02  0.537E-02    3.41       0.0  T
   2    -57.8124703 -0.633405E-06  0.317E-02    3.41       1.0  T
   3    -57.8124699  0.394580E-06  0.460E-03    3.41       3.5  T
   4    -57.8124705 -0.573710E-06  0.159E-03    3.41      10.1  T
   5    -57.8124705 -0.428440E-07  0.790E-04    3.41      20.3  T
   6    -57.8124705 -0.575501E-08  0.326E-04    3.41      49.2  T
     SCC iter.                  ...        0 min,  0.011 sec
     gradient                   ...        0 min,  0.005 sec
 * total energy  :   -57.2109581 Eh     change       -0.1002098E-03 Eh
   gradient norm :     0.0038305 Eh/α   predicted    -0.7528308E-04 ( -24.87%)
   displ. norm   :     0.1625613 α      lambda       -0.9173580E-04
   maximum displ.:     0.0850859 α      in ANC's #5, #3, #14, ...

........................................................................
.............................. CYCLE   11 ..............................
........................................................................

 iter      E             dE          RMSdq      gap      omega  full diag
   1    -57.8124211 -0.578124E+02  0.511E-02    3.42       0.0  T
   2    -57.8124218 -0.664453E-06  0.300E-02    3.42       1.0  T
   3    -57.8124218 -0.812244E-07  0.177E-03    3.42       9.1  T
   4    -57.8124219 -0.413940E-07  0.827E-04    3.42      19.4  T
   5    -57.8124219 -0.149917E-09  0.532E-04    3.42      30.1  T
     SCC iter.                  ...        0 min,  0.009 sec
     gradient                   ...        0 min,  0.004 sec
 * total energy  :   -57.2110243 Eh     change       -0.6622949E-04 Eh
   gradient norm :     0.0028989 Eh/α   predicted    -0.4708553E-04 ( -28.91%)
   displ. norm   :     0.1886735 α      lambda       -0.8332208E-04
   maximum displ.:     0.0924701 α      in ANC's #5, #3, #14, ...

........................................................................
.............................. CYCLE   12 ..............................
........................................................................

 iter      E             dE          RMSdq      gap      omega  full diag
   1    -57.8121132 -0.578121E+02  0.601E-02    3.43       0.0  T
   2    -57.8121138 -0.588905E-06  0.353E-02    3.43       1.0  T
   3    -57.8121139 -0.804465E-07  0.196E-03    3.42       8.2  T
   4    -57.8121140 -0.708549E-07  0.877E-04    3.42      18.3  T
   5    -57.8121140 -0.194528E-08  0.495E-04    3.42      32.3  T
     SCC iter.                  ...        0 min,  0.009 sec
     gradient                   ...        0 min,  0.003 sec
 * total energy  :   -57.2110828 Eh     change       -0.5844277E-04 Eh
   gradient norm :     0.0027117 Eh/α   predicted    -0.4314495E-04 ( -26.18%)
   displ. norm   :     0.1934752 α      lambda       -0.7266380E-04
   maximum displ.:     0.0908836 α      in ANC's #3, #5, #7, ...

........................................................................
.............................. CYCLE   13 ..............................
........................................................................

 iter      E             dE          RMSdq      gap      omega  full diag
   1    -57.8124403 -0.578124E+02  0.605E-02    3.44       0.0  T
   2    -57.8124409 -0.525951E-06  0.357E-02    3.44       1.0  T
   3    -57.8124397  0.114862E-05  0.615E-03    3.44       2.6  T
   4    -57.8124410 -0.132710E-05  0.145E-03    3.44      11.0  T
   5    -57.8124411 -0.433705E-07  0.586E-04    3.44      27.3  T
   6    -57.8124411 -0.140545E-08  0.250E-04    3.44      64.1  T
     SCC iter.                  ...        0 min,  0.011 sec
     gradient                   ...        0 min,  0.003 sec
 * total energy  :   -57.2111282 Eh     change       -0.4540962E-04 Eh
   gradient norm :     0.0030459 Eh/α   predicted    -0.3769383E-04 ( -16.99%)
   displ. norm   :     0.1627857 α      lambda       -0.4396999E-04
   maximum displ.:     0.0847033 α      in ANC's #3, #7, #14, ...

........................................................................
.............................. CYCLE   14 ..............................
........................................................................

 iter      E             dE          RMSdq      gap      omega  full diag
   1    -57.8120841 -0.578121E+02  0.510E-02    3.43       0.0  T
   2    -57.8120846 -0.500116E-06  0.300E-02    3.43       1.0  T
   3    -57.8120845  0.869222E-07  0.294E-03    3.43       5.4  T
   4    -57.8120847 -0.237835E-06  0.830E-04    3.43      19.3  T
   5    -57.8120847 -0.854371E-09  0.437E-04    3.43      36.6  T
     SCC iter.                  ...        0 min,  0.009 sec
     gradient                   ...        0 min,  0.004 sec
 * total energy  :   -57.2111549 Eh     change       -0.2666629E-04 Eh
   gradient norm :     0.0021583 Eh/α   predicted    -0.2257300E-04 ( -15.35%)
   displ. norm   :     0.0850177 α      lambda       -0.2890502E-04
   maximum displ.:     0.0441135 α      in ANC's #7, #3, #14, ...

........................................................................
.............................. CYCLE   15 ..............................
........................................................................

 iter      E             dE          RMSdq      gap      omega  full diag
   1    -57.8132394 -0.578132E+02  0.242E-02    3.44       0.0  T
   2    -57.8132396 -0.150937E-06  0.144E-02    3.44       1.1  T
   3    -57.8132386  0.962302E-06  0.556E-03    3.44       2.9  T
   4    -57.8132397 -0.107022E-05  0.721E-04    3.44      22.2  T
   5    -57.8132397 -0.112853E-07  0.271E-04    3.44      59.2  T
   6    -57.8132397 -0.212630E-09  0.121E-04    3.44     132.7  T
     SCC iter.                  ...        0 min,  0.010 sec
     gradient                   ...        0 min,  0.005 sec
 * total energy  :   -57.2111733 Eh     change       -0.1840865E-04 Eh
   gradient norm :     0.0017378 Eh/α   predicted    -0.1456020E-04 ( -20.91%)
   displ. norm   :     0.1521037 α      lambda       -0.2236794E-04
   maximum displ.:     0.0843634 α      in ANC's #3, #7, #14, ...

........................................................................
.............................. CYCLE   16 ..............................
........................................................................

 iter      E             dE          RMSdq      gap      omega  full diag
   1    -57.8131918 -0.578132E+02  0.434E-02    3.44       0.0  T
   2    -57.8131921 -0.300396E-06  0.255E-02    3.44       1.0  T
   3    -57.8131921  0.573571E-07  0.212E-03    3.44       7.6  T
   4    -57.8131922 -0.918967E-07  0.107E-03    3.44      15.0  T
   5    -57.8131922 -0.304789E-07  0.419E-04    3.44      38.2  T
   6    -57.8131922 -0.118482E-08  0.130E-04    3.44     122.9  T
     SCC iter.                  ...        0 min,  0.010 sec
     gradient                   ...        0 min,  0.003 sec
 * total energy  :   -57.2111947 Eh     change       -0.2146334E-04 Eh
   gradient norm :     0.0017371 Eh/α   predicted    -0.1130361E-04 ( -47.34%)
   displ. norm   :     0.1508745 α      lambda       -0.2251059E-04
   maximum displ.:     0.0793302 α      in ANC's #3, #7, #1, ...

........................................................................
.............................. CYCLE   17 ..............................
........................................................................

 iter      E             dE          RMSdq      gap      omega  full diag
   1    -57.8132563 -0.578133E+02  0.397E-02    3.44       0.0  T
   2    -57.8132564 -0.196907E-06  0.233E-02    3.44       1.0  T
   3    -57.8132560  0.490028E-06  0.417E-03    3.44       3.8  T
   4    -57.8132565 -0.561014E-06  0.774E-04    3.44      20.7  T
   5    -57.8132565 -0.989895E-08  0.311E-04    3.44      51.6  T
     SCC iter.                  ...        0 min,  0.009 sec
     gradient                   ...        0 min,  0.003 sec
 * total energy  :   -57.2112202 Eh     change       -0.2551427E-04 Eh
   gradient norm :     0.0022520 Eh/α   predicted    -0.1137049E-04 ( -55.43%)
   displ. norm   :     0.1491991 α      lambda       -0.3120656E-04
   maximum displ.:     0.0751706 α      in ANC's #3, #7, #4, ...

........................................................................
.............................. CYCLE   18 ..............................
........................................................................

 iter      E             dE          RMSdq      gap      omega  full diag
   1    -57.8129987 -0.578130E+02  0.354E-02    3.44       0.0  T
   2    -57.8129988 -0.137918E-06  0.208E-02    3.44       1.0  T
   3    -57.8129978  0.105630E-05  0.593E-03    3.44       2.7  T
   4    -57.8129990 -0.117699E-05  0.641E-04    3.43      25.0  T
   5    -57.8129990 -0.384406E-08  0.314E-04    3.43      51.0  T
   6    -57.8129990 -0.217284E-09  0.834E-05    3.43     191.9  T
     SCC iter.                  ...        0 min,  0.011 sec
     gradient                   ...        0 min,  0.004 sec
 * total energy  :   -57.2112448 Eh     change       -0.2450948E-04 Eh
   gradient norm :     0.0020529 Eh/α   predicted    -0.1595220E-04 ( -34.91%)
   displ. norm   :     0.2024791 α      lambda       -0.3291671E-04
   maximum displ.:     0.1027821 α      in ANC's #3, #4, #1, ...

........................................................................
.............................. CYCLE   19 ..............................
........................................................................

 iter      E             dE          RMSdq      gap      omega  full diag
   1    -57.8126840 -0.578127E+02  0.493E-02    3.43       0.0  T
   2    -57.8126842 -0.181497E-06  0.290E-02    3.43       1.0  T
   3    -57.8126827  0.148736E-05  0.701E-03    3.43       2.3  T
   4    -57.8126843 -0.166782E-05  0.789E-04    3.43      20.3  T
   5    -57.8126844 -0.360472E-08  0.392E-04    3.43      40.8  T
   6    -57.8126844 -0.522057E-09  0.103E-04    3.43     155.0  T
     SCC iter.                  ...        0 min,  0.011 sec
     gradient                   ...        0 min,  0.003 sec
 * total energy  :   -57.2112680 Eh     change       -0.2320438E-04 Eh
   gradient norm :     0.0020206 Eh/α   predicted    -0.1713700E-04 ( -26.15%)
   displ. norm   :     0.1409610 α      lambda       -0.1876258E-04
   maximum displ.:     0.0705273 α      in ANC's #3, #4, #1, ...

........................................................................
.............................. CYCLE   20 ..............................
........................................................................

 iter      E             dE          RMSdq      gap      omega  full diag
   1    -57.8127707 -0.578128E+02  0.320E-02    3.43       0.0  T
   2    -57.8127708 -0.994667E-07  0.188E-02    3.43       1.0  T
   3    -57.8127706  0.212810E-06  0.279E-03    3.43       5.7  T
   4    -57.8127708 -0.256195E-06  0.646E-04    3.43      24.8  T
   5    -57.8127708 -0.538537E-08  0.280E-04    3.43      57.2  T
     SCC iter.                  ...        0 min,  0.009 sec
     gradient                   ...        0 min,  0.003 sec
 * total energy  :   -57.2112823 Eh     change       -0.1429333E-04 Eh
   gradient norm :     0.0015634 Eh/α   predicted    -0.9569852E-05 ( -33.05%)
   displ. norm   :     0.1880313 α      lambda       -0.1906693E-04
   maximum displ.:     0.1021807 α      in ANC's #3, #4, #1, ...
 * RMSD in coord.:     0.4539231 α      energy gain  -0.3307933E-01 Eh

generating ANC from exact Hessian ...
Using Lindh-Hessian (1995)
 Shifting diagonal of input Hessian by   9.837929775179633E-003
 Lowest  eigenvalues of input Hessian
    0.000000    0.000000    0.000000    0.000000    0.000000    0.000000
    0.010000    0.010232    0.010400    0.010541    0.011263    0.011485
    0.011935    0.012290    0.013240    0.014421    0.015691    0.016224
 Highest eigenvalues
    1.555829    1.593152    1.612842    1.829041    1.920036    2.376113
 

........................................................................
.............................. CYCLE   21 ..............................
........................................................................

 iter      E             dE          RMSdq      gap      omega  full diag
   1    -57.8130824 -0.578131E+02  0.428E-02    3.43       0.0  T
   2    -57.8130827 -0.234420E-06  0.252E-02    3.42       1.0  T
   3    -57.8130826  0.217077E-07  0.176E-03    3.42       9.1  T
   4    -57.8130827 -0.613069E-07  0.956E-04    3.42      16.7  T
   5    -57.8130827 -0.195571E-07  0.394E-04    3.42      40.6  T
     SCC iter.                  ...        0 min,  0.009 sec
     gradient                   ...        0 min,  0.003 sec
 * total energy  :   -57.2113022 Eh     change       -0.1998637E-04 Eh
   gradient norm :     0.0016962 Eh/α   predicted     0.0000000E+00 (-100.00%)
   displ. norm   :     0.0298863 α      lambda       -0.1002709E-04
   maximum displ.:     0.0150382 α      in ANC's #3, #11, #13, ...

........................................................................
.............................. CYCLE   22 ..............................
........................................................................

 iter      E             dE          RMSdq      gap      omega  full diag
   1    -57.8130859 -0.578131E+02  0.843E-03    3.43       0.0  T
   2    -57.8130860 -0.400690E-07  0.506E-03    3.43       3.2  T
   3    -57.8130859  0.118468E-06  0.206E-03    3.43       7.8  T
   4    -57.8130860 -0.134262E-06  0.393E-04    3.43      40.7  T
   5    -57.8130860 -0.343778E-08  0.141E-04    3.43     113.6  T
     SCC iter.                  ...        0 min,  0.009 sec
     gradient                   ...        0 min,  0.003 sec
 * total energy  :   -57.2113128 Eh     change       -0.1051203E-04 Eh
   gradient norm :     0.0005733 Eh/α   predicted    -0.5021706E-05 ( -52.23%)
   displ. norm   :     0.0605644 α      lambda       -0.1053024E-04
   maximum displ.:     0.0320513 α      in ANC's #3, #11, #13, ...

........................................................................
.............................. CYCLE   23 ..............................
........................................................................

 iter      E             dE          RMSdq      gap      omega  full diag
   1    -57.8129838 -0.578130E+02  0.137E-02    3.43       0.0  T
   2    -57.8129839 -0.594207E-07  0.814E-03    3.43       2.0  T
   3    -57.8129838  0.101578E-06  0.198E-03    3.43       8.1  T
   4    -57.8129839 -0.118586E-06  0.498E-04    3.43      32.2  T
   5    -57.8129839 -0.550121E-08  0.217E-04    3.43      73.6  T
     SCC iter.                  ...        0 min,  0.009 sec
     gradient                   ...        0 min,  0.003 sec
 * total energy  :   -57.2113203 Eh     change       -0.7568042E-05 Eh
   gradient norm :     0.0012822 Eh/α   predicted    -0.5277521E-05 ( -30.27%)
   displ. norm   :     0.0492979 α      lambda       -0.6958180E-05
   maximum displ.:     0.0282580 α      in ANC's #3, #11, #2, ...

........................................................................
.............................. CYCLE   24 ..............................
........................................................................

 iter      E             dE          RMSdq      gap      omega  full diag
   1    -57.8129026 -0.578129E+02  0.117E-02    3.43       0.0  T
   2    -57.8129026 -0.219405E-07  0.701E-03    3.43       2.3  T
   3    -57.8129026  0.208376E-07  0.986E-04    3.43      16.2  T
   4    -57.8129027 -0.287029E-07  0.347E-04    3.43      46.1  T
     SCC iter.                  ...        0 min,  0.008 sec
     gradient                   ...        0 min,  0.003 sec
 * total energy  :   -57.2113261 Eh     change       -0.5797906E-05 Eh
   gradient norm :     0.0010086 Eh/α   predicted    -0.3483896E-05 ( -39.91%)
   displ. norm   :     0.0349612 α      lambda       -0.3863914E-05
   maximum displ.:     0.0214769 α      in ANC's #3, #2, #16, ...

........................................................................
.............................. CYCLE   25 ..............................
........................................................................

 iter      E             dE          RMSdq      gap      omega  full diag
   1    -57.8129682 -0.578130E+02  0.730E-03    3.43       0.0  T
   2    -57.8129682 -0.147968E-07  0.435E-03    3.43       3.7  T
   3    -57.8129682  0.414580E-09  0.474E-04    3.43      33.8  T
   4    -57.8129682 -0.376636E-08  0.233E-04    3.43      68.6  T
     SCC iter.                  ...        0 min,  0.007 sec
     gradient                   ...        0 min,  0.003 sec
 * total energy  :   -57.2113309 Eh     change       -0.4775030E-05 Eh
   gradient norm :     0.0005345 Eh/α   predicted    -0.1933286E-05 ( -59.51%)
   displ. norm   :     0.0745070 α      lambda       -0.6517370E-05
   maximum displ.:     0.0457814 α      in ANC's #3, #2, #16, ...

   *** GEOMETRY OPTIMIZATION CONVERGED AFTER 25 ITERATIONS ***

------------------------------------------------------------------------
 total energy gain   :        -0.0331280 Eh      -20.7881 kcal/mol
 total RMSD          :         0.4625621 a0        0.2448 Å
 total power (kW/mol):        -3.4790985 (step) -184.9880 (real)
------------------------------------------------------------------------

 ANCopt (total)                0 d,  0 h,  0 min,  0.470 sec
 optimizer setup                ...        0 min,  0.000 sec (  0.028%)
 model hessian                  ...        0 min,  0.031 sec (  6.520%)
 ANC generation                 ...        0 min,  0.003 sec (  0.703%)
 coordinate transformation      ...        0 min,  0.000 sec (  0.090%)
 single point calculation       ...        0 min,  0.415 sec ( 88.306%)
 optimization log               ...        0 min,  0.006 sec (  1.215%)
 hessian update                 ...        0 min,  0.011 sec (  2.290%)
 rational function              ...        0 min,  0.003 sec (  0.599%)

================
 final structure:
================
39
 xtb: 6.7.1 (edcfbbe)
C            6.48455615121573       -0.14717371575567        1.58545742775506
C            6.55798809562311       -0.10864661685287        0.06043077889747
O            5.88662253335593       -1.17138974440647       -0.58956239269651
C            4.50215636693121       -1.28040948112460       -0.37142157534801
C            3.67693964028444       -0.13416520008671       -0.96896772444579
O            2.31780304390962       -0.44265173645263       -0.76401521474234
C            1.44680600022672        0.56045959888693       -1.22912092197015
C            0.02307358930647        0.16730434347366       -0.84832568485054
O           -0.82101194841947        1.26696090725397       -1.11857949955201
C           -2.19200976131127        0.99870898976129       -0.97415927536646
C           -2.62696989852502        0.86976789852877        0.49631081278695
O           -4.04159754140807        0.90693908331672        0.61848649140966
C           -4.69922560914007       -0.23033548677240        0.33490194063085
O           -4.14483795538535       -1.24183922040500       -0.02078203965743
C           -6.16954394027691       -0.10879325594476        0.52311811721039
C           -6.94992067843564       -1.30810022769035        0.08870097626006
C           -6.71274858123732        0.98344625452469        1.05011460906449
H            6.74999909620192       -1.13803488640833        1.94564897203329
H            5.48771606398437        0.10194124338655        1.94100303877650
H            7.18455062745443        0.57559046586565        1.99554614295914
H            6.19476601673080        0.86176923877347       -0.30571297929297
H            7.59610558157128       -0.22741511921558       -0.26076508506974
H            4.20902537335095       -2.21046887291365       -0.86349535717410
H            4.26288273788598       -1.36759905918336        0.69538058065097
H            3.89904365044652       -0.03323738753883       -2.04212137469048
H            3.91921239386951        0.82071261534917       -0.47677349996087
H            1.53151326430632        0.67906364538604       -2.31886979413994
H            1.68253609532711        1.52860329962870       -0.76219428467264
H            0.01240321095120       -0.09458563307878        0.21747783360828
H           -0.29255703266334       -0.71344884946260       -1.42305170617181
H           -2.70756914182720        1.85434196071227       -1.41968277776574
H           -2.47271242563162        0.08482843395042       -1.51578149333923
H           -2.25475050456476        1.72132192414284        1.06938256290946
H           -2.25393520726100       -0.06764755490999        0.92194699406611
H           -6.86260303298501       -1.43501708185381       -0.98946999022054
H           -6.53828434076731       -2.20268030819748        0.55182414633887
H           -7.99801914700649       -1.20691917936872        0.35412523010822
H           -6.11044345227111        1.82209958258916        1.35100666549829
H           -7.77696133381905        1.06669713209697        1.19405435016261
 
 Bond Distances (Angstroems)
 ---------------------------
C1-C2=1.5273         C1-H18=1.0872        C1-H19=1.0873        C1-H20=1.0865        C2-C1=1.5273         C2-O3=1.4151         
C2-H21=1.0990        C2-H22=1.0931        O3-C2=1.4151         O3-C4=1.4058         C4-O3=1.4058         C4-C5=1.5336         
C4-H23=1.0923        C4-H24=1.0968        C5-C4=1.5336         C5-O6=1.4087         C5-H25=1.1005        C5-H26=1.1012        
O6-C5=1.4087         O6-C7=1.4075         C7-O6=1.4075         C7-C8=1.5253         C7-H27=1.0995        C7-H28=1.1004        
C8-C7=1.5253         C8-O9=1.4124         C8-H29=1.0976        C8-H30=1.0980        O9-C8=1.4124         O9-C10=1.4044        
C10-O9=1.4044        C10-C11=1.5389       C10-H31=1.0938       C10-H32=1.0988       C11-C10=1.5389       C11-O12=1.4204       
C11-H33=1.0918       C11-H34=1.0950       O12-C11=1.4204       O12-C13=1.3440       C13-O12=1.3440       C13-O14=1.2071       
C13-C15=1.4873       O14-C13=1.2071       C15-C13=1.4873       C15-C16=1.4953       C15-C17=1.3288       C16-C15=1.4953       
C16-H35=1.0891       C16-H36=1.0882       C16-H37=1.0859       C17-C15=1.3288       C17-H38=1.0755       C17-H39=1.0771       
H18-C1=1.0872        H19-C1=1.0873        H20-C1=1.0865        H21-C2=1.0990        H22-C2=1.0931        H23-C4=1.0923        
H24-C4=1.0968        H25-C5=1.1005        H26-C5=1.1012        H27-C7=1.0995        H28-C7=1.1004        H29-C8=1.0976        
H30-C8=1.0980        H31-C10=1.0938       H32-C10=1.0988       H33-C11=1.0918       H34-C11=1.0950       H35-C16=1.0891       
H36-C16=1.0882       H37-C16=1.0859       H38-C17=1.0755       H39-C17=1.0771       
 C  H  Rav=1.0925 sigma=0.0071  Rmin=1.0755  Rmax=1.1012    22
 C  C  Rav=1.4909 sigma=0.0686  Rmin=1.3288  Rmax=1.5389     7
 O  C  Rav=1.3806 sigma=0.0649  Rmin=1.2071  Rmax=1.4204     9
 
 selected bond angles (degree)
 --------------------
H18-C1-C2=110.00               H19-C1-C2=111.40               H19-C1-H18=108.92              H20-C1-C2=109.22               
H20-C1-H18=108.90              H20-C1-H19=108.35              O3-C2-C1=114.64                H21-C2-C1=109.82               
H21-C2-O3=110.69               H22-C2-C1=109.65               H22-C2-O3=103.53               H22-C2-H21=108.18              
C4-O3-C2=117.01                C5-C4-O3=114.30                H23-C4-O3=105.10               H23-C4-C5=108.45               
H24-C4-O3=111.84               H24-C4-C5=108.72               H24-C4-H23=108.18              O6-C5-C4=107.39                
H25-C5-C4=109.87               H25-C5-O6=110.90               H26-C5-C4=110.83               H26-C5-O6=109.70               
H26-C5-H25=108.17              C7-O6-C5=113.13                C8-C7-O6=108.14                H27-C7-O6=110.90               
H27-C7-C8=110.31               H28-C7-O6=110.75               H28-C7-C8=108.71               H28-C7-H27=108.01              
O9-C8-C7=108.02                H29-C8-C7=108.24               H29-C8-O9=111.46               H30-C8-C7=110.14               
H30-C8-O9=110.65               H30-C8-H29=108.31              C10-O9-C8=114.52               C11-C10-O9=112.97              
H31-C10-O9=105.59              H31-C10-C11=108.76             H32-C10-O9=110.95              H32-C10-C11=109.22             
H32-C10-H31=109.23             
 
 selected dihedral angles (degree)
 ---------------------------------
O3-C2-C1-H18= 49.12           O3-C2-C1-H19=288.23           O3-C2-C1-H20=168.59           H21-C2-C1-H18=174.46          
H21-C2-C1-H19= 53.57          H21-C2-C1-H20=293.93          H22-C2-C1-H18=293.20          H22-C2-C1-H19=172.31          
H22-C2-C1-H20= 52.66          C4-O3-C2-C1= 60.92            C4-O3-C2-H21=296.03           C4-O3-C2-H22=180.32           
C5-C4-O3-C2= 67.25            H23-C4-O3-C2=186.03           H24-C4-O3-C2=303.17           O6-C5-C4-O3=175.26            
O6-C5-C4-H23= 58.40           O6-C5-C4-H24=300.99           H25-C5-C4-O3= 54.56           H25-C5-C4-H23=297.69          
H25-C5-C4-H24=180.29          H26-C5-C4-O3=295.06           H26-C5-C4-H23=178.20          H26-C5-C4-H24= 60.79          
C7-O6-C5-C4=177.91            C7-O6-C5-H25=297.96           C7-O6-C5-H26= 57.39           C8-C7-O6-C5=184.65            
H27-C7-O6-C5= 63.57           H28-C7-O6-C5=303.67           O9-C8-C7-O6=170.63            O9-C8-C7-H27=292.07           
O9-C8-C7-H28= 50.32           H29-C8-C7-O6= 49.81           H29-C8-C7-H27=171.25          H29-C8-C7-H28=289.51          
H30-C8-C7-O6=291.57           H30-C8-C7-H27= 53.01          H30-C8-C7-H28=171.27          C10-O9-C8-C7=172.45           
C10-O9-C8-H29=291.24          C10-O9-C8-H30= 51.82          C11-C10-O9-C8= 73.27          H31-C10-O9-C8=192.01          
H32-C10-O9-C8=310.25          
           -------------------------------------------------
          |                Final Singlepoint                |
           -------------------------------------------------

          ...................................................
          :                      SETUP                      :
          :.................................................:
          :  # basis functions                  90          :
          :  # atomic orbitals                  90          :
          :  # shells                           56          :
          :  # electrons                       100          :
          :  max. iterations                   250          :
          :  Hamiltonian                  GFN2-xTB          :
          :  restarted?                      false          :
          :  GBSA solvation                  false          :
          :  PC potential                    false          :
          :  electronic temp.          300.0000000     K    :
          :  accuracy                    1.0000000          :
          :  -> integral cutoff          0.2500000E+02      :
          :  -> integral neglect         0.1000000E-07      :
          :  -> SCF convergence          0.1000000E-05 Eh   :
          :  -> wf. convergence          0.1000000E-03 e    :
          :  Broyden damping             0.4000000          :
          :  net charge                          0          :
          :  unpaired electrons                  0          :
          ...................................................

 iter      E             dE          RMSdq      gap      omega  full diag
   1    -57.8129682 -0.578130E+02  0.130E-04    3.43       0.0  T
   2    -57.8129682 -0.247269E-10  0.971E-05    3.43     164.8  T
   3    -57.8129682 -0.157797E-09  0.581E-05    3.43     275.8  T

   *** convergence criteria satisfied after 3 iterations ***

         #    Occupation            Energy/Eh            Energy/eV
      -------------------------------------------------------------
         1        2.0000           -0.7463782             -20.3100
       ...           ...                  ...                  ...
        44        2.0000           -0.4491979             -12.2233
        45        2.0000           -0.4333469             -11.7920
        46        2.0000           -0.4216346             -11.4733
        47        2.0000           -0.4164192             -11.3313
        48        2.0000           -0.4074407             -11.0870
        49        2.0000           -0.4043858             -11.0039
        50        2.0000           -0.4002896             -10.8924 (HOMO)
        51                         -0.2741671              -7.4605 (LUMO)
        52                         -0.1667125              -4.5365
        53                         -0.0328255              -0.8932
        54                         -0.0031853              -0.0867
        55                          0.0344987               0.9388
       ...                                ...                  ...
        90                          0.6951422              18.9158
      -------------------------------------------------------------
                  HL-Gap            0.1261225 Eh            3.4320 eV
             Fermi-level           -0.3372283 Eh           -9.1764 eV

 SCC (total)                   0 d,  0 h,  0 min,  0.010 sec
 SCC setup                      ...        0 min,  0.000 sec (  1.798%)
 Dispersion                     ...        0 min,  0.000 sec (  1.553%)
 classical contributions        ...        0 min,  0.000 sec (  0.373%)
 integral evaluation            ...        0 min,  0.001 sec (  7.500%)
 iterations                     ...        0 min,  0.006 sec ( 55.790%)
 molecular gradient             ...        0 min,  0.003 sec ( 31.043%)
 printout                       ...        0 min,  0.000 sec (  1.685%)

         :::::::::::::::::::::::::::::::::::::::::::::::::::::
         ::                     SUMMARY                     ::
         :::::::::::::::::::::::::::::::::::::::::::::::::::::
         :: total energy             -57.211330893026 Eh    ::
         :: gradient norm              0.000543705511 Eh/a0 ::
         :: HOMO-LUMO gap              3.431967483023 eV    ::
         ::.................................................::
         :: SCC energy               -57.813190229988 Eh    ::
         :: -> isotropic ES            0.097751652004 Eh    ::
         :: -> anisotropic ES          0.005400727387 Eh    ::
         :: -> anisotropic XC          0.008778148788 Eh    ::
         :: -> dispersion             -0.026922402968 Eh    ::
         :: repulsion energy           0.601859336962 Eh    ::
         :: add. restraining           0.000000000000 Eh    ::
         :: total charge              -0.000000000000 e     ::
         :::::::::::::::::::::::::::::::::::::::::::::::::::::

           -------------------------------------------------
          |                Property Printout                |
           -------------------------------------------------

    * Orbital Energies and Occupations

         #    Occupation            Energy/Eh            Energy/eV
      -------------------------------------------------------------
         1        2.0000           -0.7463782             -20.3100
       ...           ...                  ...                  ...
        38        2.0000           -0.4714754             -12.8295
        39        2.0000           -0.4670499             -12.7091
        40        2.0000           -0.4619546             -12.5704
        41        2.0000           -0.4597621             -12.5108
        42        2.0000           -0.4556911             -12.4000
        43        2.0000           -0.4518410             -12.2952
        44        2.0000           -0.4491979             -12.2233
        45        2.0000           -0.4333469             -11.7920
        46        2.0000           -0.4216346             -11.4733
        47        2.0000           -0.4164192             -11.3313
        48        2.0000           -0.4074407             -11.0870
        49        2.0000           -0.4043858             -11.0039
        50        2.0000           -0.4002896             -10.8924 (HOMO)
        51                         -0.2741671              -7.4605 (LUMO)
        52                         -0.1667125              -4.5365
        53                         -0.0328255              -0.8932
        54                         -0.0031853              -0.0867
        55                          0.0344987               0.9388
        56                          0.0682206               1.8564
        57                          0.0753990               2.0517
        58                          0.0846925               2.3046
        59                          0.0897221               2.4415
        60                          0.0971120               2.6426
        61                          0.1088255               2.9613
       ...                                ...                  ...
        90                          0.6951422              18.9158
      -------------------------------------------------------------
                  HL-Gap            0.1261225 Eh            3.4320 eV
             Fermi-level           -0.3372283 Eh           -9.1764 eV

     #   Z          covCN         q      C6AA      α(0)
     1   6 C        3.750    -0.117    22.797     6.810
     2   6 C        3.687     0.078    19.458     6.314
     3   8 O        1.700    -0.317    19.295     5.931
     4   6 C        3.689     0.073    19.546     6.328
     5   6 C        3.702     0.078    19.435     6.304
     6   8 O        1.702    -0.322    19.390     5.945
     7   6 C        3.704     0.082    19.353     6.290
     8   6 C        3.697     0.076    19.470     6.311
     9   8 O        1.701    -0.315    19.260     5.925
    10   6 C        3.696     0.072    19.544     6.324
    11   6 C        3.702     0.068    19.598     6.330
    12   8 O        1.704    -0.269    18.461     5.801
    13   6 C        2.728     0.349    21.066     7.514
    14   8 O        0.856    -0.413    21.935     6.279
    15   6 C        2.937    -0.007    28.192     8.708
    16   6 C        3.759    -0.112    22.686     6.790
    17   6 C        2.844    -0.082    30.033     8.981
    18   1 H        0.925     0.052     2.292     2.368
    19   1 H        0.925     0.042     2.417     2.431
    20   1 H        0.925     0.043     2.406     2.425
    21   1 H        0.923     0.019     2.742     2.590
    22   1 H        0.924     0.054     2.268     2.355
    23   1 H        0.924     0.066     2.129     2.282
    24   1 H        0.924     0.041     2.431     2.438
    25   1 H        0.923     0.031     2.575     2.510
    26   1 H        0.923     0.023     2.690     2.565
    27   1 H        0.923     0.036     2.501     2.473
    28   1 H        0.923     0.038     2.482     2.464
    29   1 H        0.924     0.040     2.446     2.446
    30   1 H        0.923     0.043     2.405     2.425
    31   1 H        0.924     0.065     2.145     2.290
    32   1 H        0.923     0.047     2.352     2.398
    33   1 H        0.924     0.068     2.113     2.273
    34   1 H        0.924     0.059     2.207     2.323
    35   1 H        0.925     0.064     2.158     2.297
    36   1 H        0.925     0.070     2.090     2.261
    37   1 H        0.925     0.053     2.288     2.365
    38   1 H        0.926     0.064     2.151     2.293
    39   1 H        0.926     0.059     2.215     2.327

 Mol. C6AA /au·bohr⁶  :      12391.348143
 Mol. C8AA /au·bohr⁸  :     265649.908572
 Mol. α(0) /au        :        165.485847


Wiberg/Mayer (AO) data.
largest (>0.10) Wiberg bond orders for each atom

 ---------------------------------------------------------------------------
     #   Z sym  total        # sym  WBO       # sym  WBO       # sym  WBO
 ---------------------------------------------------------------------------
     1   6 C    3.996 --     2 C    1.010    18 H    0.986    19 H    0.985
                            20 H    0.985
     2   6 C    3.954 --     1 C    1.010     3 O    0.980    22 H    0.971
                            21 H    0.969
     3   8 O    2.081 --     4 C    0.996     2 C    0.980
     4   6 C    3.955 --     3 O    0.996     5 C    0.985    23 H    0.967
                            24 H    0.965
     5   6 C    3.950 --     4 C    0.985     6 O    0.981    25 H    0.968
                            26 H    0.965
     6   8 O    2.064 --     7 C    0.986     5 C    0.981
     7   6 C    3.953 --     8 C    0.995     6 O    0.986    27 H    0.967
                            28 H    0.965
     8   6 C    3.951 --     7 C    0.995     9 O    0.982    30 H    0.967
                            29 H    0.967
     9   8 O    2.077 --    10 C    0.993     8 C    0.982
    10   6 C    3.950 --     9 O    0.993    11 C    0.979    31 H    0.968
                            32 H    0.965
    11   6 C    3.929 --    10 C    0.979    33 H    0.970    34 H    0.966
                            12 O    0.953
    12   8 O    2.299 --    13 C    1.111    11 C    0.953    14 O    0.167
    13   6 C    3.915 --    14 O    1.730    12 O    1.111    15 C    0.996
    14   8 O    2.033 --    13 C    1.730    12 O    0.167
    15   6 C    3.986 --    17 C    1.875    16 C    1.029    13 C    0.996
    16   6 C    3.993 --    15 C    1.029    37 H    0.984    36 H    0.968
                            35 H    0.965
    17   6 C    3.988 --    15 C    1.875    39 H    0.974    38 H    0.972
    18   1 H    0.997 --     1 C    0.986
    19   1 H    0.998 --     1 C    0.985
    20   1 H    0.998 --     1 C    0.985
    21   1 H    1.000 --     2 C    0.969
    22   1 H    0.997 --     2 C    0.971
    23   1 H    0.996 --     4 C    0.967
    24   1 H    0.998 --     4 C    0.965
    25   1 H    0.999 --     5 C    0.968
    26   1 H    0.999 --     5 C    0.965
    27   1 H    0.999 --     7 C    0.967
    28   1 H    0.999 --     7 C    0.965
    29   1 H    0.998 --     8 C    0.967
    30   1 H    0.998 --     8 C    0.967
    31   1 H    0.995 --    10 C    0.968
    32   1 H    0.998 --    10 C    0.965
    33   1 H    0.995 --    11 C    0.970
    34   1 H    0.996 --    11 C    0.966
    35   1 H    0.996 --    16 C    0.965
    36   1 H    0.995 --    16 C    0.968
    37   1 H    0.997 --    16 C    0.984
    38   1 H    0.996 --    17 C    0.972
    39   1 H    0.997 --    17 C    0.974
 ---------------------------------------------------------------------------

Topologies differ in total number of bonds
Writing topology from bond orders to xtbtopo.mol

molecular dipole:
                 x           y           z       tot (Debye)
 q only:       -0.407       0.771       0.488
   full:       -0.520       0.995       0.569       3.198
molecular quadrupole (traceless):
                xx          xy          yy          xz          yz          zz
 q only:       17.295       2.540     -10.952       3.400      -0.292      -6.344
  q+dip:       11.775       4.873      -9.841       3.800       0.486      -1.934
   full:       13.456       5.138     -11.181       4.084      -0.637      -2.275

           -------------------------------------------------
          |                Geometry Summary                 |
           -------------------------------------------------

      molecular mass/u    :      246.3005519
   center of mass at/Å    :       -0.3463451      -0.0298029      -0.1346729
  moments of inertia/u·Å² :        0.3571193E+03   0.5351048E+04   0.5380947E+04
rotational constants/cm⁻¹ :        0.4720448E-01   0.3150342E-02   0.3132837E-02

 * 36 selected distances

     #   Z          #   Z                                           value/Å
     1   6 C        2   6 C                                       1.5272797
     2   6 C        3   8 O                                       1.4151488
     3   8 O        4   6 C                                       1.4057801
     4   6 C        5   6 C                                       1.5335972
     5   6 C        6   8 O                                       1.4086952
     6   8 O        7   6 C                                       1.4075482
     7   6 C        8   6 C                                       1.5253165
     8   6 C        9   8 O                                       1.4123606
     9   8 O       10   6 C                                       1.4044400
    10   6 C       11   6 C                                       1.5388628 (max)
    11   6 C       12   8 O                                       1.4203803
    12   8 O       13   6 C                                       1.3439824
    13   6 C       14   8 O                                       1.2070612
    15   6 C       17   6 C                                       1.3288281
     1   6 C       18   1 H                                       1.0872001
     1   6 C       19   1 H                                       1.0872724
     1   6 C       20   1 H                                       1.0865327
     2   6 C       21   1 H                                       1.0989535
     2   6 C       22   1 H                                       1.0931427
     4   6 C       23   1 H                                       1.0922788
     4   6 C       24   1 H                                       1.0967775
     5   6 C       25   1 H                                       1.1005342
     5   6 C       26   1 H                                       1.1012462
     7   6 C       27   1 H                                       1.0994522
     7   6 C       28   1 H                                       1.1004052
     8   6 C       29   1 H                                       1.0975598
     8   6 C       30   1 H                                       1.0980251
    10   6 C       31   1 H                                       1.0938010
    10   6 C       32   1 H                                       1.0987841
    11   6 C       33   1 H                                       1.0918347
    11   6 C       34   1 H                                       1.0950201
    16   6 C       35   1 H                                       1.0891213
    16   6 C       36   1 H                                       1.0882101
    16   6 C       37   1 H                                       1.0859090
    17   6 C       38   1 H                                       1.0754753 (min)
    17   6 C       39   1 H                                       1.0771250

 * 3 distinct bonds (by element types)

   Z      Z             #   av. dist./Å        max./Å        min./Å
   1 H    6 C          22     1.0924846     1.1012462     1.0754753
   6 C    6 C           5     1.4907769     1.5388628     1.3288281
   6 C    8 O           9     1.3805996     1.4203803     1.2070612


optimized geometry written to: xtbopt.xyz


           -------------------------------------------------
          | TOTAL ENERGY              -57.211330893026 Eh   |
          | GRADIENT NORM               0.000543705511 Eh/α |
          | HOMO-LUMO GAP               3.431967483023 eV   |
           -------------------------------------------------

------------------------------------------------------------------------
 * finished run on 2025/12/01 at 14:19:21.969     
------------------------------------------------------------------------
 total:
 * wall-time:     0 d,  0 h,  0 min,  0.533 sec
 *  cpu-time:     0 d,  0 h,  0 min, 12.035 sec
 * ratio c/w:    22.584 speedup
 SCF:
 * wall-time:     0 d,  0 h,  0 min,  0.036 sec
 *  cpu-time:     0 d,  0 h,  0 min,  0.823 sec
 * ratio c/w:    22.675 speedup
 ANC optimizer:
 * wall-time:     0 d,  0 h,  0 min,  0.481 sec
 *  cpu-time:     0 d,  0 h,  0 min, 10.946 sec
 * ratio c/w:    22.746 speedup

normal termination of xtb
