      -----------------------------------------------------------      
     |                   =====================                   |     
     |                           x T B                           |     
     |                   =====================                   |     
     |                         S. Grimme                         |     
     |          Mulliken Center for Theoretical Chemistry        |     
     |                    University of Bonn                     |     
      -----------------------------------------------------------      

   * xtb version 6.7.1 (edcfbbe) compiled by 'albert@albert-system' on 2024-07-22

   xtb is free software: you can redistribute it and/or modify it under
   the terms of the GNU Lesser General Public License as published by
   the Free Software Foundation, either version 3 of the License, or
   (at your option) any later version.
   
   xtb is distributed in the hope that it will be useful,
   but WITHOUT ANY WARRANTY; without even the implied warranty of
   MERCHANTABILITY or FITNESS FOR A PARTICULAR PURPOSE.  See the
   GNU Lesser General Public License for more details.
   
   Cite this work as:
   * C. Bannwarth, E. Caldeweyher, S. Ehlert, A. Hansen, P. Pracht,
     J. Seibert, S. Spicher, S. Grimme, WIREs Comput. Mol. Sci., 2020, 11,
     e01493. DOI: 10.1002/wcms.1493
   
   for GFN2-xTB:
   * C. Bannwarth, S. Ehlert and S. Grimme., J. Chem. Theory Comput., 2019,
     15, 1652-1671. DOI: 10.1021/acs.jctc.8b01176
   for GFN1-xTB:
   * S. Grimme, C. Bannwarth, P. Shushkov, J. Chem. Theory Comput., 2017,
     13, 1989-2009. DOI: 10.1021/acs.jctc.7b00118
   for GFN0-xTB:
   * P. Pracht, E. Caldeweyher, S. Ehlert, S. Grimme, ChemRxiv, 2019, preprint.
     DOI: 10.26434/chemrxiv.8326202.v1
   for GFN-FF:
   * S. Spicher and S. Grimme, Angew. Chem. Int. Ed., 2020, 59, 15665-15673.
     DOI: 10.1002/anie.202004239
   
   for ALPB and GBSA implicit solvation:
   * S. Ehlert, M. Stahn, S. Spicher, S. Grimme, J. Chem. Theory Comput.,
     2021, 17, 4250-4261. DOI: 10.1021/acs.jctc.1c00471
   
   for ddCOSMO and CPCM-X implicit solvation:
   * M. Stahn, S. Ehlert, S. Grimme, J. Phys. Chem. A,
     2023, XX, XXXX-XXXX. DOI: 10.1021/acs.jpca.3c04382
   
   for DFT-D4:
   * E. Caldeweyher, C. Bannwarth and S. Grimme, J. Chem. Phys., 2017,
     147, 034112. DOI: 10.1063/1.4993215
   * E. Caldeweyher, S. Ehlert, A. Hansen, H. Neugebauer, S. Spicher,
     C. Bannwarth and S. Grimme, J. Chem. Phys., 2019, 150, 154122.
     DOI: 10.1063/1.5090222
   * E. Caldeweyher, J.-M. Mewes, S. Ehlert and S. Grimme, Phys. Chem. Chem. Phys.
     2020, 22, 8499-8512. DOI: 10.1039/D0CP00502A
   
   for sTDA-xTB:
   * S. Grimme and C. Bannwarth, J. Chem. Phys., 2016, 145, 054103.
     DOI: 10.1063/1.4959605
   
   in the mass-spec context:
   * V. Asgeirsson, C. Bauer and S. Grimme, Chem. Sci., 2017, 8, 4879.
     DOI: 10.1039/c7sc00601b
   * J. Koopman and S. Grimme, ACS Omega 2019, 4, 12, 15120-15133.
     DOI: 10.1021/acsomega.9b02011
   
   for metadynamics refer to:
   * S. Grimme, J. Chem. Theory Comput., 2019, 155, 2847-2862
     DOI: 10.1021/acs.jctc.9b00143
   
   for SPH calculations refer to:
   * S. Spicher and S. Grimme, J. Chem. Theory Comput., 2021, 17, 1701-1714
     DOI: 10.1021/acs.jctc.0c01306
   
   for ONIOM refer to:
   * C. Plett, A. Katbashev, S. Ehlert, S. Grimme, M. Bursch,
     Phys. Chem. Chem. Phys., 2023, 25, 17860-17868. DOI: 10.1039/D3CP02178E
   
   for DIPRO refer to:
   * J. Kohn, N. Gildemeister, S. Grimme, D. Fazzi, A. Hansen,
     J. Chem. Phys., 2023, just accepted.
   
   for PTB refer to:
   * S. Grimme, M. Mueller, A. Hansen, J. Chem. Phys., 2023, 158, 124111.
     DOI: 10.1063/5.0137838
   
   with help from (in alphabetical order)
   P. Atkinson, C. Bannwarth, F. Bohle, G. Brandenburg, E. Caldeweyher
   M. Checinski, S. Dohm, S. Ehlert, S. Ehrlich, I. Gerasimov, C. Hölzer
   A. Katbashev, J. Kohn, J. Koopman, C. Lavigne, S. Lehtola, F. März, M. Müller,
   F. Musil, H. Neugebauer, J. Pisarek, C. Plett, P. Pracht, F. Pultar,
   J. Seibert, P. Shushkov, S. Spicher, M. Stahn, M. Steiner, T. Strunk,
   J. Stückrath, T. Rose, and J. Unsleber
   
 * started run on 2025/12/01 at 14:19:21.995     
   ID    Z sym.   atoms
    1    6 C      1, 2, 4, 5, 7, 8, 10, 11, 13, 15-17
    2    8 O      3, 6, 9, 12, 14
    3    1 H      18-39

           -------------------------------------------------
          |                Calculation Setup                |
           -------------------------------------------------

          program call               : xtb pipeline_data/3_conformer_xyz/acrylates/rdkit/RBFPEAGEJJSYCX-UHFFFAOYSA-N_conf158.xyz --opt --gfn 2-xTB --iterations 250
          coordinate file            : pipeline_data/3_conformer_xyz/acrylates/rdkit/RBFPEAGEJJSYCX-UHFFFAOYSA-N_conf158.xyz
          omp threads                :                    24

########################################################################
[WARNING] Please study the warnings concerning your input carefully
-1- readin_getIntValue: could not parse '2-xTB'
########################################################################

           -------------------------------------------------
          |                 G F N 2 - x T B                 |
           -------------------------------------------------

        Reference                      10.1021/acs.jctc.8b01176
      * Hamiltonian:
        H0-scaling (s, p, d)           1.850000    2.230000    2.230000
        zeta-weighting                 0.500000
      * Dispersion:
        s8                             2.700000
        a1                             0.520000
        a2                             5.000000
        s9                             5.000000
      * Repulsion:
        kExp                           1.500000    1.000000
        rExp                           1.000000
      * Coulomb:
        alpha                          2.000000
        third order                    shell-resolved
        anisotropic                    true
        a3                             3.000000
        a5                             4.000000
        cn-shift                       1.200000
        cn-exp                         4.000000
        max-rad                        5.000000

q/qsh data taken from xtbrestart
CAMM data taken from xtbrestart

          ...................................................
          :                      SETUP                      :
          :.................................................:
          :  # basis functions                  90          :
          :  # atomic orbitals                  90          :
          :  # shells                           56          :
          :  # electrons                       100          :
          :  max. iterations                   250          :
          :  Hamiltonian                  GFN2-xTB          :
          :  restarted?                       true          :
          :  GBSA solvation                  false          :
          :  PC potential                    false          :
          :  electronic temp.          300.0000000     K    :
          :  accuracy                    1.0000000          :
          :  -> integral cutoff          0.2500000E+02      :
          :  -> integral neglect         0.1000000E-07      :
          :  -> SCF convergence          0.1000000E-05 Eh   :
          :  -> wf. convergence          0.1000000E-03 e    :
          :  Broyden damping             0.4000000          :
          :  net charge                          0          :
          :  unpaired electrons                  0          :
          ...................................................

 iter      E             dE          RMSdq      gap      omega  full diag
   1    -57.7321747 -0.577322E+02  0.443E+00    2.81       0.0  T
   2    -57.7431062 -0.109315E-01  0.261E+00    2.96       1.0  T
   3    -57.7449243 -0.181805E-02  0.370E-01    2.97       1.0  T
   4    -57.7462911 -0.136684E-02  0.218E-01    2.94       1.0  T
   5    -57.7468382 -0.547109E-03  0.125E-01    2.96       1.0  T
   6    -57.7470028 -0.164580E-03  0.302E-02    2.95       1.0  T
   7    -57.7470134 -0.105714E-04  0.130E-02    2.95       1.2  T
   8    -57.7470155 -0.210977E-05  0.564E-03    2.95       2.8  T
   9    -57.7470156 -0.152553E-06  0.200E-03    2.95       8.0  T
  10    -57.7470156 -0.143134E-07  0.623E-04    2.95      25.7  T
  11    -57.7470156 -0.144326E-08  0.252E-04    2.95      63.4  T

   *** convergence criteria satisfied after 11 iterations ***

         #    Occupation            Energy/Eh            Energy/eV
      -------------------------------------------------------------
         1        2.0000           -0.7342662             -19.9804
       ...           ...                  ...                  ...
        44        2.0000           -0.4404204             -11.9844
        45        2.0000           -0.4333894             -11.7931
        46        2.0000           -0.4190958             -11.4042
        47        2.0000           -0.4155874             -11.3087
        48        2.0000           -0.4086446             -11.1198
        49        2.0000           -0.3986701             -10.8484
        50        2.0000           -0.3931301             -10.6976 (HOMO)
        51                         -0.2847982              -7.7498 (LUMO)
        52                         -0.1699396              -4.6243
        53                         -0.0454169              -1.2359
        54                          0.0168909               0.4596
        55                          0.0420700               1.1448
       ...                                ...                  ...
        90                          0.6293759              17.1262
      -------------------------------------------------------------
                  HL-Gap            0.1083320 Eh            2.9479 eV
             Fermi-level           -0.3389642 Eh           -9.2237 eV

 SCC (total)                   0 d,  0 h,  0 min,  0.035 sec
 SCC setup                      ...        0 min,  0.000 sec (  1.123%)
 Dispersion                     ...        0 min,  0.001 sec (  2.385%)
 classical contributions        ...        0 min,  0.000 sec (  0.396%)
 integral evaluation            ...        0 min,  0.002 sec (  6.905%)
 iterations                     ...        0 min,  0.028 sec ( 79.670%)
 molecular gradient             ...        0 min,  0.003 sec (  8.850%)
 printout                       ...        0 min,  0.000 sec (  0.571%)

         :::::::::::::::::::::::::::::::::::::::::::::::::::::
         ::                     SUMMARY                     ::
         :::::::::::::::::::::::::::::::::::::::::::::::::::::
         :: total energy             -57.168222164543 Eh    ::
         :: gradient norm              0.153019163243 Eh/a0 ::
         :: HOMO-LUMO gap              2.947862973739 eV    ::
         ::.................................................::
         :: SCC energy               -57.747063512325 Eh    ::
         :: -> isotropic ES            0.099163291103 Eh    ::
         :: -> anisotropic ES          0.008164886278 Eh    ::
         :: -> anisotropic XC          0.007395233166 Eh    ::
         :: -> dispersion             -0.027634403088 Eh    ::
         :: repulsion energy           0.578841347782 Eh    ::
         :: add. restraining           0.000000000000 Eh    ::
         :: total charge              -0.000000000000 e     ::
         :::::::::::::::::::::::::::::::::::::::::::::::::::::

      ----------------------------------------------------------- 
     |                   =====================                   |
     |                        A N C O P T                        |
     |                   =====================                   |
     |               Approximate Normal Coordinate               |
     |                Rational Function Optimizer                |
      ----------------------------------------------------------- 
      ----------------------------------------------------------- 
     |                   =====================                   |
     |                        A N C O P T                        |
     |                   =====================                   |
     |               Approximate Normal Coordinate               |
     |                Rational Function Optimizer                |
      ----------------------------------------------------------- 

          ...................................................
          :                      SETUP                      :
          :.................................................:
          :   optimization level            normal          :
          :   max. optcycles                   200          :
          :   ANC micro-cycles                  20          :
          :   degrees of freedom               111          :
          :.................................................:
          :   RF solver                   davidson          :
          :   write xtbopt.log                true          :
          :   linear?                        false          :
          :   energy convergence         0.5000000E-05 Eh   :
          :   grad. convergence          0.1000000E-02 Eh/α :
          :   maxmium RF displ.          1.0000000          :
          :   Hlow (freq-cutoff)         0.1000000E-01      :
          :   Hmax (freq-cutoff)         5.0000000          :
          :   S6 in model hess.         20.0000000          :
          ...................................................

generating ANC from exact Hessian ...
Using Lindh-Hessian (1995)
 Shifting diagonal of input Hessian by   9.866503487373165E-003
 Lowest  eigenvalues of input Hessian
    0.000000    0.000000    0.000000    0.000000    0.000000    0.000000
    0.010000    0.010154    0.010315    0.010477    0.010679    0.011313
    0.012046    0.012747    0.013591    0.014774    0.016562    0.017678
 Highest eigenvalues
    1.615924    1.687823    1.705470    1.738707    1.967981    2.088854
 

........................................................................
.............................. CYCLE    1 ..............................
........................................................................

 iter      E             dE          RMSdq      gap      omega  full diag
   1    -57.7470156 -0.577470E+02  0.696E-05    2.95       0.0  T
   2    -57.7470156 -0.765255E-11  0.426E-05    2.95     376.1  T
   3    -57.7470156  0.102034E-10  0.246E-05    2.95     651.2  T
     SCC iter.                  ...        0 min,  0.005 sec
     gradient                   ...        0 min,  0.005 sec
 * total energy  :   -57.1682222 Eh     change       -0.2166516E-09 Eh
   gradient norm :     0.1530194 Eh/α   predicted     0.0000000E+00 (-100.00%)
   displ. norm   :     0.4120106 α      lambda       -0.3212039E-01
   maximum displ.:     0.1418286 α      in ANC's #19, #42, #25, ...

........................................................................
.............................. CYCLE    2 ..............................
........................................................................

 iter      E             dE          RMSdq      gap      omega  full diag
   1    -57.7819446 -0.577819E+02  0.265E-01    3.25       0.0  T
   2    -57.7822395 -0.294896E-03  0.163E-01    3.21       1.0  T
   3    -57.7821485  0.910787E-04  0.829E-02    3.19       1.0  T
   4    -57.7822636 -0.115126E-03  0.318E-02    3.18       1.0  T
   5    -57.7822944 -0.307915E-04  0.774E-03    3.18       2.1  T
   6    -57.7822952 -0.840351E-06  0.390E-03    3.18       4.1  T
   7    -57.7822953 -0.659356E-07  0.141E-03    3.18      11.4  T
   8    -57.7822953 -0.708210E-08  0.454E-04    3.18      35.3  T
   9    -57.7822953 -0.101136E-08  0.156E-04    3.18     102.4  T
     SCC iter.                  ...        0 min,  0.012 sec
     gradient                   ...        0 min,  0.005 sec
 * total energy  :   -57.1907130 Eh     change       -0.2249088E-01 Eh
   gradient norm :     0.0598078 Eh/α   predicted    -0.1881337E-01 ( -16.35%)
   displ. norm   :     0.4403251 α      lambda       -0.1080267E-01
   maximum displ.:     0.2100688 α      in ANC's #19, #9, #7, ...

........................................................................
.............................. CYCLE    3 ..............................
........................................................................

 iter      E             dE          RMSdq      gap      omega  full diag
   1    -57.7980513 -0.577981E+02  0.173E-01    3.39       0.0  T
   2    -57.7981786 -0.127260E-03  0.107E-01    3.37       1.0  T
   3    -57.7981278  0.507913E-04  0.599E-02    3.34       1.0  T
   4    -57.7981923 -0.645597E-04  0.215E-02    3.34       1.0  T
   5    -57.7982053 -0.130014E-04  0.462E-03    3.34       3.5  T
   6    -57.7982056 -0.293044E-06  0.197E-03    3.34       8.1  T
   7    -57.7982057 -0.213315E-07  0.783E-04    3.34      20.5  T
   8    -57.7982057 -0.180597E-08  0.280E-04    3.34      57.2  T
     SCC iter.                  ...        0 min,  0.011 sec
     gradient                   ...        0 min,  0.005 sec
 * total energy  :   -57.1976346 Eh     change       -0.6921558E-02 Eh
   gradient norm :     0.0146596 Eh/α   predicted    -0.6448582E-02 (  -6.83%)
   displ. norm   :     0.4308037 α      lambda       -0.3440901E-02
   maximum displ.:     0.2476992 α      in ANC's #9, #19, #7, ...

........................................................................
.............................. CYCLE    4 ..............................
........................................................................

 iter      E             dE          RMSdq      gap      omega  full diag
   1    -57.7987507 -0.577988E+02  0.105E-01    3.39       0.0  T
   2    -57.7987664 -0.157412E-04  0.638E-02    3.39       1.0  T
   3    -57.7987564  0.100028E-04  0.217E-02    3.37       1.0  T
   4    -57.7987664 -0.995820E-05  0.887E-03    3.38       1.8  T
   5    -57.7987688 -0.239754E-05  0.190E-03    3.38       8.4  T
   6    -57.7987688 -0.255689E-07  0.723E-04    3.38      22.1  T
   7    -57.7987688 -0.119993E-08  0.245E-04    3.38      65.3  T
     SCC iter.                  ...        0 min,  0.012 sec
     gradient                   ...        0 min,  0.005 sec
 * total energy  :   -57.2002527 Eh     change       -0.2618048E-02 Eh
   gradient norm :     0.0134783 Eh/α   predicted    -0.2039879E-02 ( -22.08%)
   displ. norm   :     0.5355511 α      lambda       -0.2785849E-02
   maximum displ.:     0.3459998 α      in ANC's #9, #19, #7, ...

........................................................................
.............................. CYCLE    5 ..............................
........................................................................

 iter      E             dE          RMSdq      gap      omega  full diag
   1    -57.7978373 -0.577978E+02  0.117E-01    3.41       0.0  T
   2    -57.7978487 -0.113348E-04  0.716E-02    3.41       1.0  T
   3    -57.7978405  0.815032E-05  0.192E-02    3.40       1.0  T
   4    -57.7978495 -0.896290E-05  0.783E-03    3.40       2.0  T
   5    -57.7978511 -0.161725E-05  0.228E-03    3.40       7.0  T
   6    -57.7978511 -0.277111E-07  0.760E-04    3.40      21.1  T
   7    -57.7978511 -0.224136E-08  0.278E-04    3.40      57.6  T
     SCC iter.                  ...        0 min,  0.013 sec
     gradient                   ...        0 min,  0.004 sec
 * total energy  :   -57.2023051 Eh     change       -0.2052417E-02 Eh
   gradient norm :     0.0126364 Eh/α   predicted    -0.1792443E-02 ( -12.67%)
   displ. norm   :     0.5010595 α      lambda       -0.1866149E-02
   maximum displ.:     0.3483588 α      in ANC's #9, #19, #7, ...

........................................................................
.............................. CYCLE    6 ..............................
........................................................................

 iter      E             dE          RMSdq      gap      omega  full diag
   1    -57.7986862 -0.577987E+02  0.108E-01    3.43       0.0  T
   2    -57.7986909 -0.472269E-05  0.662E-02    3.42       1.0  T
   3    -57.7986864  0.451127E-05  0.146E-02    3.42       1.1  T
   4    -57.7986923 -0.589241E-05  0.497E-03    3.42       3.2  T
   5    -57.7986928 -0.438234E-06  0.187E-03    3.42       8.6  T
   6    -57.7986928 -0.250287E-07  0.524E-04    3.42      30.5  T
   7    -57.7986928 -0.945469E-09  0.210E-04    3.42      76.1  T
     SCC iter.                  ...        0 min,  0.014 sec
     gradient                   ...        0 min,  0.004 sec
 * total energy  :   -57.2036129 Eh     change       -0.1307878E-02 Eh
   gradient norm :     0.0128077 Eh/α   predicted    -0.1167345E-02 ( -10.75%)
   displ. norm   :     0.4394248 α      lambda       -0.1300380E-02
   maximum displ.:     0.3047767 α      in ANC's #9, #18, #19, ...

........................................................................
.............................. CYCLE    7 ..............................
........................................................................

 iter      E             dE          RMSdq      gap      omega  full diag
   1    -57.8008544 -0.578009E+02  0.106E-01    3.43       0.0  T
   2    -57.8008577 -0.333965E-05  0.649E-02    3.43       1.0  T
   3    -57.8008538  0.391309E-05  0.131E-02    3.43       1.2  T
   4    -57.8008590 -0.521878E-05  0.414E-03    3.43       3.9  T
   5    -57.8008592 -0.216564E-06  0.162E-03    3.43       9.9  T
   6    -57.8008593 -0.103993E-07  0.459E-04    3.43      34.9  T
   7    -57.8008593 -0.866905E-09  0.196E-04    3.43      81.8  T
     SCC iter.                  ...        0 min,  0.012 sec
     gradient                   ...        0 min,  0.004 sec
 * total energy  :   -57.2045314 Eh     change       -0.9184954E-03 Eh
   gradient norm :     0.0116001 Eh/α   predicted    -0.7757605E-03 ( -15.54%)
   displ. norm   :     0.3837451 α      lambda       -0.8766592E-03
   maximum displ.:     0.2505282 α      in ANC's #9, #18, #7, ...

........................................................................
.............................. CYCLE    8 ..............................
........................................................................

 iter      E             dE          RMSdq      gap      omega  full diag
   1    -57.8044836 -0.578045E+02  0.960E-02    3.45       0.0  T
   2    -57.8044888 -0.520560E-05  0.586E-02    3.45       1.0  T
   3    -57.8044831  0.566781E-05  0.152E-02    3.46       1.1  T
   4    -57.8044894 -0.632180E-05  0.529E-03    3.46       3.0  T
   5    -57.8044902 -0.750933E-06  0.160E-03    3.46      10.0  T
   6    -57.8044902 -0.600537E-08  0.467E-04    3.46      34.3  T
   7    -57.8044902 -0.784816E-09  0.169E-04    3.46      94.8  T
     SCC iter.                  ...        0 min,  0.013 sec
     gradient                   ...        0 min,  0.003 sec
 * total energy  :   -57.2051664 Eh     change       -0.6349782E-03 Eh
   gradient norm :     0.0078226 Eh/α   predicted    -0.5028918E-03 ( -20.80%)
   displ. norm   :     0.3637344 α      lambda       -0.5389942E-03
   maximum displ.:     0.2037515 α      in ANC's #9, #18, #6, ...

........................................................................
.............................. CYCLE    9 ..............................
........................................................................

 iter      E             dE          RMSdq      gap      omega  full diag
   1    -57.8049808 -0.578050E+02  0.976E-02    3.47       0.0  T
   2    -57.8049836 -0.284497E-05  0.591E-02    3.48       1.0  T
   3    -57.8049795  0.413942E-05  0.130E-02    3.48       1.2  T
   4    -57.8049845 -0.503118E-05  0.391E-03    3.48       4.1  T
   5    -57.8049848 -0.288290E-06  0.161E-03    3.48      10.0  T
   6    -57.8049848 -0.802272E-08  0.463E-04    3.48      34.6  T
   7    -57.8049848 -0.105013E-08  0.170E-04    3.48      94.3  T
     SCC iter.                  ...        0 min,  0.012 sec
     gradient                   ...        0 min,  0.003 sec
 * total energy  :   -57.2055511 Eh     change       -0.3847036E-03 Eh
   gradient norm :     0.0062124 Eh/α   predicted    -0.3051538E-03 ( -20.68%)
   displ. norm   :     0.2816641 α      lambda       -0.3377551E-03
   maximum displ.:     0.1179874 α      in ANC's #6, #9, #18, ...

........................................................................
.............................. CYCLE   10 ..............................
........................................................................

 iter      E             dE          RMSdq      gap      omega  full diag
   1    -57.8078524 -0.578079E+02  0.729E-02    3.50       0.0  T
   2    -57.8078553 -0.290731E-05  0.440E-02    3.50       1.0  T
   3    -57.8078536  0.175940E-05  0.922E-03    3.50       1.7  T
   4    -57.8078555 -0.196915E-05  0.397E-03    3.50       4.0  T
   5    -57.8078560 -0.435501E-06  0.132E-03    3.50      12.2  T
   6    -57.8078560 -0.440683E-08  0.368E-04    3.50      43.5  T
   7    -57.8078560 -0.603627E-09  0.119E-04    3.50     134.2  T
     SCC iter.                  ...        0 min,  0.012 sec
     gradient                   ...        0 min,  0.003 sec
 * total energy  :   -57.2057756 Eh     change       -0.2245245E-03 Eh
   gradient norm :     0.0044082 Eh/α   predicted    -0.1823095E-03 ( -18.80%)
   displ. norm   :     0.3178393 α      lambda       -0.2509200E-03
   maximum displ.:     0.1385916 α      in ANC's #6, #9, #14, ...

........................................................................
.............................. CYCLE   11 ..............................
........................................................................

 iter      E             dE          RMSdq      gap      omega  full diag
   1    -57.8051897 -0.578052E+02  0.821E-02    3.52       0.0  T
   2    -57.8051926 -0.288881E-05  0.491E-02    3.52       1.0  T
   3    -57.8051917  0.940167E-06  0.822E-03    3.52       1.9  T
   4    -57.8051930 -0.134105E-05  0.396E-03    3.52       4.0  T
   5    -57.8051934 -0.371881E-06  0.158E-03    3.52      10.1  T
   6    -57.8051934 -0.887058E-08  0.363E-04    3.52      44.1  T
   7    -57.8051934 -0.638053E-09  0.139E-04    3.52     114.9  T
     SCC iter.                  ...        0 min,  0.012 sec
     gradient                   ...        0 min,  0.003 sec
 * total energy  :   -57.2058838 Eh     change       -0.1081147E-03 Eh
   gradient norm :     0.0083525 Eh/α   predicted    -0.1381389E-03 (  27.77%)
   displ. norm   :     0.1516947 α      lambda       -0.2388480E-03
   maximum displ.:     0.0937233 α      in ANC's #6, #14, #11, ...

........................................................................
.............................. CYCLE   12 ..............................
........................................................................

 iter      E             dE          RMSdq      gap      omega  full diag
   1    -57.8085699 -0.578086E+02  0.391E-02    3.52       0.0  T
   2    -57.8085716 -0.173779E-05  0.228E-02    3.52       1.0  T
   3    -57.8085716  0.854317E-07  0.441E-03    3.53       3.6  T
   4    -57.8085717 -0.157802E-06  0.201E-03    3.53       8.0  T
   5    -57.8085718 -0.110054E-06  0.861E-04    3.53      18.6  T
   6    -57.8085718 -0.516811E-08  0.369E-04    3.53      43.4  T
     SCC iter.                  ...        0 min,  0.010 sec
     gradient                   ...        0 min,  0.003 sec
 * total energy  :   -57.2060383 Eh     change       -0.1545557E-03 Eh
   gradient norm :     0.0054484 Eh/α   predicted    -0.1221763E-03 ( -20.95%)
   displ. norm   :     0.1871705 α      lambda       -0.1741305E-03
   maximum displ.:     0.1165909 α      in ANC's #6, #14, #3, ...

........................................................................
.............................. CYCLE   13 ..............................
........................................................................

 iter      E             dE          RMSdq      gap      omega  full diag
   1    -57.8095848 -0.578096E+02  0.406E-02    3.54       0.0  T
   2    -57.8095854 -0.582356E-06  0.243E-02    3.53       1.0  T
   3    -57.8095854 -0.150566E-07  0.262E-03    3.53       6.1  T
   4    -57.8095855 -0.127630E-06  0.106E-03    3.53      15.1  T
   5    -57.8095855 -0.189320E-08  0.601E-04    3.53      26.6  T
   6    -57.8095855 -0.248311E-08  0.305E-04    3.53      52.6  T
     SCC iter.                  ...        0 min,  0.010 sec
     gradient                   ...        0 min,  0.003 sec
 * total energy  :   -57.2061721 Eh     change       -0.1337891E-03 Eh
   gradient norm :     0.0049704 Eh/α   predicted    -0.9012203E-04 ( -32.64%)
   displ. norm   :     0.3336170 α      lambda       -0.2614532E-03
   maximum displ.:     0.1997484 α      in ANC's #6, #14, #3, ...

........................................................................
.............................. CYCLE   14 ..............................
........................................................................

 iter      E             dE          RMSdq      gap      omega  full diag
   1    -57.8084689 -0.578085E+02  0.747E-02    3.52       0.0  T
   2    -57.8084708 -0.194733E-05  0.443E-02    3.52       1.0  T
   3    -57.8084711 -0.218991E-06  0.376E-03    3.52       4.3  T
   4    -57.8084712 -0.111087E-06  0.219E-03    3.52       7.3  T
   5    -57.8084712 -0.591254E-07  0.131E-03    3.52      12.2  T
   6    -57.8084712 -0.203978E-07  0.369E-04    3.52      43.4  T
   7    -57.8084712 -0.107646E-08  0.123E-04    3.52     129.8  T
     SCC iter.                  ...        0 min,  0.011 sec
     gradient                   ...        0 min,  0.003 sec
 * total energy  :   -57.2063534 Eh     change       -0.1812997E-03 Eh
   gradient norm :     0.0051689 Eh/α   predicted    -0.1452790E-03 ( -19.87%)
   displ. norm   :     0.2788870 α      lambda       -0.1959333E-03
   maximum displ.:     0.1677513 α      in ANC's #6, #3, #14, ...

........................................................................
.............................. CYCLE   15 ..............................
........................................................................

 iter      E             dE          RMSdq      gap      omega  full diag
   1    -57.8076532 -0.578077E+02  0.635E-02    3.53       0.0  T
   2    -57.8076542 -0.968530E-06  0.379E-02    3.53       1.0  T
   3    -57.8076543 -0.897338E-07  0.350E-03    3.53       4.6  T
   4    -57.8076545 -0.226640E-06  0.166E-03    3.53       9.6  T
   5    -57.8076545  0.450368E-08  0.983E-04    3.53      16.3  T
   6    -57.8076545 -0.192432E-07  0.392E-04    3.53      40.9  T
     SCC iter.                  ...        0 min,  0.010 sec
     gradient                   ...        0 min,  0.003 sec
 * total energy  :   -57.2064728 Eh     change       -0.1193430E-03 Eh
   gradient norm :     0.0052160 Eh/α   predicted    -0.1055889E-03 ( -11.52%)
   displ. norm   :     0.2498968 α      lambda       -0.1268666E-03
   maximum displ.:     0.1428291 α      in ANC's #6, #14, #3, ...

........................................................................
.............................. CYCLE   16 ..............................
........................................................................

 iter      E             dE          RMSdq      gap      omega  full diag
   1    -57.8060697 -0.578061E+02  0.556E-02    3.53       0.0  T
   2    -57.8060709 -0.123833E-05  0.328E-02    3.53       1.0  T
   3    -57.8060710 -0.712140E-07  0.304E-03    3.53       5.3  T
   4    -57.8060711 -0.783089E-07  0.176E-03    3.53       9.1  T
   5    -57.8060711 -0.579773E-07  0.919E-04    3.53      17.4  T
   6    -57.8060711 -0.622901E-08  0.303E-04    3.53      52.9  T
     SCC iter.                  ...        0 min,  0.009 sec
     gradient                   ...        0 min,  0.003 sec
 * total energy  :   -57.2065456 Eh     change       -0.7289491E-04 Eh
   gradient norm :     0.0051739 Eh/α   predicted    -0.6739743E-04 (  -7.54%)
   displ. norm   :     0.1708412 α      lambda       -0.1510951E-03
   maximum displ.:     0.0811215 α      in ANC's #3, #6, #4, ...

........................................................................
.............................. CYCLE   17 ..............................
........................................................................

 iter      E             dE          RMSdq      gap      omega  full diag
   1    -57.8097269 -0.578097E+02  0.481E-02    3.52       0.0  T
   2    -57.8097286 -0.177849E-05  0.284E-02    3.52       1.0  T
   3    -57.8097287 -0.108577E-06  0.372E-03    3.53       4.3  T
   4    -57.8097288 -0.800921E-07  0.166E-03    3.53       9.6  T
   5    -57.8097288 -0.289384E-07  0.938E-04    3.52      17.1  T
   6    -57.8097289 -0.117240E-07  0.260E-04    3.52      61.6  T
     SCC iter.                  ...        0 min,  0.010 sec
     gradient                   ...        0 min,  0.003 sec
 * total energy  :   -57.2065855 Eh     change       -0.3981990E-04 Eh
   gradient norm :     0.0051133 Eh/α   predicted    -0.7775286E-04 (  95.26%)
   displ. norm   :     0.1630480 α      lambda       -0.1223774E-03
   maximum displ.:     0.0796199 α      in ANC's #6, #3, #9, ...

........................................................................
.............................. CYCLE   18 ..............................
........................................................................

 iter      E             dE          RMSdq      gap      omega  full diag
   1    -57.8072702 -0.578073E+02  0.470E-02    3.53       0.0  T
   2    -57.8072713 -0.109246E-05  0.280E-02    3.53       1.0  T
   3    -57.8072709  0.372514E-06  0.508E-03    3.53       3.2  T
   4    -57.8072714 -0.542489E-06  0.188E-03    3.53       8.5  T
   5    -57.8072715 -0.706614E-07  0.972E-04    3.53      16.5  T
   6    -57.8072715 -0.842202E-08  0.388E-04    3.53      41.3  T
     SCC iter.                  ...        0 min,  0.010 sec
     gradient                   ...        0 min,  0.003 sec
 * total energy  :   -57.2066412 Eh     change       -0.5576922E-04 Eh
   gradient norm :     0.0052663 Eh/α   predicted    -0.6281571E-04 (  12.64%)
   displ. norm   :     0.0517319 α      lambda       -0.6425518E-04
   maximum displ.:     0.0202229 α      in ANC's #9, #21, #10, ...

........................................................................
.............................. CYCLE   19 ..............................
........................................................................

 iter      E             dE          RMSdq      gap      omega  full diag
   1    -57.8083210 -0.578083E+02  0.210E-02    3.54       0.0  T
   2    -57.8083227 -0.170012E-05  0.125E-02    3.54       1.3  T
   3    -57.8083226  0.138708E-06  0.468E-03    3.54       3.4  T
   4    -57.8083228 -0.185549E-06  0.177E-03    3.54       9.0  T
   5    -57.8083229 -0.101549E-06  0.645E-04    3.54      24.8  T
   6    -57.8083229 -0.793828E-08  0.281E-04    3.54      56.9  T
     SCC iter.                  ...        0 min,  0.011 sec
     gradient                   ...        0 min,  0.003 sec
 * total energy  :   -57.2066715 Eh     change       -0.3021718E-04 Eh
   gradient norm :     0.0043086 Eh/α   predicted    -0.3221993E-04 (   6.63%)
   displ. norm   :     0.1074810 α      lambda       -0.4854143E-04
   maximum displ.:     0.0523539 α      in ANC's #4, #6, #3, ...

........................................................................
.............................. CYCLE   20 ..............................
........................................................................

 iter      E             dE          RMSdq      gap      omega  full diag
   1    -57.8082656 -0.578083E+02  0.274E-02    3.53       0.0  T
   2    -57.8082658 -0.217139E-06  0.163E-02    3.53       1.0  T
   3    -57.8082653  0.569246E-06  0.424E-03    3.53       3.8  T
   4    -57.8082659 -0.649522E-06  0.100E-03    3.53      16.0  T
   5    -57.8082659 -0.214082E-07  0.426E-04    3.53      37.6  T
     SCC iter.                  ...        0 min,  0.008 sec
     gradient                   ...        0 min,  0.007 sec
 * total energy  :   -57.2067096 Eh     change       -0.3816675E-04 Eh
   gradient norm :     0.0027318 Eh/α   predicted    -0.2455907E-04 ( -35.65%)
   displ. norm   :     0.2961472 α      lambda       -0.8879264E-04
   maximum displ.:     0.1514006 α      in ANC's #4, #3, #6, ...
 * RMSD in coord.:     0.6863191 α      energy gain  -0.3848746E-01 Eh

generating ANC from exact Hessian ...
Using Lindh-Hessian (1995)
 Shifting diagonal of input Hessian by   9.867601448188486E-003
 Lowest  eigenvalues of input Hessian
    0.000000    0.000000    0.000000    0.000000    0.000000    0.010000
    0.000000    0.010174    0.010329    0.010559    0.010708    0.011169
    0.011679    0.012802    0.013818    0.015411    0.016896    0.017698
 Highest eigenvalues
    1.580658    1.598024    1.610301    1.775597    1.985142    2.374282
 

........................................................................
.............................. CYCLE   21 ..............................
........................................................................

 iter      E             dE          RMSdq      gap      omega  full diag
   1    -57.8082766 -0.578083E+02  0.748E-02    3.51       0.0  T
   2    -57.8082773 -0.706536E-06  0.444E-02    3.51       1.0  T
   3    -57.8082755  0.188780E-05  0.792E-03    3.51       2.0  T
   4    -57.8082777 -0.224978E-05  0.179E-03    3.51       8.9  T
   5    -57.8082777 -0.358809E-07  0.939E-04    3.51      17.0  T
   6    -57.8082777 -0.329793E-08  0.268E-04    3.51      59.7  T
     SCC iter.                  ...        0 min,  0.022 sec
     gradient                   ...        0 min,  0.008 sec
 * total energy  :   -57.2067701 Eh     change       -0.6051259E-04 Eh
   gradient norm :     0.0029831 Eh/α   predicted     0.0000000E+00 (-100.00%)
   displ. norm   :     0.0341926 α      lambda       -0.3082569E-04
   maximum displ.:     0.0194608 α      in ANC's #4, #6, #18, ...

........................................................................
.............................. CYCLE   22 ..............................
........................................................................

 iter      E             dE          RMSdq      gap      omega  full diag
   1    -57.8086001 -0.578086E+02  0.990E-03    3.51       0.0  T
   2    -57.8086002 -0.888017E-07  0.591E-03    3.51       2.7  T
   3    -57.8086001  0.143724E-06  0.230E-03    3.51       7.0  T
   4    -57.8086002 -0.163449E-06  0.617E-04    3.51      26.0  T
   5    -57.8086002 -0.104731E-07  0.189E-04    3.51      84.7  T
     SCC iter.                  ...        0 min,  0.013 sec
     gradient                   ...        0 min,  0.005 sec
 * total energy  :   -57.2067944 Eh     change       -0.2424387E-04 Eh
   gradient norm :     0.0012997 Eh/α   predicted    -0.1543743E-04 ( -36.32%)
   displ. norm   :     0.1340119 α      lambda       -0.4390283E-04
   maximum displ.:     0.0788009 α      in ANC's #4, #6, #11, ...

........................................................................
.............................. CYCLE   23 ..............................
........................................................................

 iter      E             dE          RMSdq      gap      omega  full diag
   1    -57.8090188 -0.578090E+02  0.332E-02    3.52       0.0  T
   2    -57.8090193 -0.457246E-06  0.197E-02    3.52       1.0  T
   3    -57.8090192  0.928673E-07  0.267E-03    3.52       6.0  T
   4    -57.8090194 -0.178174E-06  0.921E-04    3.52      17.4  T
   5    -57.8090194 -0.755100E-08  0.590E-04    3.52      27.1  T
     SCC iter.                  ...        0 min,  0.009 sec
     gradient                   ...        0 min,  0.005 sec
 * total energy  :   -57.2068266 Eh     change       -0.3224199E-04 Eh
   gradient norm :     0.0030436 Eh/α   predicted    -0.2212714E-04 ( -31.37%)
   displ. norm   :     0.0545386 α      lambda       -0.2242417E-04
   maximum displ.:     0.0340845 α      in ANC's #4, #6, #2, ...

........................................................................
.............................. CYCLE   24 ..............................
........................................................................

 iter      E             dE          RMSdq      gap      omega  full diag
   1    -57.8089240 -0.578089E+02  0.178E-02    3.51       0.0  T
   2    -57.8089240 -0.356111E-07  0.106E-02    3.51       1.5  T
   3    -57.8089239  0.152664E-06  0.220E-03    3.52       7.3  T
   4    -57.8089241 -0.175090E-06  0.388E-04    3.52      41.3  T
   5    -57.8089241 -0.129767E-08  0.174E-04    3.52      92.1  T
     SCC iter.                  ...        0 min,  0.009 sec
     gradient                   ...        0 min,  0.005 sec
 * total energy  :   -57.2068448 Eh     change       -0.1813198E-04 Eh
   gradient norm :     0.0026253 Eh/α   predicted    -0.1124646E-04 ( -37.97%)
   displ. norm   :     0.1288332 α      lambda       -0.4872163E-04
   maximum displ.:     0.0787155 α      in ANC's #4, #6, #2, ...

........................................................................
.............................. CYCLE   25 ..............................
........................................................................

 iter      E             dE          RMSdq      gap      omega  full diag
   1    -57.8085770 -0.578086E+02  0.409E-02    3.51       0.0  T
   2    -57.8085772 -0.215749E-06  0.242E-02    3.51       1.0  T
   3    -57.8085759  0.122519E-05  0.605E-03    3.51       2.6  T
   4    -57.8085773 -0.136815E-05  0.870E-04    3.51      18.4  T
   5    -57.8085773 -0.938720E-08  0.408E-04    3.51      39.2  T
   6    -57.8085773 -0.480867E-09  0.137E-04    3.51     116.6  T
     SCC iter.                  ...        0 min,  0.010 sec
     gradient                   ...        0 min,  0.005 sec
 * total energy  :   -57.2068825 Eh     change       -0.3774663E-04 Eh
   gradient norm :     0.0014397 Eh/α   predicted    -0.2476855E-04 ( -34.38%)
   displ. norm   :     0.2588148 α      lambda       -0.4145272E-04
   maximum displ.:     0.1584656 α      in ANC's #4, #6, #2, ...

........................................................................
.............................. CYCLE   26 ..............................
........................................................................

 iter      E             dE          RMSdq      gap      omega  full diag
   1    -57.8078194 -0.578078E+02  0.799E-02    3.50       0.0  T
   2    -57.8078199 -0.497187E-06  0.473E-02    3.49       1.0  T
   3    -57.8078171  0.282576E-05  0.930E-03    3.50       1.7  T
   4    -57.8078203 -0.320841E-05  0.142E-03    3.49      11.3  T
   5    -57.8078203 -0.151390E-07  0.668E-04    3.50      24.0  T
   6    -57.8078203 -0.170436E-08  0.185E-04    3.49      86.6  T
     SCC iter.                  ...        0 min,  0.030 sec
     gradient                   ...        0 min,  0.004 sec
 * total energy  :   -57.2069240 Eh     change       -0.4150596E-04 Eh
   gradient norm :     0.0023732 Eh/α   predicted    -0.2134366E-04 ( -48.58%)
   displ. norm   :     0.1130565 α      lambda       -0.2476288E-04
   maximum displ.:     0.0703781 α      in ANC's #4, #6, #2, ...

........................................................................
.............................. CYCLE   27 ..............................
........................................................................

 iter      E             dE          RMSdq      gap      omega  full diag
   1    -57.8081082 -0.578081E+02  0.329E-02    3.49       0.0  T
   2    -57.8081083 -0.771243E-07  0.194E-02    3.49       1.0  T
   3    -57.8081083 -0.151911E-07  0.911E-04    3.49      17.6  T
   4    -57.8081083 -0.914672E-08  0.581E-04    3.49      27.6  T
     SCC iter.                  ...        0 min,  0.007 sec
     gradient                   ...        0 min,  0.003 sec
 * total energy  :   -57.2069464 Eh     change       -0.2235635E-04 Eh
   gradient norm :     0.0019035 Eh/α   predicted    -0.1254001E-04 ( -43.91%)
   displ. norm   :     0.3254253 α      lambda       -0.5040079E-04
   maximum displ.:     0.2019588 α      in ANC's #4, #6, #2, ...

........................................................................
.............................. CYCLE   28 ..............................
........................................................................

 iter      E             dE          RMSdq      gap      omega  full diag
   1    -57.8086147 -0.578086E+02  0.944E-02    3.49       0.0  T
   2    -57.8086153 -0.653640E-06  0.557E-02    3.49       1.0  T
   3    -57.8086154 -0.536742E-07  0.302E-03    3.49       5.3  T
   4    -57.8086155 -0.151521E-06  0.179E-03    3.49       9.0  T
   5    -57.8086156 -0.528242E-07  0.759E-04    3.49      21.1  T
   6    -57.8086156 -0.431883E-08  0.215E-04    3.49      74.3  T
     SCC iter.                  ...        0 min,  0.010 sec
     gradient                   ...        0 min,  0.003 sec
 * total energy  :   -57.2070022 Eh     change       -0.5580549E-04 Eh
   gradient norm :     0.0012700 Eh/α   predicted    -0.2638713E-04 ( -52.72%)
   displ. norm   :     0.2927487 α      lambda       -0.3285517E-04
   maximum displ.:     0.1848991 α      in ANC's #4, #6, #2, ...

........................................................................
.............................. CYCLE   29 ..............................
........................................................................

 iter      E             dE          RMSdq      gap      omega  full diag
   1    -57.8083108 -0.578083E+02  0.864E-02    3.48       0.0  T
   2    -57.8083113 -0.508501E-06  0.510E-02    3.48       1.0  T
   3    -57.8083107  0.654543E-06  0.526E-03    3.48       3.0  T
   4    -57.8083116 -0.925994E-06  0.156E-03    3.48      10.3  T
   5    -57.8083116 -0.166463E-07  0.586E-04    3.48      27.3  T
   6    -57.8083116 -0.127974E-08  0.183E-04    3.48      87.6  T
     SCC iter.                  ...        0 min,  0.010 sec
     gradient                   ...        0 min,  0.003 sec
 * total energy  :   -57.2070427 Eh     change       -0.4049939E-04 Eh
   gradient norm :     0.0016631 Eh/α   predicted    -0.1705608E-04 ( -57.89%)
   displ. norm   :     0.3229381 α      lambda       -0.4234380E-04
   maximum displ.:     0.2034521 α      in ANC's #4, #2, #6, ...

........................................................................
.............................. CYCLE   30 ..............................
........................................................................

 iter      E             dE          RMSdq      gap      omega  full diag
   1    -57.8086562 -0.578087E+02  0.973E-02    3.47       0.0  T
   2    -57.8086569 -0.731621E-06  0.574E-02    3.47       1.0  T
   3    -57.8086571 -0.166554E-06  0.307E-03    3.47       5.2  T
   4    -57.8086572 -0.115107E-06  0.194E-03    3.47       8.3  T
   5    -57.8086573 -0.513126E-07  0.860E-04    3.47      18.6  T
   6    -57.8086573 -0.821120E-08  0.224E-04    3.47      71.6  T
     SCC iter.                  ...        0 min,  0.010 sec
     gradient                   ...        0 min,  0.003 sec
 * total energy  :   -57.2070942 Eh     change       -0.5157211E-04 Eh
   gradient norm :     0.0020242 Eh/α   predicted    -0.2215501E-04 ( -57.04%)
   displ. norm   :     0.3321491 α      lambda       -0.5861969E-04
   maximum displ.:     0.2084109 α      in ANC's #4, #2, #6, ...

........................................................................
.............................. CYCLE   31 ..............................
........................................................................

 iter      E             dE          RMSdq      gap      omega  full diag
   1    -57.8074868 -0.578075E+02  0.100E-01    3.46       0.0  T
   2    -57.8074876 -0.784493E-06  0.593E-02    3.45       1.0  T
   3    -57.8074860  0.161088E-05  0.775E-03    3.45       2.1  T
   4    -57.8074881 -0.210190E-05  0.199E-03    3.45       8.0  T
   5    -57.8074881 -0.210858E-07  0.727E-04    3.45      22.0  T
   6    -57.8074881 -0.163262E-08  0.225E-04    3.45      71.2  T
     SCC iter.                  ...        0 min,  0.010 sec
     gradient                   ...        0 min,  0.003 sec
 * total energy  :   -57.2071407 Eh     change       -0.4648730E-04 Eh
   gradient norm :     0.0024096 Eh/α   predicted    -0.3254692E-04 ( -29.99%)
   displ. norm   :     0.4158790 α      lambda       -0.8200315E-04
   maximum displ.:     0.2576288 α      in ANC's #4, #2, #5, ...

........................................................................
.............................. CYCLE   32 ..............................
........................................................................

 iter      E             dE          RMSdq      gap      omega  full diag
   1    -57.8070229 -0.578070E+02  0.127E-01    3.44       0.0  T
   2    -57.8070242 -0.132546E-05  0.752E-02    3.44       1.0  T
   3    -57.8070237  0.486421E-06  0.645E-03    3.44       2.5  T
   4    -57.8070249 -0.117373E-05  0.273E-03    3.44       5.9  T
   5    -57.8070250 -0.599519E-07  0.942E-04    3.44      17.0  T
   6    -57.8070250 -0.510808E-08  0.312E-04    3.44      51.4  T
     SCC iter.                  ...        0 min,  0.010 sec
     gradient                   ...        0 min,  0.003 sec
 * total energy  :   -57.2071965 Eh     change       -0.5581796E-04 Eh
   gradient norm :     0.0036861 Eh/α   predicted    -0.4809523E-04 ( -13.84%)
   displ. norm   :     0.1797010 α      lambda       -0.6216364E-04
   maximum displ.:     0.0985952 α      in ANC's #4, #5, #2, ...

........................................................................
.............................. CYCLE   33 ..............................
........................................................................

 iter      E             dE          RMSdq      gap      omega  full diag
   1    -57.8091455 -0.578091E+02  0.564E-02    3.44       0.0  T
   2    -57.8091461 -0.506553E-06  0.334E-02    3.44       1.0  T
   3    -57.8091420  0.403526E-05  0.110E-02    3.44       1.5  T
   4    -57.8091466 -0.455285E-05  0.150E-03    3.44      10.7  T
   5    -57.8091466 -0.183225E-07  0.815E-04    3.44      19.6  T
   6    -57.8091466 -0.210564E-08  0.247E-04    3.44      64.7  T
     SCC iter.                  ...        0 min,  0.010 sec
     gradient                   ...        0 min,  0.003 sec
 * total energy  :   -57.2072340 Eh     change       -0.3742176E-04 Eh
   gradient norm :     0.0025466 Eh/α   predicted    -0.3208964E-04 ( -14.25%)
   displ. norm   :     0.3938765 α      lambda       -0.5497094E-04
   maximum displ.:     0.2469755 α      in ANC's #4, #5, #2, ...

........................................................................
.............................. CYCLE   34 ..............................
........................................................................

 iter      E             dE          RMSdq      gap      omega  full diag
   1    -57.8066244 -0.578066E+02  0.128E-01    3.43       0.0  T
   2    -57.8066261 -0.163997E-05  0.759E-02    3.42       1.0  T
   3    -57.8066185  0.762409E-05  0.156E-02    3.43       1.0  T
   4    -57.8066273 -0.887408E-05  0.276E-03    3.43       5.8  T
   5    -57.8066274 -0.495541E-07  0.133E-03    3.43      12.1  T
   6    -57.8066274 -0.528666E-08  0.310E-04    3.43      51.6  T
   7    -57.8066274 -0.394017E-09  0.136E-04    3.43     118.1  T
     SCC iter.                  ...        0 min,  0.012 sec
     gradient                   ...        0 min,  0.003 sec
 * total energy  :   -57.2072561 Eh     change       -0.2210093E-04 Eh
   gradient norm :     0.0049166 Eh/α   predicted    -0.3175499E-04 (  43.68%)
   displ. norm   :     0.0420235 α      lambda       -0.4860001E-04
   maximum displ.:     0.0196677 α      in ANC's #16, #10, #6, ...

........................................................................
.............................. CYCLE   35 ..............................
........................................................................

 iter      E             dE          RMSdq      gap      omega  full diag
   1    -57.8084682 -0.578085E+02  0.138E-02    3.44       0.0  T
   2    -57.8084686 -0.356568E-06  0.847E-03    3.43       1.9  T
   3    -57.8084680  0.599448E-06  0.565E-03    3.43       2.8  T
   4    -57.8084688 -0.830741E-06  0.101E-03    3.43      15.8  T
   5    -57.8084688 -0.268212E-07  0.291E-04    3.43      55.0  T
   6    -57.8084688 -0.417359E-09  0.159E-04    3.43     100.9  T
     SCC iter.                  ...        0 min,  0.010 sec
     gradient                   ...        0 min,  0.004 sec
 * total energy  :   -57.2072894 Eh     change       -0.3328770E-04 Eh
   gradient norm :     0.0020828 Eh/α   predicted    -0.2434819E-04 ( -26.86%)
   displ. norm   :     0.1898487 α      lambda       -0.5140499E-04
   maximum displ.:     0.1091041 α      in ANC's #4, #5, #2, ...

........................................................................
.............................. CYCLE   36 ..............................
........................................................................

 iter      E             dE          RMSdq      gap      omega  full diag
   1    -57.8091825 -0.578092E+02  0.668E-02    3.43       0.0  T
   2    -57.8091831 -0.580722E-06  0.395E-02    3.43       1.0  T
   3    -57.8091826  0.473366E-06  0.499E-03    3.43       3.2  T
   4    -57.8091834 -0.772695E-06  0.187E-03    3.43       8.6  T
   5    -57.8091834 -0.316164E-07  0.861E-04    3.43      18.6  T
   6    -57.8091834 -0.407908E-08  0.216E-04    3.43      74.1  T
     SCC iter.                  ...        0 min,  0.011 sec
     gradient                   ...        0 min,  0.005 sec
 * total energy  :   -57.2073297 Eh     change       -0.4032026E-04 Eh
   gradient norm :     0.0025523 Eh/α   predicted    -0.2663208E-04 ( -33.95%)
   displ. norm   :     0.3757795 α      lambda       -0.7735867E-04
   maximum displ.:     0.2244911 α      in ANC's #4, #5, #2, ...

........................................................................
.............................. CYCLE   37 ..............................
........................................................................

 iter      E             dE          RMSdq      gap      omega  full diag
   1    -57.8080920 -0.578081E+02  0.129E-01    3.43       0.0  T
   2    -57.8080943 -0.227812E-05  0.765E-02    3.42       1.0  T
   3    -57.8080925  0.172779E-05  0.940E-03    3.43       1.7  T
   4    -57.8080953 -0.275234E-05  0.361E-03    3.42       4.4  T
   5    -57.8080954 -0.147357E-06  0.165E-03    3.42       9.7  T
   6    -57.8080954 -0.115788E-07  0.443E-04    3.42      36.2  T
   7    -57.8080954 -0.112124E-08  0.172E-04    3.42      93.3  T
     SCC iter.                  ...        0 min,  0.013 sec
     gradient                   ...        0 min,  0.005 sec
 * total energy  :   -57.2073824 Eh     change       -0.5269266E-04 Eh
   gradient norm :     0.0043895 Eh/α   predicted    -0.4414313E-04 ( -16.23%)
   displ. norm   :     0.1989174 α      lambda       -0.7804017E-04
   maximum displ.:     0.0893150 α      in ANC's #5, #10, #4, ...

........................................................................
.............................. CYCLE   38 ..............................
........................................................................

 iter      E             dE          RMSdq      gap      omega  full diag
   1    -57.8092424 -0.578092E+02  0.687E-02    3.44       0.0  T
   2    -57.8092433 -0.924460E-06  0.409E-02    3.44       1.0  T
   3    -57.8092374  0.589805E-05  0.133E-02    3.43       1.2  T
   4    -57.8092441 -0.674065E-05  0.221E-03    3.44       7.3  T
   5    -57.8092442 -0.348990E-07  0.115E-03    3.44      13.9  T
   6    -57.8092442 -0.544174E-08  0.305E-04    3.44      52.4  T
   7    -57.8092442 -0.563915E-09  0.120E-04    3.44     133.5  T
     SCC iter.                  ...        0 min,  0.012 sec
     gradient                   ...        0 min,  0.003 sec
 * total energy  :   -57.2074201 Eh     change       -0.3776210E-04 Eh
   gradient norm :     0.0047276 Eh/α   predicted    -0.4056526E-04 (   7.42%)
   displ. norm   :     0.2784443 α      lambda       -0.7233689E-04
   maximum displ.:     0.1641628 α      in ANC's #4, #5, #2, ...

........................................................................
.............................. CYCLE   39 ..............................
........................................................................

 iter      E             dE          RMSdq      gap      omega  full diag
   1    -57.8069950 -0.578070E+02  0.912E-02    3.41       0.0  T
   2    -57.8069964 -0.141478E-05  0.541E-02    3.41       1.0  T
   3    -57.8069916  0.479802E-05  0.123E-02    3.42       1.3  T
   4    -57.8069973 -0.571478E-05  0.276E-03    3.41       5.8  T
   5    -57.8069974 -0.645482E-07  0.140E-03    3.41      11.5  T
   6    -57.8069974 -0.712232E-08  0.411E-04    3.41      39.0  T
   7    -57.8069974 -0.130403E-08  0.150E-04    3.41     107.1  T
     SCC iter.                  ...        0 min,  0.012 sec
     gradient                   ...        0 min,  0.005 sec
 * total energy  :   -57.2074530 Eh     change       -0.3284681E-04 Eh
   gradient norm :     0.0066600 Eh/α   predicted    -0.3897322E-04 (  18.65%)
   displ. norm   :     0.0798269 α      lambda       -0.8565046E-04
   maximum displ.:     0.0496061 α      in ANC's #11, #6, #16, ...

........................................................................
.............................. CYCLE   40 ..............................
........................................................................

 iter      E             dE          RMSdq      gap      omega  full diag
   1    -57.8091385 -0.578091E+02  0.294E-02    3.44       0.0  T
   2    -57.8091416 -0.311461E-05  0.180E-02    3.44       1.0  T
   3    -57.8091408  0.783428E-06  0.822E-03    3.44       1.9  T
   4    -57.8091418 -0.101283E-05  0.300E-03    3.43       5.3  T
   5    -57.8091421 -0.309776E-06  0.751E-04    3.43      21.3  T
   6    -57.8091421 -0.759162E-08  0.367E-04    3.43      43.7  T
     SCC iter.                  ...        0 min,  0.011 sec
     gradient                   ...        0 min,  0.003 sec
 * total energy  :   -57.2074746 Eh     change       -0.2162752E-04 Eh
   gradient norm :     0.0055942 Eh/α   predicted    -0.4309982E-04 (  99.28%)
   displ. norm   :     0.1519101 α      lambda       -0.8124908E-04
   maximum displ.:     0.0870658 α      in ANC's #4, #5, #2, ...

........................................................................
.............................. CYCLE   41 ..............................
........................................................................

 iter      E             dE          RMSdq      gap      omega  full diag
   1    -57.8080429 -0.578080E+02  0.616E-02    3.42       0.0  T
   2    -57.8080438 -0.915501E-06  0.363E-02    3.42       1.0  T
   3    -57.8080438  0.142707E-07  0.317E-03    3.43       5.1  T
   4    -57.8080439 -0.155401E-06  0.175E-03    3.43       9.1  T
   5    -57.8080440 -0.747109E-07  0.932E-04    3.43      17.2  T
   6    -57.8080440 -0.698437E-08  0.227E-04    3.43      70.4  T
     SCC iter.                  ...        0 min,  0.026 sec
     gradient                   ...        0 min,  0.012 sec
 * total energy  :   -57.2075267 Eh     change       -0.5211553E-04 Eh
   gradient norm :     0.0031709 Eh/α   predicted    -0.4158040E-04 ( -20.21%)
   displ. norm   :     0.1860678 α      lambda       -0.5601146E-04
   maximum displ.:     0.1138414 α      in ANC's #5, #4, #2, ...

........................................................................
.............................. CYCLE   42 ..............................
........................................................................

 iter      E             dE          RMSdq      gap      omega  full diag
   1    -57.8076150 -0.578076E+02  0.638E-02    3.42       0.0  T
   2    -57.8076160 -0.951532E-06  0.378E-02    3.42       1.0  T
   3    -57.8076154  0.608429E-06  0.587E-03    3.42       2.7  T
   4    -57.8076163 -0.958664E-06  0.210E-03    3.42       7.6  T
   5    -57.8076164 -0.602195E-07  0.118E-03    3.42      13.5  T
   6    -57.8076164 -0.996950E-08  0.322E-04    3.42      49.8  T
   7    -57.8076164 -0.116724E-08  0.105E-04    3.42     152.6  T
     SCC iter.                  ...        0 min,  0.012 sec
     gradient                   ...        0 min,  0.003 sec
 * total energy  :   -57.2075613 Eh     change       -0.3457997E-04 Eh
   gradient norm :     0.0064519 Eh/α   predicted    -0.2897924E-04 ( -16.20%)
   displ. norm   :     0.1934576 α      lambda       -0.5902904E-04
   maximum displ.:     0.1268752 α      in ANC's #5, #4, #2, ...
 * RMSD in coord.:     0.6461746 α      energy gain  -0.8516769E-03 Eh

generating ANC from exact Hessian ...
Using Lindh-Hessian (1995)
 Shifting diagonal of input Hessian by   9.863244922676036E-003
 Lowest  eigenvalues of input Hessian
    0.000000    0.000000    0.000000    0.000000    0.000000    0.010000
    0.000000    0.010177    0.010329    0.010543    0.010676    0.011039
    0.011688    0.012909    0.013650    0.015260    0.017105    0.017388
 Highest eigenvalues
    1.581207    1.598638    1.608928    1.768597    1.979091    2.366939
 

........................................................................
.............................. CYCLE   43 ..............................
........................................................................

 iter      E             dE          RMSdq      gap      omega  full diag
   1    -57.8070431 -0.578070E+02  0.610E-02    3.42       0.0  T
   2    -57.8070437 -0.645065E-06  0.359E-02    3.42       1.0  T
   3    -57.8070439 -0.181088E-06  0.201E-03    3.42       8.0  T
   4    -57.8070439 -0.264900E-07  0.126E-03    3.42      12.7  T
   5    -57.8070440 -0.252412E-08  0.830E-04    3.42      19.3  T
   6    -57.8070440 -0.122518E-07  0.227E-04    3.42      70.6  T
     SCC iter.                  ...        0 min,  0.028 sec
     gradient                   ...        0 min,  0.003 sec
 * total energy  :   -57.2076094 Eh     change       -0.4805978E-04 Eh
   gradient norm :     0.0064498 Eh/α   predicted     0.0000000E+00 (-100.00%)
   displ. norm   :     0.0386619 α      lambda       -0.5946810E-04
   maximum displ.:     0.0173221 α      in ANC's #5, #8, #4, ...

........................................................................
.............................. CYCLE   44 ..............................
........................................................................

 iter      E             dE          RMSdq      gap      omega  full diag
   1    -57.8089051 -0.578089E+02  0.144E-02    3.44       0.0  T
   2    -57.8089059 -0.783132E-06  0.896E-03    3.43       1.8  T
   3    -57.8089055  0.354986E-06  0.577E-03    3.43       2.8  T
   4    -57.8089061 -0.625165E-06  0.164E-03    3.43       9.7  T
   5    -57.8089062 -0.793229E-07  0.398E-04    3.43      40.3  T
   6    -57.8089062 -0.786436E-09  0.229E-04    3.43      69.8  T
     SCC iter.                  ...        0 min,  0.012 sec
     gradient                   ...        0 min,  0.003 sec
 * total energy  :   -57.2076568 Eh     change       -0.4739562E-04 Eh
   gradient norm :     0.0018928 Eh/α   predicted    -0.3425232E-04 ( -27.73%)
   displ. norm   :     0.1095048 α      lambda       -0.4749803E-04
   maximum displ.:     0.0536239 α      in ANC's #5, #4, #8, ...

........................................................................
.............................. CYCLE   45 ..............................
........................................................................

 iter      E             dE          RMSdq      gap      omega  full diag
   1    -57.8108436 -0.578108E+02  0.350E-02    3.45       0.0  T
   2    -57.8108447 -0.109780E-05  0.210E-02    3.45       1.0  T
   3    -57.8108415  0.320676E-05  0.108E-02    3.45       1.5  T
   4    -57.8108453 -0.377855E-05  0.214E-03    3.45       7.5  T
   5    -57.8108454 -0.111105E-06  0.821E-04    3.45      19.5  T
   6    -57.8108454 -0.186238E-08  0.316E-04    3.45      50.6  T
     SCC iter.                  ...        0 min,  0.020 sec
     gradient                   ...        0 min,  0.004 sec
 * total energy  :   -57.2076953 Eh     change       -0.3851562E-04 Eh
   gradient norm :     0.0043048 Eh/α   predicted    -0.2388066E-04 ( -38.00%)
   displ. norm   :     0.0979439 α      lambda       -0.4602844E-04
   maximum displ.:     0.0480265 α      in ANC's #5, #4, #8, ...

........................................................................
.............................. CYCLE   46 ..............................
........................................................................

 iter      E             dE          RMSdq      gap      omega  full diag
   1    -57.8107844 -0.578108E+02  0.305E-02    3.45       0.0  T
   2    -57.8107847 -0.247040E-06  0.182E-02    3.45       1.0  T
   3    -57.8107847  0.157893E-07  0.207E-03    3.45       7.7  T
   4    -57.8107847 -0.856657E-07  0.119E-03    3.45      13.5  T
   5    -57.8107848 -0.255418E-07  0.587E-04    3.45      27.3  T
   6    -57.8107848 -0.194029E-08  0.137E-04    3.45     116.9  T
     SCC iter.                  ...        0 min,  0.011 sec
     gradient                   ...        0 min,  0.014 sec
 * total energy  :   -57.2077332 Eh     change       -0.3796468E-04 Eh
   gradient norm :     0.0041104 Eh/α   predicted    -0.2326158E-04 ( -38.73%)
   displ. norm   :     0.2840538 α      lambda       -0.1149844E-03
   maximum displ.:     0.1369604 α      in ANC's #5, #4, #8, ...

........................................................................
.............................. CYCLE   47 ..............................
........................................................................

 iter      E             dE          RMSdq      gap      omega  full diag
   1    -57.8090055 -0.578090E+02  0.882E-02    3.44       0.0  T
   2    -57.8090075 -0.197696E-05  0.525E-02    3.44       1.0  T
   3    -57.8090078 -0.328982E-06  0.484E-03    3.44       3.3  T
   4    -57.8090082 -0.346870E-06  0.276E-03    3.44       5.8  T
   5    -57.8090082 -0.502877E-07  0.177E-03    3.44       9.1  T
   6    -57.8090083 -0.476255E-07  0.462E-04    3.44      34.7  T
   7    -57.8090083 -0.208365E-08  0.157E-04    3.44     102.3  T
     SCC iter.                  ...        0 min,  0.013 sec
     gradient                   ...        0 min,  0.010 sec
 * total energy  :   -57.2078145 Eh     change       -0.8125960E-04 Eh
   gradient norm :     0.0049701 Eh/α   predicted    -0.6213371E-04 ( -23.54%)
   displ. norm   :     0.2071494 α      lambda       -0.6172396E-04
   maximum displ.:     0.1037029 α      in ANC's #5, #4, #8, ...

........................................................................
.............................. CYCLE   48 ..............................
........................................................................

 iter      E             dE          RMSdq      gap      omega  full diag
   1    -57.8077899 -0.578078E+02  0.616E-02    3.44       0.0  T
   2    -57.8077907 -0.825471E-06  0.365E-02    3.44       1.0  T
   3    -57.8077907  0.594106E-07  0.399E-03    3.44       4.0  T
   4    -57.8077910 -0.372539E-06  0.203E-03    3.44       7.9  T
   5    -57.8077911 -0.467764E-07  0.118E-03    3.44      13.6  T
   6    -57.8077911 -0.142351E-07  0.304E-04    3.44      52.6  T
   7    -57.8077911 -0.648924E-09  0.906E-05    3.44     176.8  T
     SCC iter.                  ...        0 min,  0.021 sec
     gradient                   ...        0 min,  0.003 sec
 * total energy  :   -57.2078582 Eh     change       -0.4370367E-04 Eh
   gradient norm :     0.0068402 Eh/α   predicted    -0.3218726E-04 ( -26.35%)
   displ. norm   :     0.1719169 α      lambda       -0.7790502E-04
   maximum displ.:     0.0907715 α      in ANC's #5, #4, #3, ...

........................................................................
.............................. CYCLE   49 ..............................
........................................................................

 iter      E             dE          RMSdq      gap      omega  full diag
   1    -57.8078055 -0.578078E+02  0.465E-02    3.44       0.0  T
   2    -57.8078066 -0.108502E-05  0.273E-02    3.44       1.0  T
   3    -57.8078067 -0.852492E-07  0.262E-03    3.44       6.1  T
   4    -57.8078068 -0.646497E-07  0.141E-03    3.44      11.4  T
   5    -57.8078068 -0.295853E-07  0.827E-04    3.44      19.4  T
   6    -57.8078068 -0.754142E-08  0.273E-04    3.44      58.6  T
     SCC iter.                  ...        0 min,  0.028 sec
     gradient                   ...        0 min,  0.008 sec
 * total energy  :   -57.2079185 Eh     change       -0.6027279E-04 Eh
   gradient norm :     0.0054620 Eh/α   predicted    -0.4011170E-04 ( -33.45%)
   displ. norm   :     0.2400006 α      lambda       -0.1033034E-03
   maximum displ.:     0.1307074 α      in ANC's #5, #4, #3, ...

........................................................................
.............................. CYCLE   50 ..............................
........................................................................

 iter      E             dE          RMSdq      gap      omega  full diag
   1    -57.8084041 -0.578084E+02  0.629E-02    3.44       0.0  T
   2    -57.8084055 -0.140982E-05  0.370E-02    3.44       1.0  T
   3    -57.8084040  0.151543E-05  0.747E-03    3.44       2.1  T
   4    -57.8084059 -0.183269E-05  0.252E-03    3.44       6.3  T
   5    -57.8084060 -0.155147E-06  0.106E-03    3.44      15.1  T
   6    -57.8084060 -0.389153E-08  0.419E-04    3.44      38.2  T
   7    -57.8084060 -0.104639E-08  0.120E-04    3.44     133.9  T
     SCC iter.                  ...        0 min,  0.041 sec
     gradient                   ...        0 min,  0.015 sec
 * total energy  :   -57.2079970 Eh     change       -0.7854775E-04 Eh
   gradient norm :     0.0049215 Eh/α   predicted    -0.5462780E-04 ( -30.45%)
   displ. norm   :     0.3236209 α      lambda       -0.1117515E-03
   maximum displ.:     0.1786818 α      in ANC's #5, #4, #3, ...

........................................................................
.............................. CYCLE   51 ..............................
........................................................................

 iter      E             dE          RMSdq      gap      omega  full diag
   1    -57.8083935 -0.578084E+02  0.860E-02    3.44       0.0  T
   2    -57.8083947 -0.124679E-05  0.506E-02    3.44       1.0  T
   3    -57.8083937  0.987457E-06  0.697E-03    3.44       2.3  T
   4    -57.8083953 -0.156373E-05  0.247E-03    3.44       6.5  T
   5    -57.8083954 -0.776791E-07  0.127E-03    3.44      12.6  T
   6    -57.8083954 -0.649622E-08  0.328E-04    3.44      48.8  T
   7    -57.8083954 -0.971198E-09  0.123E-04    3.44     130.2  T
     SCC iter.                  ...        0 min,  0.030 sec
     gradient                   ...        0 min,  0.004 sec
 * total energy  :   -57.2080882 Eh     change       -0.9120351E-04 Eh
   gradient norm :     0.0062409 Eh/α   predicted    -0.6172802E-04 ( -32.32%)
   displ. norm   :     0.4170089 α      lambda       -0.1913380E-03
   maximum displ.:     0.2324612 α      in ANC's #5, #3, #4, ...

........................................................................
.............................. CYCLE   52 ..............................
........................................................................

 iter      E             dE          RMSdq      gap      omega  full diag
   1    -57.8099020 -0.578099E+02  0.107E-01    3.46       0.0  T
   2    -57.8099050 -0.305488E-05  0.633E-02    3.46       1.0  T
   3    -57.8098967  0.831548E-05  0.161E-02    3.46       1.0  T
   4    -57.8099064 -0.963420E-05  0.372E-03    3.46       4.3  T
   5    -57.8099067 -0.302273E-06  0.166E-03    3.46       9.7  T
   6    -57.8099067 -0.848467E-08  0.484E-04    3.46      33.1  T
   7    -57.8099067 -0.796277E-09  0.155E-04    3.46     103.6  T
     SCC iter.                  ...        0 min,  0.021 sec
     gradient                   ...        0 min,  0.006 sec
 * total energy  :   -57.2082329 Eh     change       -0.1446672E-03 Eh
   gradient norm :     0.0068218 Eh/α   predicted    -0.1123114E-03 ( -22.37%)
   displ. norm   :     0.7161810 α      lambda       -0.2743296E-03
   maximum displ.:     0.4035863 α      in ANC's #5, #3, #4, ...

........................................................................
.............................. CYCLE   53 ..............................
........................................................................

 iter      E             dE          RMSdq      gap      omega  full diag
   1    -57.8041956 -0.578042E+02  0.198E-01    3.40       0.0  T
   2    -57.8042060 -0.103418E-04  0.117E-01    3.41       1.0  T
   3    -57.8041917  0.142797E-04  0.226E-02    3.41       1.0  T
   4    -57.8042098 -0.181043E-04  0.689E-03    3.41       2.3  T
   5    -57.8042106 -0.809198E-06  0.349E-03    3.41       4.6  T
   6    -57.8042107 -0.608314E-07  0.113E-03    3.41      14.1  T
   7    -57.8042107 -0.500970E-08  0.340E-04    3.41      47.1  T
   8    -57.8042107 -0.502922E-09  0.919E-05    3.41     174.2  T
     SCC iter.                  ...        0 min,  0.023 sec
     gradient                   ...        0 min,  0.006 sec
 * total energy  :   -57.2083130 Eh     change       -0.8008030E-04 Eh
   gradient norm :     0.0171677 Eh/α   predicted    -0.2075258E-03 ( 159.15%)
   displ. norm   :     0.1327709 α      lambda       -0.4448072E-03
   maximum displ.:     0.0693186 α      in ANC's #10, #3, #9, ...

........................................................................
.............................. CYCLE   54 ..............................
........................................................................

 iter      E             dE          RMSdq      gap      omega  full diag
   1    -57.8095784 -0.578096E+02  0.439E-02    3.47       0.0  T
   2    -57.8095853 -0.682881E-05  0.280E-02    3.46       1.0  T
   3    -57.8095831  0.220027E-05  0.176E-02    3.46       1.0  T
   4    -57.8095887 -0.563244E-05  0.547E-03    3.46       2.9  T
   5    -57.8095895 -0.783397E-06  0.112E-03    3.46      14.3  T
   6    -57.8095895 -0.353301E-08  0.584E-04    3.46      27.4  T
   7    -57.8095895 -0.984791E-09  0.190E-04    3.46      84.3  T
     SCC iter.                  ...        0 min,  0.022 sec
     gradient                   ...        0 min,  0.006 sec
 * total energy  :   -57.2085802 Eh     change       -0.2672135E-03 Eh
   gradient norm :     0.0045086 Eh/α   predicted    -0.2263278E-03 ( -15.30%)
   displ. norm   :     0.5215781 α      lambda       -0.2490221E-03
   maximum displ.:     0.2987813 α      in ANC's #5, #3, #4, ...

........................................................................
.............................. CYCLE   55 ..............................
........................................................................

 iter      E             dE          RMSdq      gap      omega  full diag
   1    -57.8083575 -0.578084E+02  0.127E-01    3.46       0.0  T
   2    -57.8083618 -0.423320E-05  0.747E-02    3.46       1.0  T
   3    -57.8083613  0.452054E-06  0.766E-03    3.46       2.1  T
   4    -57.8083624 -0.111320E-05  0.441E-03    3.46       3.6  T
   5    -57.8083629 -0.479255E-06  0.179E-03    3.46       8.9  T
   6    -57.8083629 -0.141128E-07  0.552E-04    3.46      29.0  T
   7    -57.8083629 -0.128797E-08  0.175E-04    3.46      91.8  T
     SCC iter.                  ...        0 min,  0.020 sec
     gradient                   ...        0 min,  0.011 sec
 * total energy  :   -57.2087863 Eh     change       -0.2061532E-03 Eh
   gradient norm :     0.0048346 Eh/α   predicted    -0.1583891E-03 ( -23.17%)
   displ. norm   :     0.6422155 α      lambda       -0.2879916E-03
   maximum displ.:     0.3686043 α      in ANC's #5, #3, #4, ...

........................................................................
.............................. CYCLE   56 ..............................
........................................................................

 iter      E             dE          RMSdq      gap      omega  full diag
   1    -57.8057334 -0.578057E+02  0.155E-01    3.43       0.0  T
   2    -57.8057383 -0.487234E-05  0.911E-02    3.43       1.0  T
   3    -57.8057394 -0.112239E-05  0.609E-03    3.43       2.6  T
   4    -57.8057398 -0.379964E-06  0.359E-03    3.43       4.5  T
   5    -57.8057398 -0.810917E-07  0.233E-03    3.43       6.9  T
   6    -57.8057399 -0.917424E-07  0.708E-04    3.43      22.6  T
   7    -57.8057399 -0.454153E-08  0.261E-04    3.43      61.4  T
     SCC iter.                  ...        0 min,  0.027 sec
     gradient                   ...        0 min,  0.005 sec
 * total energy  :   -57.2089796 Eh     change       -0.1932341E-03 Eh
   gradient norm :     0.0115677 Eh/α   predicted    -0.2033950E-03 (   5.26%)
   displ. norm   :     0.3427335 α      lambda       -0.2940418E-03
   maximum displ.:     0.1956233 α      in ANC's #3, #5, #4, ...

........................................................................
.............................. CYCLE   57 ..............................
........................................................................

 iter      E             dE          RMSdq      gap      omega  full diag
   1    -57.8088710 -0.578089E+02  0.674E-02    3.45       0.0  T
   2    -57.8088744 -0.345016E-05  0.404E-02    3.45       1.0  T
   3    -57.8088642  0.101704E-04  0.186E-02    3.45       1.0  T
   4    -57.8088759 -0.116620E-04  0.362E-03    3.45       4.4  T
   5    -57.8088762 -0.321559E-06  0.125E-03    3.45      12.9  T
   6    -57.8088762 -0.567766E-08  0.575E-04    3.45      27.9  T
   7    -57.8088762 -0.966821E-09  0.153E-04    3.45     104.6  T
     SCC iter.                  ...        0 min,  0.013 sec
     gradient                   ...        0 min,  0.003 sec
 * total energy  :   -57.2091713 Eh     change       -0.1917632E-03 Eh
   gradient norm :     0.0070936 Eh/α   predicted    -0.1642978E-03 ( -14.32%)
   displ. norm   :     0.4672590 α      lambda       -0.2165348E-03
   maximum displ.:     0.2664768 α      in ANC's #3, #5, #4, ...

........................................................................
.............................. CYCLE   58 ..............................
........................................................................

 iter      E             dE          RMSdq      gap      omega  full diag
   1    -57.8078213 -0.578078E+02  0.102E-01    3.43       0.0  T
   2    -57.8078226 -0.129462E-05  0.598E-02    3.43       1.0  T
   3    -57.8078225  0.916685E-07  0.541E-03    3.43       3.0  T
   4    -57.8078232 -0.722660E-06  0.252E-03    3.43       6.3  T
   5    -57.8078233 -0.662037E-07  0.106E-03    3.43      15.1  T
   6    -57.8078233 -0.633584E-08  0.279E-04    3.43      57.5  T
   7    -57.8078233 -0.361183E-09  0.120E-04    3.43     133.6  T
     SCC iter.                  ...        0 min,  0.015 sec
[...]
H26-C5-H25=109.01              C7-O6-C5=115.47                C8-C7-O6=114.86                H27-C7-O6=105.14               
H27-C7-C8=108.43               H28-C7-O6=110.34               H28-C7-C8=108.42               H28-C7-H27=109.52              
O9-C8-C7=108.64                H29-C8-C7=108.48               H29-C8-O9=110.50               H30-C8-C7=110.32               
H30-C8-O9=110.05               H30-C8-H29=108.82              C10-O9-C8=115.66               C11-C10-O9=114.46              
H31-C10-O9=105.06              H31-C10-C11=109.00             H32-C10-O9=111.13              H32-C10-C11=107.80             
H32-C10-H31=109.28             
 
 selected dihedral angles (degree)
 ---------------------------------
O3-C2-C1-H18=187.47           O3-C2-C1-H19=307.15           O3-C2-C1-H20= 67.57           H21-C2-C1-H18=304.41          
H21-C2-C1-H19= 64.09          H21-C2-C1-H20=184.51          H22-C2-C1-H18= 63.77          H22-C2-C1-H19=183.45          
H22-C2-C1-H20=303.87          C4-O3-C2-C1=290.46            C4-O3-C2-H21=170.55           C4-O3-C2-H22= 54.05           
C5-C4-O3-C2=201.59            H23-C4-O3-C2= 81.43           H24-C4-O3-C2=320.51           O6-C5-C4-O3= 82.45            
O6-C5-C4-H23=203.35           O6-C5-C4-H24=322.19           H25-C5-C4-O3=203.39           H25-C5-C4-H23=324.29          
H25-C5-C4-H24= 83.13          H26-C5-C4-O3=322.12           H26-C5-C4-H23= 83.02          H26-C5-C4-H24=201.86          
C7-O6-C5-C4=202.99            C7-O6-C5-H25= 83.11           C7-O6-C5-H26=322.08           C8-C7-O6-C5=290.22            
H27-C7-O6-C5=171.12           H28-C7-O6-C5= 53.12           O9-C8-C7-O6=290.20            O9-C8-C7-H27= 47.45           
O9-C8-C7-H28=166.28           H29-C8-C7-O6=170.04           H29-C8-C7-H27=287.28          H29-C8-C7-H28= 46.11          
H30-C8-C7-O6= 50.92           H30-C8-C7-H27=168.17          H30-C8-C7-H28=287.00          C10-O9-C8-C7=159.31           
C10-O9-C8-H29=278.21          C10-O9-C8-H30= 38.43          C11-C10-O9-C8= 69.22          H31-C10-O9-C8=188.75          
H32-C10-O9-C8=306.82          
           -------------------------------------------------
          |                Final Singlepoint                |
           -------------------------------------------------

          ...................................................
          :                      SETUP                      :
          :.................................................:
          :  # basis functions                  90          :
          :  # atomic orbitals                  90          :
          :  # shells                           56          :
          :  # electrons                       100          :
          :  max. iterations                   250          :
          :  Hamiltonian                  GFN2-xTB          :
          :  restarted?                      false          :
          :  GBSA solvation                  false          :
          :  PC potential                    false          :
          :  electronic temp.          300.0000000     K    :
          :  accuracy                    1.0000000          :
          :  -> integral cutoff          0.2500000E+02      :
          :  -> integral neglect         0.1000000E-07      :
          :  -> SCF convergence          0.1000000E-05 Eh   :
          :  -> wf. convergence          0.1000000E-03 e    :
          :  Broyden damping             0.4000000          :
          :  net charge                          0          :
          :  unpaired electrons                  0          :
          ...................................................

 iter      E             dE          RMSdq      gap      omega  full diag
   1    -57.8124919 -0.578125E+02  0.335E-05    3.33       0.0  T
   2    -57.8124919 -0.230216E-11  0.204E-05    3.33     784.5  T
   3    -57.8124919  0.284217E-13  0.660E-06    3.33    2425.1  T

   *** convergence criteria satisfied after 3 iterations ***

         #    Occupation            Energy/Eh            Energy/eV
      -------------------------------------------------------------
         1        2.0000           -0.7416048             -20.1801
       ...           ...                  ...                  ...
        44        2.0000           -0.4386065             -11.9351
        45        2.0000           -0.4338384             -11.8053
        46        2.0000           -0.4173743             -11.3573
        47        2.0000           -0.4138946             -11.2626
        48        2.0000           -0.4023463             -10.9484
        49        2.0000           -0.3951753             -10.7533
        50        2.0000           -0.3899841             -10.6120 (HOMO)
        51                         -0.2677786              -7.2866 (LUMO)
        52                         -0.1608262              -4.3763
        53                          0.0028635               0.0779
        54                          0.0213660               0.5814
        55                          0.0285250               0.7762
       ...                                ...                  ...
        90                          0.6981529              18.9977
      -------------------------------------------------------------
                  HL-Gap            0.1222055 Eh            3.3254 eV
             Fermi-level           -0.3288814 Eh           -8.9493 eV

 SCC (total)                   0 d,  0 h,  0 min,  0.018 sec
 SCC setup                      ...        0 min,  0.000 sec (  1.388%)
 Dispersion                     ...        0 min,  0.000 sec (  0.894%)
 classical contributions        ...        0 min,  0.000 sec (  1.130%)
 integral evaluation            ...        0 min,  0.001 sec (  4.305%)
 iterations                     ...        0 min,  0.008 sec ( 46.467%)
 molecular gradient             ...        0 min,  0.008 sec ( 44.842%)
 printout                       ...        0 min,  0.000 sec (  0.838%)

         :::::::::::::::::::::::::::::::::::::::::::::::::::::
         ::                     SUMMARY                     ::
         :::::::::::::::::::::::::::::::::::::::::::::::::::::
         :: total energy             -57.210723502457 Eh    ::
         :: gradient norm              0.000778751523 Eh/a0 ::
         :: HOMO-LUMO gap              3.325379613997 eV    ::
         ::.................................................::
         :: SCC energy               -57.812463020853 Eh    ::
         :: -> isotropic ES            0.099499023594 Eh    ::
         :: -> anisotropic ES          0.005825233687 Eh    ::
         :: -> anisotropic XC          0.007795795547 Eh    ::
         :: -> dispersion             -0.028421341626 Eh    ::
         :: repulsion energy           0.601739518396 Eh    ::
         :: add. restraining           0.000000000000 Eh    ::
         :: total charge              -0.000000000000 e     ::
         :::::::::::::::::::::::::::::::::::::::::::::::::::::

           -------------------------------------------------
          |                Property Printout                |
           -------------------------------------------------

    * Orbital Energies and Occupations

         #    Occupation            Energy/Eh            Energy/eV
      -------------------------------------------------------------
         1        2.0000           -0.7416048             -20.1801
       ...           ...                  ...                  ...
        38        2.0000           -0.4680981             -12.7376
        39        2.0000           -0.4640965             -12.6287
        40        2.0000           -0.4579743             -12.4621
        41        2.0000           -0.4520263             -12.3003
        42        2.0000           -0.4508094             -12.2671
        43        2.0000           -0.4463695             -12.1463
        44        2.0000           -0.4386065             -11.9351
        45        2.0000           -0.4338384             -11.8053
        46        2.0000           -0.4173743             -11.3573
        47        2.0000           -0.4138946             -11.2626
        48        2.0000           -0.4023463             -10.9484
        49        2.0000           -0.3951753             -10.7533
        50        2.0000           -0.3899841             -10.6120 (HOMO)
        51                         -0.2677786              -7.2866 (LUMO)
        52                         -0.1608262              -4.3763
        53                          0.0028635               0.0779
        54                          0.0213660               0.5814
        55                          0.0285250               0.7762
        56                          0.0381110               1.0371
        57                          0.0812917               2.2121
        58                          0.0930529               2.5321
        59                          0.0989875               2.6936
        60                          0.0998896               2.7181
        61                          0.1040432               2.8312
       ...                                ...                  ...
        90                          0.6981529              18.9977
      -------------------------------------------------------------
                  HL-Gap            0.1222055 Eh            3.3254 eV
             Fermi-level           -0.3288814 Eh           -8.9493 eV

     #   Z          covCN         q      C6AA      α(0)
     1   6 C        3.750    -0.117    22.808     6.811
     2   6 C        3.695     0.081    19.391     6.300
     3   8 O        1.701    -0.314    19.235     5.921
     4   6 C        3.695     0.081    19.402     6.301
     5   6 C        3.694     0.079    19.423     6.305
     6   8 O        1.701    -0.300    18.993     5.884
     7   6 C        3.695     0.073    19.521     6.321
     8   6 C        3.692     0.067    19.623     6.339
     9   8 O        1.701    -0.303    19.043     5.892
    10   6 C        3.693     0.077    19.460     6.312
    11   6 C        3.699     0.063    19.677     6.344
    12   8 O        1.705    -0.254    18.212     5.762
    13   6 C        2.730     0.355    20.966     7.496
    14   8 O        0.856    -0.425    22.195     6.316
    15   6 C        2.938    -0.007    28.199     8.709
    16   6 C        3.757    -0.112    22.703     6.793
    17   6 C        2.850    -0.077    29.926     8.966
    18   1 H        0.925     0.042     2.427     2.436
    19   1 H        0.925     0.049     2.326     2.385
    20   1 H        0.925     0.040     2.450     2.448
    21   1 H        0.924     0.051     2.302     2.373
    22   1 H        0.923     0.023     2.685     2.562
    23   1 H        0.923     0.025     2.665     2.553
    24   1 H        0.923     0.044     2.401     2.423
    25   1 H        0.923     0.022     2.701     2.570
    26   1 H        0.923     0.042     2.425     2.435
    27   1 H        0.924     0.073     2.052     2.240
    28   1 H        0.923     0.030     2.581     2.513
    29   1 H        0.923     0.054     2.275     2.359
    30   1 H        0.923     0.022     2.699     2.569
    31   1 H        0.924     0.066     2.129     2.282
    32   1 H        0.923     0.026     2.640     2.541
    33   1 H        0.924     0.065     2.145     2.290
    34   1 H        0.924     0.054     2.273     2.358
    35   1 H        0.925     0.063     2.159     2.298
    36   1 H        0.925     0.060     2.198     2.318
    37   1 H        0.925     0.052     2.292     2.367
    38   1 H        0.926     0.058     2.225     2.333
    39   1 H        0.926     0.071     2.078     2.254

 Mol. C6AA /au·bohr⁶  :      12416.189854
 Mol. C8AA /au·bohr⁸  :     265954.917767
 Mol. α(0) /au        :        165.680191


Wiberg/Mayer (AO) data.
largest (>0.10) Wiberg bond orders for each atom

 ---------------------------------------------------------------------------
     #   Z sym  total        # sym  WBO       # sym  WBO       # sym  WBO
 ---------------------------------------------------------------------------
     1   6 C    3.996 --     2 C    1.008    20 H    0.987    19 H    0.987
                            18 H    0.986
     2   6 C    3.953 --     1 C    1.008     3 O    0.984    21 H    0.971
                            22 H    0.967
     3   8 O    2.079 --     4 C    0.990     2 C    0.984
     4   6 C    3.961 --     5 C    0.995     3 O    0.990    23 H    0.967
                            24 H    0.965
     5   6 C    3.960 --     4 C    0.995     6 O    0.988    25 H    0.966
                            26 H    0.965
     6   8 O    2.091 --     7 C    0.994     5 C    0.988
     7   6 C    3.956 --     6 O    0.994     8 C    0.989    27 H    0.965
                            28 H    0.963
     8   6 C    3.951 --     7 C    0.989     9 O    0.977    30 H    0.966
                            29 H    0.958
     9   8 O    2.097 --    10 C    1.007     8 C    0.977
    10   6 C    3.959 --     9 O    1.007    11 C    0.976    31 H    0.967
                            32 H    0.961
    11   6 C    3.935 --    10 C    0.976    34 H    0.970    33 H    0.963
                            12 O    0.957
    12   8 O    2.316 --    13 C    1.121    11 C    0.957    14 O    0.168
    13   6 C    3.915 --    14 O    1.709    12 O    1.121    15 C    0.997
    14   8 O    2.030 --    13 C    1.709    12 O    0.168
    15   6 C    3.986 --    17 C    1.874    16 C    1.030    13 C    0.997
    16   6 C    3.995 --    15 C    1.030    37 H    0.984    36 H    0.969
                            35 H    0.967
    17   6 C    3.983 --    15 C    1.874    38 H    0.975    39 H    0.971
    18   1 H    0.998 --     1 C    0.986
    19   1 H    0.998 --     1 C    0.987
    20   1 H    0.998 --     1 C    0.987
    21   1 H    0.997 --     2 C    0.971
    22   1 H    0.999 --     2 C    0.967
    23   1 H    0.999 --     4 C    0.967
    24   1 H    0.998 --     4 C    0.965
    25   1 H    0.999 --     5 C    0.966
    26   1 H    0.998 --     5 C    0.965
    27   1 H    0.995 --     7 C    0.965
    28   1 H    0.999 --     7 C    0.963
    29   1 H    0.997 --     8 C    0.958
    30   1 H    0.999 --     8 C    0.966
    31   1 H    0.996 --    10 C    0.967
    32   1 H    0.999 --    10 C    0.961
    33   1 H    0.996 --    11 C    0.963
    34   1 H    0.996 --    11 C    0.970
    35   1 H    0.996 --    16 C    0.967
    36   1 H    0.996 --    16 C    0.969
    37   1 H    0.997 --    16 C    0.984
    38   1 H    0.996 --    17 C    0.975
    39   1 H    0.995 --    17 C    0.971
 ---------------------------------------------------------------------------

Topologies differ in total number of bonds
Writing topology from bond orders to xtbtopo.mol

molecular dipole:
                 x           y           z       tot (Debye)
 q only:        0.130       0.366      -0.698
   full:        0.149       0.736      -0.771       2.735
molecular quadrupole (traceless):
                xx          xy          yy          xz          yz          zz
 q only:       11.428      -4.016      -1.183      -3.743      -4.009     -10.246
  q+dip:        9.569      -4.867       0.562      -2.921      -3.658     -10.130
   full:       10.981      -3.526       0.484      -2.425      -3.607     -11.465

           -------------------------------------------------
          |                Geometry Summary                 |
           -------------------------------------------------

      molecular mass/u    :      246.3005519
   center of mass at/Å    :        0.3976441       0.0236936       0.0180650
  moments of inertia/u·Å² :        0.4142264E+03   0.3998778E+04   0.4169117E+04
rotational constants/cm⁻¹ :        0.4069667E-01   0.4215696E-02   0.4043454E-02

 * 36 selected distances

     #   Z          #   Z                                           value/Å
     1   6 C        2   6 C                                       1.5277006
     2   6 C        3   8 O                                       1.4086908
     3   8 O        4   6 C                                       1.4085914
     4   6 C        5   6 C                                       1.5269845
     5   6 C        6   8 O                                       1.4089583
     6   8 O        7   6 C                                       1.4038042
     7   6 C        8   6 C                                       1.5323180
     8   6 C        9   8 O                                       1.4154206
     9   8 O       10   6 C                                       1.3971136
    10   6 C       11   6 C                                       1.5391783 (max)
    11   6 C       12   8 O                                       1.4179881
    12   8 O       13   6 C                                       1.3409715
    13   6 C       14   8 O                                       1.2088097
    15   6 C       17   6 C                                       1.3292443
     1   6 C       18   1 H                                       1.0864354
     1   6 C       19   1 H                                       1.0870616
     1   6 C       20   1 H                                       1.0871261
     2   6 C       21   1 H                                       1.0928030
     2   6 C       22   1 H                                       1.1007458
     4   6 C       23   1 H                                       1.1003033
     4   6 C       24   1 H                                       1.0979953
     5   6 C       25   1 H                                       1.1004643
     5   6 C       26   1 H                                       1.0983657
     7   6 C       27   1 H                                       1.0914933
     7   6 C       28   1 H                                       1.1005157
     8   6 C       29   1 H                                       1.0987899
     8   6 C       30   1 H                                       1.0995700
    10   6 C       31   1 H                                       1.0930506
    10   6 C       32   1 H                                       1.1019752
    11   6 C       33   1 H                                       1.0949813
    11   6 C       34   1 H                                       1.0923334
    16   6 C       35   1 H                                       1.0885986
    16   6 C       36   1 H                                       1.0882014
    16   6 C       37   1 H                                       1.0865808
    17   6 C       38   1 H                                       1.0763525 (min)
    17   6 C       39   1 H                                       1.0770754

 * 3 distinct bonds (by element types)

   Z      Z             #   av. dist./Å        max./Å        min./Å
   1 H    6 C          22     1.0927645     1.1019752     1.0763525
   6 C    6 C           5     1.4910851     1.5391783     1.3292443
   6 C    8 O           9     1.3789276     1.4179881     1.2088097


optimized geometry written to: xtbopt.xyz


           -------------------------------------------------
          | TOTAL ENERGY              -57.210723502457 Eh   |
          | GRADIENT NORM               0.000778751523 Eh/α |
          | HOMO-LUMO GAP               3.325379613997 eV   |
           -------------------------------------------------

------------------------------------------------------------------------
 * finished run on 2025/12/01 at 14:19:24.318     
------------------------------------------------------------------------
 total:
 * wall-time:     0 d,  0 h,  0 min,  2.323 sec
 *  cpu-time:     0 d,  0 h,  0 min, 51.656 sec
 * ratio c/w:    22.239 speedup
 SCF:
 * wall-time:     0 d,  0 h,  0 min,  0.036 sec
 *  cpu-time:     0 d,  0 h,  0 min,  0.808 sec
 * ratio c/w:    22.612 speedup
 ANC optimizer:
 * wall-time:     0 d,  0 h,  0 min,  2.251 sec
 *  cpu-time:     0 d,  0 h,  0 min, 50.569 sec
 * ratio c/w:    22.470 speedup

normal termination of xtb
