      -----------------------------------------------------------      
     |                   =====================                   |     
     |                           x T B                           |     
     |                   =====================                   |     
     |                         S. Grimme                         |     
     |          Mulliken Center for Theoretical Chemistry        |     
     |                    University of Bonn                     |     
      -----------------------------------------------------------      

   * xtb version 6.7.1 (edcfbbe) compiled by 'albert@albert-system' on 2024-07-22

   xtb is free software: you can redistribute it and/or modify it under
   the terms of the GNU Lesser General Public License as published by
   the Free Software Foundation, either version 3 of the License, or
   (at your option) any later version.
   
   xtb is distributed in the hope that it will be useful,
   but WITHOUT ANY WARRANTY; without even the implied warranty of
   MERCHANTABILITY or FITNESS FOR A PARTICULAR PURPOSE.  See the
   GNU Lesser General Public License for more details.
   
   Cite this work as:
   * C. Bannwarth, E. Caldeweyher, S. Ehlert, A. Hansen, P. Pracht,
     J. Seibert, S. Spicher, S. Grimme, WIREs Comput. Mol. Sci., 2020, 11,
     e01493. DOI: 10.1002/wcms.1493
   
   for GFN2-xTB:
   * C. Bannwarth, S. Ehlert and S. Grimme., J. Chem. Theory Comput., 2019,
     15, 1652-1671. DOI: 10.1021/acs.jctc.8b01176
   for GFN1-xTB:
   * S. Grimme, C. Bannwarth, P. Shushkov, J. Chem. Theory Comput., 2017,
     13, 1989-2009. DOI: 10.1021/acs.jctc.7b00118
   for GFN0-xTB:
   * P. Pracht, E. Caldeweyher, S. Ehlert, S. Grimme, ChemRxiv, 2019, preprint.
     DOI: 10.26434/chemrxiv.8326202.v1
   for GFN-FF:
   * S. Spicher and S. Grimme, Angew. Chem. Int. Ed., 2020, 59, 15665-15673.
     DOI: 10.1002/anie.202004239
   
   for ALPB and GBSA implicit solvation:
   * S. Ehlert, M. Stahn, S. Spicher, S. Grimme, J. Chem. Theory Comput.,
     2021, 17, 4250-4261. DOI: 10.1021/acs.jctc.1c00471
   
   for ddCOSMO and CPCM-X implicit solvation:
   * M. Stahn, S. Ehlert, S. Grimme, J. Phys. Chem. A,
     2023, XX, XXXX-XXXX. DOI: 10.1021/acs.jpca.3c04382
   
   for DFT-D4:
   * E. Caldeweyher, C. Bannwarth and S. Grimme, J. Chem. Phys., 2017,
     147, 034112. DOI: 10.1063/1.4993215
   * E. Caldeweyher, S. Ehlert, A. Hansen, H. Neugebauer, S. Spicher,
     C. Bannwarth and S. Grimme, J. Chem. Phys., 2019, 150, 154122.
     DOI: 10.1063/1.5090222
   * E. Caldeweyher, J.-M. Mewes, S. Ehlert and S. Grimme, Phys. Chem. Chem. Phys.
     2020, 22, 8499-8512. DOI: 10.1039/D0CP00502A
   
   for sTDA-xTB:
   * S. Grimme and C. Bannwarth, J. Chem. Phys., 2016, 145, 054103.
     DOI: 10.1063/1.4959605
   
   in the mass-spec context:
   * V. Asgeirsson, C. Bauer and S. Grimme, Chem. Sci., 2017, 8, 4879.
     DOI: 10.1039/c7sc00601b
   * J. Koopman and S. Grimme, ACS Omega 2019, 4, 12, 15120-15133.
     DOI: 10.1021/acsomega.9b02011
   
   for metadynamics refer to:
   * S. Grimme, J. Chem. Theory Comput., 2019, 155, 2847-2862
     DOI: 10.1021/acs.jctc.9b00143
   
   for SPH calculations refer to:
   * S. Spicher and S. Grimme, J. Chem. Theory Comput., 2021, 17, 1701-1714
     DOI: 10.1021/acs.jctc.0c01306
   
   for ONIOM refer to:
   * C. Plett, A. Katbashev, S. Ehlert, S. Grimme, M. Bursch,
     Phys. Chem. Chem. Phys., 2023, 25, 17860-17868. DOI: 10.1039/D3CP02178E
   
   for DIPRO refer to:
   * J. Kohn, N. Gildemeister, S. Grimme, D. Fazzi, A. Hansen,
     J. Chem. Phys., 2023, just accepted.
   
   for PTB refer to:
   * S. Grimme, M. Mueller, A. Hansen, J. Chem. Phys., 2023, 158, 124111.
     DOI: 10.1063/5.0137838
   
   with help from (in alphabetical order)
   P. Atkinson, C. Bannwarth, F. Bohle, G. Brandenburg, E. Caldeweyher
   M. Checinski, S. Dohm, S. Ehlert, S. Ehrlich, I. Gerasimov, C. Hölzer
   A. Katbashev, J. Kohn, J. Koopman, C. Lavigne, S. Lehtola, F. März, M. Müller,
   F. Musil, H. Neugebauer, J. Pisarek, C. Plett, P. Pracht, F. Pultar,
   J. Seibert, P. Shushkov, S. Spicher, M. Stahn, M. Steiner, T. Strunk,
   J. Stückrath, T. Rose, and J. Unsleber
   
 * started run on 2025/12/01 at 14:19:20.005     
   ID    Z sym.   atoms
    1    6 C      1, 2, 4, 5, 7, 8, 10, 11, 13, 15-17
    2    8 O      3, 6, 9, 12, 14
    3    1 H      18-39

           -------------------------------------------------
          |                Calculation Setup                |
           -------------------------------------------------

          program call               : xtb pipeline_data/3_conformer_xyz/acrylates/rdkit/RBFPEAGEJJSYCX-UHFFFAOYSA-N_conf160.xyz --opt --gfn 2-xTB --iterations 250
          coordinate file            : pipeline_data/3_conformer_xyz/acrylates/rdkit/RBFPEAGEJJSYCX-UHFFFAOYSA-N_conf160.xyz
          omp threads                :                    24

########################################################################
[WARNING] Please study the warnings concerning your input carefully
-1- readin_getIntValue: could not parse '2-xTB'
########################################################################

           -------------------------------------------------
          |                 G F N 2 - x T B                 |
           -------------------------------------------------

        Reference                      10.1021/acs.jctc.8b01176
      * Hamiltonian:
        H0-scaling (s, p, d)           1.850000    2.230000    2.230000
        zeta-weighting                 0.500000
      * Dispersion:
        s8                             2.700000
        a1                             0.520000
        a2                             5.000000
        s9                             5.000000
      * Repulsion:
        kExp                           1.500000    1.000000
        rExp                           1.000000
      * Coulomb:
        alpha                          2.000000
        third order                    shell-resolved
        anisotropic                    true
        a3                             3.000000
        a5                             4.000000
        cn-shift                       1.200000
        cn-exp                         4.000000
        max-rad                        5.000000

q/qsh data taken from xtbrestart
CAMM data taken from xtbrestart

          ...................................................
          :                      SETUP                      :
          :.................................................:
          :  # basis functions                  90          :
          :  # atomic orbitals                  90          :
          :  # shells                           56          :
          :  # electrons                       100          :
          :  max. iterations                   250          :
          :  Hamiltonian                  GFN2-xTB          :
          :  restarted?                       true          :
          :  GBSA solvation                  false          :
          :  PC potential                    false          :
          :  electronic temp.          300.0000000     K    :
          :  accuracy                    1.0000000          :
          :  -> integral cutoff          0.2500000E+02      :
          :  -> integral neglect         0.1000000E-07      :
          :  -> SCF convergence          0.1000000E-05 Eh   :
          :  -> wf. convergence          0.1000000E-03 e    :
          :  Broyden damping             0.4000000          :
          :  net charge                          0          :
          :  unpaired electrons                  0          :
          ...................................................

 iter      E             dE          RMSdq      gap      omega  full diag
   1    -57.7335067 -0.577335E+02  0.510E+00    2.90       0.0  T
   2    -57.7420569 -0.855017E-02  0.299E+00    2.84       1.0  T
   3    -57.7235613  0.184956E-01  0.898E-01    3.13       1.0  T
   4    -57.7459960 -0.224347E-01  0.184E-01    3.07       1.0  T
   5    -57.7462731 -0.277031E-03  0.952E-02    3.10       1.0  T
   6    -57.7463024 -0.293298E-04  0.269E-02    3.12       1.0  T
   7    -57.7463112 -0.885679E-05  0.962E-03    3.11       1.7  T
   8    -57.7463119 -0.683231E-06  0.379E-03    3.11       4.2  T
   9    -57.7463120 -0.865708E-07  0.155E-03    3.11      10.3  T
  10    -57.7463120 -0.731265E-08  0.477E-04    3.11      33.6  T
  11    -57.7463120 -0.900201E-09  0.192E-04    3.11      83.5  T

   *** convergence criteria satisfied after 11 iterations ***

         #    Occupation            Energy/Eh            Energy/eV
      -------------------------------------------------------------
         1        2.0000           -0.7405754             -20.1521
       ...           ...                  ...                  ...
        44        2.0000           -0.4402661             -11.9803
        45        2.0000           -0.4356776             -11.8554
        46        2.0000           -0.4192012             -11.4070
        47        2.0000           -0.4105382             -11.1713
        48        2.0000           -0.4026414             -10.9564
        49        2.0000           -0.4010393             -10.9128
        50        2.0000           -0.3973873             -10.8135 (HOMO)
        51                         -0.2831497              -7.7049 (LUMO)
        52                         -0.1713032              -4.6614
        53                         -0.0463383              -1.2609
        54                         -0.0003482              -0.0095
        55                          0.0398526               1.0844
       ...                                ...                  ...
        90                          0.6090048              16.5719
      -------------------------------------------------------------
                  HL-Gap            0.1142376 Eh            3.1086 eV
             Fermi-level           -0.3402685 Eh           -9.2592 eV

 SCC (total)                   0 d,  0 h,  0 min,  0.044 sec
 SCC setup                      ...        0 min,  0.001 sec (  1.964%)
 Dispersion                     ...        0 min,  0.001 sec (  2.283%)
 classical contributions        ...        0 min,  0.001 sec (  1.428%)
 integral evaluation            ...        0 min,  0.002 sec (  5.296%)
 iterations                     ...        0 min,  0.034 sec ( 78.248%)
 molecular gradient             ...        0 min,  0.004 sec ( 10.229%)
 printout                       ...        0 min,  0.000 sec (  0.433%)

         :::::::::::::::::::::::::::::::::::::::::::::::::::::
         ::                     SUMMARY                     ::
         :::::::::::::::::::::::::::::::::::::::::::::::::::::
         :: total energy             -57.174114102938 Eh    ::
         :: gradient norm              0.147398290871 Eh/a0 ::
         :: HOMO-LUMO gap              3.108563325272 eV    ::
         ::.................................................::
         :: SCC energy               -57.746538436894 Eh    ::
         :: -> isotropic ES            0.098579985971 Eh    ::
         :: -> anisotropic ES          0.005076884543 Eh    ::
         :: -> anisotropic XC          0.008304722832 Eh    ::
         :: -> dispersion             -0.027058815844 Eh    ::
         :: repulsion energy           0.572424333956 Eh    ::
         :: add. restraining           0.000000000000 Eh    ::
         :: total charge              -0.000000000000 e     ::
         :::::::::::::::::::::::::::::::::::::::::::::::::::::

      ----------------------------------------------------------- 
     |                   =====================                   |
     |                        A N C O P T                        |
     |                   =====================                   |
     |               Approximate Normal Coordinate               |
     |                Rational Function Optimizer                |
      ----------------------------------------------------------- 
      ----------------------------------------------------------- 
     |                   =====================                   |
     |                        A N C O P T                        |
     |                   =====================                   |
     |               Approximate Normal Coordinate               |
     |                Rational Function Optimizer                |
      ----------------------------------------------------------- 

          ...................................................
          :                      SETUP                      :
          :.................................................:
          :   optimization level            normal          :
          :   max. optcycles                   200          :
          :   ANC micro-cycles                  20          :
          :   degrees of freedom               111          :
          :.................................................:
          :   RF solver                   davidson          :
          :   write xtbopt.log                true          :
          :   linear?                        false          :
          :   energy convergence         0.5000000E-05 Eh   :
          :   grad. convergence          0.1000000E-02 Eh/α :
          :   maxmium RF displ.          1.0000000          :
          :   Hlow (freq-cutoff)         0.1000000E-01      :
          :   Hmax (freq-cutoff)         5.0000000          :
          :   S6 in model hess.         20.0000000          :
          ...................................................

generating ANC from exact Hessian ...
Using Lindh-Hessian (1995)
 Shifting diagonal of input Hessian by   9.859956655336059E-003
 Lowest  eigenvalues of input Hessian
    0.000000    0.000000    0.000000    0.000000    0.000000    0.000000
    0.010000    0.010206    0.010547    0.010616    0.010975    0.011586
    0.012049    0.012658    0.013125    0.013995    0.015689    0.017054
 Highest eigenvalues
    1.578951    1.700904    1.726420    1.762637    1.948692    2.161450
 

........................................................................
.............................. CYCLE    1 ..............................
........................................................................

 iter      E             dE          RMSdq      gap      omega  full diag
   1    -57.7463120 -0.577463E+02  0.482E-05    3.11       0.0  T
   2    -57.7463120 -0.487432E-11  0.305E-05    3.11     525.3  T
   3    -57.7463120 -0.147082E-11  0.812E-06    3.11    1971.0  T
     SCC iter.                  ...        0 min,  0.007 sec
     gradient                   ...        0 min,  0.004 sec
 * total energy  :   -57.1741141 Eh     change       -0.1270166E-09 Eh
   gradient norm :     0.1473979 Eh/α   predicted     0.0000000E+00 (-100.00%)
   displ. norm   :     0.4065259 α      lambda       -0.3168748E-01
   maximum displ.:     0.1123045 α      in ANC's #41, #43, #22, ...

........................................................................
.............................. CYCLE    2 ..............................
........................................................................

 iter      E             dE          RMSdq      gap      omega  full diag
   1    -57.7876693 -0.577877E+02  0.291E-01    3.35       0.0  T
   2    -57.7878838 -0.214504E-03  0.172E-01    3.32       1.0  T
   3    -57.7878291  0.547180E-04  0.611E-02    3.29       1.0  T
   4    -57.7878800 -0.508470E-04  0.288E-02    3.29       1.0  T
   5    -57.7879046 -0.246853E-04  0.662E-03    3.29       2.4  T
   6    -57.7879050 -0.365006E-06  0.335E-03    3.29       4.8  T
   7    -57.7879051 -0.721904E-07  0.117E-03    3.29      13.6  T
   8    -57.7879051 -0.568710E-08  0.363E-04    3.29      44.1  T
   9    -57.7879051 -0.597879E-09  0.145E-04    3.29     110.6  T
     SCC iter.                  ...        0 min,  0.016 sec
     gradient                   ...        0 min,  0.004 sec
 * total energy  :   -57.1965440 Eh     change       -0.2242989E-01 Eh
   gradient norm :     0.0639331 Eh/α   predicted    -0.1848346E-01 ( -17.59%)
   displ. norm   :     0.3977731 α      lambda       -0.1137345E-01
   maximum displ.:     0.1333633 α      in ANC's #18, #22, #19, ...

........................................................................
.............................. CYCLE    3 ..............................
........................................................................

 iter      E             dE          RMSdq      gap      omega  full diag
   1    -57.8060418 -0.578060E+02  0.209E-01    3.46       0.0  T
   2    -57.8061599 -0.118084E-03  0.123E-01    3.45       1.0  T
   3    -57.8061207  0.391703E-04  0.530E-02    3.42       1.0  T
   4    -57.8061585 -0.377919E-04  0.224E-02    3.42       1.0  T
   5    -57.8061731 -0.146201E-04  0.396E-03    3.42       4.0  T
   6    -57.8061732 -0.101042E-06  0.158E-03    3.43      10.2  T
   7    -57.8061733 -0.805900E-08  0.676E-04    3.43      23.7  T
   8    -57.8061733 -0.209324E-08  0.211E-04    3.43      75.9  T
     SCC iter.                  ...        0 min,  0.013 sec
     gradient                   ...        0 min,  0.004 sec
 * total energy  :   -57.2035045 Eh     change       -0.6960495E-02 Eh
   gradient norm :     0.0161937 Eh/α   predicted    -0.6586497E-02 (  -5.37%)
   displ. norm   :     0.3236247 α      lambda       -0.2481723E-02
   maximum displ.:     0.1439817 α      in ANC's #18, #22, #19, ...

........................................................................
.............................. CYCLE    4 ..............................
........................................................................

 iter      E             dE          RMSdq      gap      omega  full diag
   1    -57.8057107 -0.578057E+02  0.102E-01    3.44       0.0  T
   2    -57.8057197 -0.898814E-05  0.608E-02    3.44       1.0  T
   3    -57.8057176  0.212609E-05  0.135E-02    3.43       1.2  T
   4    -57.8057204 -0.283548E-05  0.576E-03    3.44       2.8  T
   5    -57.8057212 -0.755658E-06  0.216E-03    3.44       7.4  T
   6    -57.8057212 -0.777751E-07  0.828E-04    3.44      19.3  T
   7    -57.8057212 -0.339239E-08  0.325E-04    3.44      49.2  T
     SCC iter.                  ...        0 min,  0.011 sec
     gradient                   ...        0 min,  0.004 sec
 * total energy  :   -57.2053378 Eh     change       -0.1833358E-02 Eh
   gradient norm :     0.0128529 Eh/α   predicted    -0.1370853E-02 ( -25.23%)
   displ. norm   :     0.4189555 α      lambda       -0.1994372E-02
   maximum displ.:     0.1969242 α      in ANC's #18, #10, #11, ...

........................................................................
.............................. CYCLE    5 ..............................
........................................................................

 iter      E             dE          RMSdq      gap      omega  full diag
   1    -57.8038029 -0.578038E+02  0.111E-01    3.44       0.0  T
   2    -57.8038115 -0.865875E-05  0.671E-02    3.44       1.0  T
   3    -57.8038084  0.311503E-05  0.148E-02    3.44       1.1  T
   4    -57.8038129 -0.445801E-05  0.641E-03    3.44       2.5  T
   5    -57.8038137 -0.821843E-06  0.229E-03    3.44       7.0  T
   6    -57.8038137 -0.572755E-07  0.933E-04    3.44      17.2  T
   7    -57.8038138 -0.535035E-08  0.354E-04    3.44      45.2  T
     SCC iter.                  ...        0 min,  0.012 sec
     gradient                   ...        0 min,  0.004 sec
 * total energy  :   -57.2066628 Eh     change       -0.1324931E-02 Eh
   gradient norm :     0.0122148 Eh/α   predicted    -0.1172225E-02 ( -11.53%)
   displ. norm   :     0.3436994 α      lambda       -0.1115758E-02
   maximum displ.:     0.1549823 α      in ANC's #18, #10, #9, ...

........................................................................
.............................. CYCLE    6 ..............................
........................................................................

 iter      E             dE          RMSdq      gap      omega  full diag
   1    -57.8039291 -0.578039E+02  0.896E-02    3.44       0.0  T
   2    -57.8039335 -0.442172E-05  0.541E-02    3.44       1.0  T
   3    -57.8039330  0.508505E-06  0.885E-03    3.44       1.8  T
   4    -57.8039343 -0.127125E-05  0.487E-03    3.44       3.3  T
   5    -57.8039348 -0.480225E-06  0.167E-03    3.44       9.6  T
   6    -57.8039348 -0.129161E-07  0.557E-04    3.44      28.8  T
   7    -57.8039348 -0.193882E-08  0.246E-04    3.44      65.2  T
     SCC iter.                  ...        0 min,  0.011 sec
     gradient                   ...        0 min,  0.004 sec
 * total energy  :   -57.2073894 Eh     change       -0.7266447E-03 Eh
   gradient norm :     0.0125606 Eh/α   predicted    -0.6237815E-03 ( -14.16%)
   displ. norm   :     0.3169578 α      lambda       -0.8663250E-03
   maximum displ.:     0.1273403 α      in ANC's #10, #9, #18, ...

........................................................................
.............................. CYCLE    7 ..............................
........................................................................

 iter      E             dE          RMSdq      gap      omega  full diag
   1    -57.8070572 -0.578071E+02  0.720E-02    3.46       0.0  T
   2    -57.8070609 -0.370855E-05  0.437E-02    3.46       1.0  T
   3    -57.8070575  0.332645E-05  0.124E-02    3.46       1.3  T
   4    -57.8070614 -0.385205E-05  0.448E-03    3.46       3.6  T
   5    -57.8070619 -0.467059E-06  0.139E-03    3.46      11.5  T
   6    -57.8070619 -0.423709E-08  0.397E-04    3.46      40.4  T
   7    -57.8070619 -0.910362E-09  0.178E-04    3.46      90.0  T
     SCC iter.                  ...        0 min,  0.012 sec
     gradient                   ...        0 min,  0.004 sec
 * total energy  :   -57.2080038 Eh     change       -0.6143720E-03 Eh
   gradient norm :     0.0087678 Eh/α   predicted    -0.4766822E-03 ( -22.41%)
   displ. norm   :     0.3502534 α      lambda       -0.6833548E-03
   maximum displ.:     0.1420665 α      in ANC's #10, #9, #18, ...

........................................................................
.............................. CYCLE    8 ..............................
........................................................................

 iter      E             dE          RMSdq      gap      omega  full diag
   1    -57.8081398 -0.578081E+02  0.830E-02    3.45       0.0  T
   2    -57.8081423 -0.248153E-05  0.500E-02    3.45       1.0  T
   3    -57.8081421  0.194549E-06  0.675E-03    3.46       2.4  T
   4    -57.8081429 -0.825771E-06  0.337E-03    3.46       4.7  T
   5    -57.8081431 -0.170126E-06  0.156E-03    3.45      10.2  T
   6    -57.8081431 -0.193461E-07  0.527E-04    3.45      30.4  T
   7    -57.8081431 -0.276913E-08  0.203E-04    3.45      78.7  T
     SCC iter.                  ...        0 min,  0.011 sec
     gradient                   ...        0 min,  0.004 sec
 * total energy  :   -57.2084905 Eh     change       -0.4867220E-03 Eh
   gradient norm :     0.0080724 Eh/α   predicted    -0.3835939E-03 ( -21.19%)
   displ. norm   :     0.3471440 α      lambda       -0.4899363E-03
   maximum displ.:     0.1460373 α      in ANC's #10, #7, #9, ...

........................................................................
.............................. CYCLE    9 ..............................
........................................................................

 iter      E             dE          RMSdq      gap      omega  full diag
   1    -57.8094248 -0.578094E+02  0.732E-02    3.48       0.0  T
   2    -57.8094299 -0.512387E-05  0.442E-02    3.47       1.0  T
   3    -57.8094300 -0.900489E-07  0.627E-03    3.47       2.6  T
   4    -57.8094302 -0.275070E-06  0.285E-03    3.47       5.6  T
   5    -57.8094304 -0.167385E-06  0.145E-03    3.47      11.0  T
   6    -57.8094304 -0.270136E-07  0.528E-04    3.47      30.3  T
   7    -57.8094304 -0.223908E-08  0.188E-04    3.47      85.3  T
     SCC iter.                  ...        0 min,  0.021 sec
     gradient                   ...        0 min,  0.007 sec
 * total energy  :   -57.2088081 Eh     change       -0.3175726E-03 Eh
   gradient norm :     0.0061725 Eh/α   predicted    -0.2744891E-03 ( -13.57%)
   displ. norm   :     0.2964766 α      lambda       -0.2799955E-03
   maximum displ.:     0.1221392 α      in ANC's #10, #7, #15, ...

........................................................................
.............................. CYCLE   10 ..............................
........................................................................

 iter      E             dE          RMSdq      gap      omega  full diag
   1    -57.8079961 -0.578080E+02  0.757E-02    3.46       0.0  T
   2    -57.8079995 -0.336304E-05  0.454E-02    3.46       1.0  T
   3    -57.8079996 -0.107279E-06  0.482E-03    3.46       3.3  T
   4    -57.8079998 -0.205009E-06  0.270E-03    3.46       5.9  T
   5    -57.8079999 -0.151269E-06  0.132E-03    3.46      12.1  T
   6    -57.8079999 -0.128918E-07  0.445E-04    3.46      36.0  T
   7    -57.8079999 -0.189836E-08  0.155E-04    3.46     103.4  T
     SCC iter.                  ...        0 min,  0.023 sec
     gradient                   ...        0 min,  0.007 sec
 * total energy  :   -57.2089777 Eh     change       -0.1696497E-03 Eh
   gradient norm :     0.0059778 Eh/α   predicted    -0.1523047E-03 ( -10.22%)
   displ. norm   :     0.1728188 α      lambda       -0.1542636E-03
   maximum displ.:     0.0668811 α      in ANC's #7, #10, #8, ...

........................................................................
.............................. CYCLE   11 ..............................
........................................................................

 iter      E             dE          RMSdq      gap      omega  full diag
   1    -57.8104273 -0.578104E+02  0.429E-02    3.47       0.0  T
   2    -57.8104285 -0.127303E-05  0.258E-02    3.47       1.0  T
   3    -57.8104282  0.367880E-06  0.475E-03    3.47       3.4  T
   4    -57.8104287 -0.563610E-06  0.111E-03    3.47      14.4  T
   5    -57.8104287 -0.353882E-08  0.758E-04    3.47      21.1  T
   6    -57.8104287 -0.104588E-07  0.357E-04    3.47      44.9  T
     SCC iter.                  ...        0 min,  0.019 sec
     gradient                   ...        0 min,  0.004 sec
 * total energy  :   -57.2090830 Eh     change       -0.1052579E-03 Eh
   gradient norm :     0.0035686 Eh/α   predicted    -0.7944652E-04 ( -24.52%)
   displ. norm   :     0.2522392 α      lambda       -0.1439227E-03
   maximum displ.:     0.0945088 α      in ANC's #10, #8, #7, ...

........................................................................
.............................. CYCLE   12 ..............................
........................................................................

 iter      E             dE          RMSdq      gap      omega  full diag
   1    -57.8092368 -0.578092E+02  0.586E-02    3.47       0.0  T
   2    -57.8092378 -0.963588E-06  0.350E-02    3.46       1.0  T
   3    -57.8092378 -0.663221E-07  0.295E-03    3.46       5.4  T
   4    -57.8092379 -0.661245E-07  0.200E-03    3.46       8.0  T
   5    -57.8092380 -0.850939E-07  0.804E-04    3.46      19.9  T
   6    -57.8092380 -0.609312E-08  0.316E-04    3.46      50.7  T
     SCC iter.                  ...        0 min,  0.010 sec
     gradient                   ...        0 min,  0.004 sec
 * total energy  :   -57.2091695 Eh     change       -0.8647985E-04 Eh
   gradient norm :     0.0047754 Eh/α   predicted    -0.7654033E-04 ( -11.49%)
   displ. norm   :     0.2448821 α      lambda       -0.1844227E-03
   maximum displ.:     0.1331504 α      in ANC's #8, #2, #4, ...

........................................................................
.............................. CYCLE   13 ..............................
........................................................................

 iter      E             dE          RMSdq      gap      omega  full diag
   1    -57.8119628 -0.578120E+02  0.613E-02    3.45       0.0  T
   2    -57.8119638 -0.985716E-06  0.366E-02    3.45       1.0  T
   3    -57.8119632  0.508982E-06  0.545E-03    3.45       2.9  T
   4    -57.8119639 -0.696334E-06  0.219E-03    3.45       7.3  T
   5    -57.8119640 -0.925438E-07  0.810E-04    3.45      19.8  T
   6    -57.8119640 -0.393008E-08  0.272E-04    3.45      59.0  T
     SCC iter.                  ...        0 min,  0.010 sec
     gradient                   ...        0 min,  0.004 sec
 * total energy  :   -57.2092597 Eh     change       -0.9019276E-04 Eh
   gradient norm :     0.0059868 Eh/α   predicted    -0.9774537E-04 (   8.37%)
   displ. norm   :     0.1824927 α      lambda       -0.1320371E-03
   maximum displ.:     0.0882419 α      in ANC's #8, #2, #6, ...

........................................................................
.............................. CYCLE   14 ..............................
........................................................................

 iter      E             dE          RMSdq      gap      omega  full diag
   1    -57.8115159 -0.578115E+02  0.437E-02    3.45       0.0  T
   2    -57.8115163 -0.380860E-06  0.260E-02    3.45       1.0  T
   3    -57.8115163 -0.237884E-07  0.226E-03    3.45       7.1  T
   4    -57.8115164 -0.624437E-07  0.127E-03    3.45      12.6  T
   5    -57.8115164 -0.255636E-07  0.659E-04    3.45      24.3  T
   6    -57.8115164 -0.388727E-08  0.182E-04    3.45      88.1  T
     SCC iter.                  ...        0 min,  0.011 sec
     gradient                   ...        0 min,  0.004 sec
 * total energy  :   -57.2093487 Eh     change       -0.8902979E-04 Eh
   gradient norm :     0.0052872 Eh/α   predicted    -0.6822488E-04 ( -23.37%)
   displ. norm   :     0.2533302 α      lambda       -0.1478241E-03
   maximum displ.:     0.1341314 α      in ANC's #8, #2, #6, ...

........................................................................
.............................. CYCLE   15 ..............................
........................................................................

 iter      E             dE          RMSdq      gap      omega  full diag
   1    -57.8089914 -0.578090E+02  0.542E-02    3.44       0.0  T
   2    -57.8089923 -0.937926E-06  0.324E-02    3.44       1.0  T
   3    -57.8089920  0.268492E-06  0.412E-03    3.44       3.9  T
   4    -57.8089924 -0.397580E-06  0.209E-03    3.44       7.7  T
   5    -57.8089925 -0.907184E-07  0.859E-04    3.44      18.6  T
   6    -57.8089925 -0.476182E-08  0.368E-04    3.44      43.5  T
     SCC iter.                  ...        0 min,  0.010 sec
     gradient                   ...        0 min,  0.004 sec
 * total energy  :   -57.2094371 Eh     change       -0.8840382E-04 Eh
   gradient norm :     0.0046059 Eh/α   predicted    -0.7865670E-04 ( -11.03%)
   displ. norm   :     0.1636449 α      lambda       -0.1030624E-03
   maximum displ.:     0.0716775 α      in ANC's #9, #2, #8, ...

........................................................................
.............................. CYCLE   16 ..............................
........................................................................

 iter      E             dE          RMSdq      gap      omega  full diag
   1    -57.8101899 -0.578102E+02  0.331E-02    3.43       0.0  T
   2    -57.8101912 -0.129316E-05  0.196E-02    3.43       1.0  T
   3    -57.8101909  0.242375E-06  0.462E-03    3.43       3.5  T
   4    -57.8101913 -0.331128E-06  0.190E-03    3.43       8.4  T
   5    -57.8101914 -0.867383E-07  0.809E-04    3.43      19.8  T
   6    -57.8101914 -0.102364E-07  0.318E-04    3.43      50.3  T
     SCC iter.                  ...        0 min,  0.010 sec
     gradient                   ...        0 min,  0.004 sec
 * total energy  :   -57.2094771 Eh     change       -0.3999089E-04 Eh
   gradient norm :     0.0044807 Eh/α   predicted    -0.5291961E-04 (  32.33%)
   displ. norm   :     0.1239304 α      lambda       -0.5775095E-04
   maximum displ.:     0.0610761 α      in ANC's #4, #8, #2, ...

........................................................................
.............................. CYCLE   17 ..............................
........................................................................

 iter      E             dE          RMSdq      gap      omega  full diag
   1    -57.8095528 -0.578096E+02  0.306E-02    3.43       0.0  T
   2    -57.8095534 -0.514014E-06  0.182E-02    3.43       1.0  T
   3    -57.8095534 -0.306337E-07  0.192E-03    3.43       8.3  T
   4    -57.8095534 -0.308266E-07  0.623E-04    3.43      25.7  T
   5    -57.8095534 -0.682860E-09  0.316E-04    3.43      50.7  T
     SCC iter.                  ...        0 min,  0.008 sec
     gradient                   ...        0 min,  0.004 sec
 * total energy  :   -57.2095154 Eh     change       -0.3832372E-04 Eh
   gradient norm :     0.0033141 Eh/α   predicted    -0.2932778E-04 ( -23.47%)
   displ. norm   :     0.1052782 α      lambda       -0.4350041E-04
   maximum displ.:     0.0593692 α      in ANC's #4, #2, #14, ...

........................................................................
.............................. CYCLE   18 ..............................
........................................................................

 iter      E             dE          RMSdq      gap      omega  full diag
   1    -57.8099873 -0.578100E+02  0.262E-02    3.44       0.0  T
   2    -57.8099877 -0.382462E-06  0.157E-02    3.44       1.0  T
   3    -57.8099872  0.521526E-06  0.446E-03    3.44       3.6  T
   4    -57.8099878 -0.585442E-06  0.136E-03    3.44      11.7  T
   5    -57.8099878 -0.463211E-07  0.421E-04    3.44      38.0  T
   6    -57.8099878 -0.822261E-09  0.192E-04    3.44      83.3  T
     SCC iter.                  ...        0 min,  0.009 sec
     gradient                   ...        0 min,  0.004 sec
 * total energy  :   -57.2095447 Eh     change       -0.2930961E-04 Eh
   gradient norm :     0.0021164 Eh/α   predicted    -0.2199472E-04 ( -24.96%)
   displ. norm   :     0.1369201 α      lambda       -0.3479669E-04
   maximum displ.:     0.0804666 α      in ANC's #4, #2, #6, ...

........................................................................
.............................. CYCLE   19 ..............................
........................................................................

 iter      E             dE          RMSdq      gap      omega  full diag
   1    -57.8105241 -0.578105E+02  0.316E-02    3.43       0.0  T
   2    -57.8105242 -0.173487E-06  0.188E-02    3.44       1.0  T
   3    -57.8105242  0.803971E-07  0.231E-03    3.44       6.9  T
   4    -57.8105243 -0.137159E-06  0.967E-04    3.44      16.6  T
   5    -57.8105243 -0.140022E-07  0.423E-04    3.44      37.8  T
     SCC iter.                  ...        0 min,  0.007 sec
     gradient                   ...        0 min,  0.004 sec
 * total energy  :   -57.2095715 Eh     change       -0.2675675E-04 Eh
   gradient norm :     0.0025794 Eh/α   predicted    -0.1772560E-04 ( -33.75%)
   displ. norm   :     0.2177814 α      lambda       -0.5141458E-04
   maximum displ.:     0.1294698 α      in ANC's #4, #2, #6, ...

........................................................................
.............................. CYCLE   20 ..............................
........................................................................

 iter      E             dE          RMSdq      gap      omega  full diag
   1    -57.8110106 -0.578110E+02  0.513E-02    3.44       0.0  T
   2    -57.8110110 -0.383128E-06  0.305E-02    3.44       1.0  T
   3    -57.8110109  0.299874E-07  0.279E-03    3.44       5.7  T
   4    -57.8110111 -0.166771E-06  0.147E-03    3.44      10.9  T
   5    -57.8110111 -0.292496E-07  0.655E-04    3.44      24.4  T
   6    -57.8110111 -0.298304E-08  0.210E-04    3.44      76.1  T
     SCC iter.                  ...        0 min,  0.009 sec
     gradient                   ...        0 min,  0.004 sec
 * total energy  :   -57.2096111 Eh     change       -0.3958412E-04 Eh
   gradient norm :     0.0028349 Eh/α   predicted    -0.2693075E-04 ( -31.97%)
   displ. norm   :     0.2914759 α      lambda       -0.5917891E-04
   maximum displ.:     0.1736927 α      in ANC's #4, #2, #6, ...
 * RMSD in coord.:     0.5904289 α      energy gain  -0.3549696E-01 Eh

generating ANC from exact Hessian ...
Using Lindh-Hessian (1995)
 Shifting diagonal of input Hessian by   9.856932474446948E-003
 Lowest  eigenvalues of input Hessian
    0.000000    0.000000    0.000000    0.000000    0.000000    0.000000
    0.010000    0.010265    0.010550    0.010723    0.011033    0.011600
    0.012072    0.012526    0.013119    0.013631    0.016312    0.016962
 Highest eigenvalues
    1.556081    1.590316    1.614925    1.768797    1.982138    2.376932
 

........................................................................
.............................. CYCLE   21 ..............................
........................................................................

 iter      E             dE          RMSdq      gap      omega  full diag
   1    -57.8107290 -0.578107E+02  0.687E-02    3.43       0.0  T
   2    -57.8107297 -0.652762E-06  0.409E-02    3.43       1.0  T
   3    -57.8107299 -0.235301E-06  0.254E-03    3.43       6.3  T
   4    -57.8107300 -0.214611E-07  0.171E-03    3.43       9.4  T
   5    -57.8107300 -0.370521E-07  0.814E-04    3.43      19.7  T
   6    -57.8107300 -0.918481E-08  0.249E-04    3.43      64.4  T
     SCC iter.                  ...        0 min,  0.009 sec
     gradient                   ...        0 min,  0.004 sec
 * total energy  :   -57.2096540 Eh     change       -0.4290816E-04 Eh
   gradient norm :     0.0028798 Eh/α   predicted     0.0000000E+00 (-100.00%)
   displ. norm   :     0.0292640 α      lambda       -0.2699670E-04
   maximum displ.:     0.0133599 α      in ANC's #2, #12, #9, ...

........................................................................
.............................. CYCLE   22 ..............................
........................................................................

 iter      E             dE          RMSdq      gap      omega  full diag
   1    -57.8110814 -0.578111E+02  0.120E-02    3.44       0.0  T
   2    -57.8110814 -0.807502E-07  0.711E-03    3.44       2.3  T
   3    -57.8110814  0.477424E-07  0.147E-03    3.44      10.9  T
   4    -57.8110814 -0.507612E-07  0.580E-04    3.44      27.6  T
   5    -57.8110815 -0.101255E-07  0.154E-04    3.44     104.3  T
     SCC iter.                  ...        0 min,  0.008 sec
     gradient                   ...        0 min,  0.004 sec
 * total energy  :   -57.2096738 Eh     change       -0.1982157E-04 Eh
   gradient norm :     0.0011554 Eh/α   predicted    -0.1355903E-04 ( -31.59%)
   displ. norm   :     0.0846101 α      lambda       -0.2428375E-04
   maximum displ.:     0.0447418 α      in ANC's #2, #12, #15, ...

........................................................................
.............................. CYCLE   23 ..............................
........................................................................

 iter      E             dE          RMSdq      gap      omega  full diag
   1    -57.8113042 -0.578113E+02  0.234E-02    3.44       0.0  T
   2    -57.8113044 -0.187571E-06  0.139E-02    3.44       1.1  T
   3    -57.8113044 -0.259944E-07  0.108E-03    3.44      14.8  T
   4    -57.8113044 -0.101330E-07  0.569E-04    3.44      28.2  T
   5    -57.8113044 -0.184751E-08  0.380E-04    3.44      42.1  T
     SCC iter.                  ...        0 min,  0.008 sec
     gradient                   ...        0 min,  0.004 sec
 * total energy  :   -57.2096910 Eh     change       -0.1716193E-04 Eh
   gradient norm :     0.0020937 Eh/α   predicted    -0.1218117E-04 ( -29.02%)
   displ. norm   :     0.0373215 α      lambda       -0.1279441E-04
   maximum displ.:     0.0225448 α      in ANC's #2, #9, #7, ...

........................................................................
.............................. CYCLE   24 ..............................
........................................................................

 iter      E             dE          RMSdq      gap      omega  full diag
   1    -57.8111373 -0.578111E+02  0.107E-02    3.43       0.0  T
   2    -57.8111373 -0.191621E-07  0.640E-03    3.43       2.5  T
   3    -57.8111373  0.156734E-07  0.937E-04    3.43      17.1  T
   4    -57.8111373 -0.259756E-07  0.312E-04    3.43      51.3  T
     SCC iter.                  ...        0 min,  0.006 sec
     gradient                   ...        0 min,  0.004 sec
 * total energy  :   -57.2097013 Eh     change       -0.1029333E-04 Eh
   gradient norm :     0.0017579 Eh/α   predicted    -0.6406723E-05 ( -37.76%)
   displ. norm   :     0.1572002 α      lambda       -0.3021179E-04
   maximum displ.:     0.0918117 α      in ANC's #2, #7, #4, ...

........................................................................
.............................. CYCLE   25 ..............................
........................................................................

 iter      E             dE          RMSdq      gap      omega  full diag
   1    -57.8102420 -0.578102E+02  0.395E-02    3.43       0.0  T
   2    -57.8102423 -0.344756E-06  0.236E-02    3.43       1.0  T
   3    -57.8102421  0.211646E-06  0.354E-03    3.43       4.5  T
   4    -57.8102424 -0.341845E-06  0.136E-03    3.43      11.8  T
   5    -57.8102425 -0.259458E-07  0.638E-04    3.43      25.1  T
   6    -57.8102425 -0.109033E-08  0.164E-04    3.43      97.5  T
     SCC iter.                  ...        0 min,  0.014 sec
     gradient                   ...        0 min,  0.011 sec
 * total energy  :   -57.2097288 Eh     change       -0.2757693E-04 Eh
   gradient norm :     0.0018454 Eh/α   predicted    -0.1527248E-04 ( -44.62%)
   displ. norm   :     0.1117839 α      lambda       -0.1464913E-04
   maximum displ.:     0.0679306 α      in ANC's #2, #4, #7, ...

........................................................................
.............................. CYCLE   26 ..............................
........................................................................

 iter      E             dE          RMSdq      gap      omega  full diag
   1    -57.8103405 -0.578103E+02  0.260E-02    3.43       0.0  T
   2    -57.8103406 -0.110692E-06  0.155E-02    3.43       1.0  T
   3    -57.8103406 -0.262139E-07  0.130E-03    3.43      12.3  T
   4    -57.8103406 -0.227231E-07  0.795E-04    3.43      20.1  T
   5    -57.8103406 -0.768254E-08  0.352E-04    3.43      45.5  T
     SCC iter.                  ...        0 min,  0.012 sec
     gradient                   ...        0 min,  0.007 sec
 * total energy  :   -57.2097462 Eh     change       -0.1732481E-04 Eh
   gradient norm :     0.0015398 Eh/α   predicted    -0.7366592E-05 ( -57.48%)
   displ. norm   :     0.1662343 α      lambda       -0.2064992E-04
   maximum displ.:     0.1025935 α      in ANC's #2, #4, #6, ...

........................................................................
.............................. CYCLE   27 ..............................
........................................................................

 iter      E             dE          RMSdq      gap      omega  full diag
   1    -57.8106999 -0.578107E+02  0.406E-02    3.43       0.0  T
   2    -57.8107001 -0.221560E-06  0.242E-02    3.43       1.0  T
   3    -57.8106999  0.181853E-06  0.328E-03    3.43       4.9  T
   4    -57.8107002 -0.310468E-06  0.116E-03    3.43      13.8  T
   5    -57.8107002 -0.727140E-08  0.492E-04    3.43      32.5  T
   6    -57.8107002 -0.183703E-08  0.147E-04    3.43     109.2  T
     SCC iter.                  ...        0 min,  0.010 sec
     gradient                   ...        0 min,  0.004 sec
 * total energy  :   -57.2097686 Eh     change       -0.2244946E-04 Eh
   gradient norm :     0.0010526 Eh/α   predicted    -0.1046196E-04 ( -53.40%)
   displ. norm   :     0.1682144 α      lambda       -0.1659070E-04
   maximum displ.:     0.1082489 α      in ANC's #2, #4, #6, ...

........................................................................
.............................. CYCLE   28 ..............................
........................................................................

 iter      E             dE          RMSdq      gap      omega  full diag
   1    -57.8110597 -0.578111E+02  0.399E-02    3.43       0.0  T
   2    -57.8110600 -0.217571E-06  0.238E-02    3.43       1.0  T
   3    -57.8110599  0.810708E-07  0.272E-03    3.43       5.9  T
   4    -57.8110601 -0.184760E-06  0.114E-03    3.43      14.0  T
   5    -57.8110601 -0.126332E-07  0.456E-04    3.43      35.1  T
   6    -57.8110601 -0.106228E-08  0.130E-04    3.43     123.3  T
     SCC iter.                  ...        0 min,  0.010 sec
     gradient                   ...        0 min,  0.004 sec
 * total energy  :   -57.2097873 Eh     change       -0.1874552E-04 Eh
   gradient norm :     0.0010363 Eh/α   predicted    -0.8402559E-05 ( -55.18%)
   displ. norm   :     0.1454445 α      lambda       -0.1309925E-04
   maximum displ.:     0.0972232 α      in ANC's #2, #4, #6, ...

........................................................................
.............................. CYCLE   29 ..............................
........................................................................

 iter      E             dE          RMSdq      gap      omega  full diag
   1    -57.8112566 -0.578113E+02  0.355E-02    3.43       0.0  T
   2    -57.8112567 -0.141911E-06  0.212E-02    3.43       1.0  T
   3    -57.8112568 -0.498879E-07  0.131E-03    3.43      12.2  T
   4    -57.8112568 -0.695254E-08  0.904E-04    3.43      17.7  T
   5    -57.8112568 -0.120999E-07  0.335E-04    3.43      47.9  T
     SCC iter.                  ...        0 min,  0.008 sec
     gradient                   ...        0 min,  0.004 sec
 * total energy  :   -57.2098041 Eh     change       -0.1679147E-04 Eh
   gradient norm :     0.0008617 Eh/α   predicted    -0.6611483E-05 ( -60.63%)
   displ. norm   :     0.1481126 α      lambda       -0.1374692E-04
   maximum displ.:     0.0998806 α      in ANC's #2, #6, #5, ...

........................................................................
.............................. CYCLE   30 ..............................
........................................................................

 iter      E             dE          RMSdq      gap      omega  full diag
   1    -57.8113603 -0.578114E+02  0.354E-02    3.43       0.0  T
   2    -57.8113604 -0.128206E-06  0.211E-02    3.43       1.0  T
   3    -57.8113604 -0.540247E-07  0.110E-03    3.43      14.5  T
   4    -57.8113604 -0.217428E-08  0.571E-04    3.43      28.0  T
   5    -57.8113605 -0.168165E-08  0.258E-04    3.43      62.1  T
     SCC iter.                  ...        0 min,  0.009 sec
     gradient                   ...        0 min,  0.003 sec
 * total energy  :   -57.2098224 Eh     change       -0.1822087E-04 Eh
   gradient norm :     0.0007367 Eh/α   predicted    -0.6944417E-05 ( -61.89%)
   displ. norm   :     0.1743936 α      lambda       -0.1598372E-04
   maximum displ.:     0.1180951 α      in ANC's #2, #5, #1, ...

........................................................................
.............................. CYCLE   31 ..............................
........................................................................

 iter      E             dE          RMSdq      gap      omega  full diag
   1    -57.8113496 -0.578113E+02  0.400E-02    3.42       0.0  T
   2    -57.8113498 -0.165347E-06  0.239E-02    3.42       1.0  T
   3    -57.8113498  0.776642E-08  0.194E-03    3.42       8.2  T
   4    -57.8113498 -0.719106E-07  0.102E-03    3.42      15.7  T
   5    -57.8113498 -0.125223E-07  0.315E-04    3.42      50.8  T
   6    -57.8113498 -0.867864E-09  0.109E-04    3.42     146.6  T
     SCC iter.                  ...        0 min,  0.010 sec
     gradient                   ...        0 min,  0.004 sec
 * total energy  :   -57.2098433 Eh     change       -0.2090325E-04 Eh
   gradient norm :     0.0007943 Eh/α   predicted    -0.8100970E-05 ( -61.25%)
   displ. norm   :     0.2082575 α      lambda       -0.1752328E-04
   maximum displ.:     0.1390233 α      in ANC's #2, #5, #1, ...

........................................................................
.............................. CYCLE   32 ..............................
........................................................................

 iter      E             dE          RMSdq      gap      omega  full diag
   1    -57.8109074 -0.578109E+02  0.476E-02    3.41       0.0  T
   2    -57.8109076 -0.235117E-06  0.284E-02    3.41       1.0  T
   3    -57.8109075  0.131912E-06  0.299E-03    3.41       5.4  T
   4    -57.8109077 -0.231665E-06  0.118E-03    3.41      13.5  T
   5    -57.8109077 -0.134054E-07  0.390E-04    3.41      41.0  T
   6    -57.8109077 -0.844409E-09  0.123E-04    3.41     130.6  T
     SCC iter.                  ...        0 min,  0.010 sec
     gradient                   ...        0 min,  0.004 sec
 * total energy  :   -57.2098657 Eh     change       -0.2245270E-04 Eh
   gradient norm :     0.0009040 Eh/α   predicted    -0.8933867E-05 ( -60.21%)
   displ. norm   :     0.2497866 α      lambda       -0.2139891E-04
   maximum displ.:     0.1671628 α      in ANC's #2, #5, #1, ...

........................................................................
.............................. CYCLE   33 ..............................
........................................................................

 iter      E             dE          RMSdq      gap      omega  full diag
   1    -57.8113995 -0.578114E+02  0.545E-02    3.41       0.0  T
   2    -57.8113999 -0.335457E-06  0.325E-02    3.41       1.0  T
   3    -57.8113998  0.363100E-07  0.276E-03    3.41       5.8  T
   4    -57.8114000 -0.145134E-06  0.143E-03    3.41      11.2  T
   5    -57.8114000 -0.278653E-07  0.543E-04    3.41      29.5  T
   6    -57.8114000 -0.260268E-08  0.148E-04    3.41     108.2  T
     SCC iter.                  ...        0 min,  0.011 sec
     gradient                   ...        0 min,  0.003 sec
 * total energy  :   -57.2098903 Eh     change       -0.2463288E-04 Eh
   gradient norm :     0.0012895 Eh/α   predicted    -0.1099655E-04 ( -55.36%)
   displ. norm   :     0.2967554 α      lambda       -0.2191683E-04
   maximum displ.:     0.1977145 α      in ANC's #2, #5, #1, ...

........................................................................
.............................. CYCLE   34 ..............................
........................................................................

 iter      E             dE          RMSdq      gap      omega  full diag
   1    -57.8100292 -0.578100E+02  0.670E-02    3.40       0.0  T
   2    -57.8100299 -0.707366E-06  0.401E-02    3.40       1.0  T
   3    -57.8100293  0.593396E-06  0.533E-03    3.40       3.0  T
   4    -57.8100301 -0.805964E-06  0.200E-03    3.40       8.0  T
   5    -57.8100302 -0.614042E-07  0.820E-04    3.40      19.5  T
   6    -57.8100302 -0.218438E-08  0.223E-04    3.40      71.9  T
     SCC iter.                  ...        0 min,  0.011 sec
     gradient                   ...        0 min,  0.003 sec
 * total energy  :   -57.2099139 Eh     change       -0.2359531E-04 Eh
   gradient norm :     0.0019525 Eh/α   predicted    -0.1139090E-04 ( -51.72%)
   displ. norm   :     0.3628185 α      lambda       -0.2382355E-04
   maximum displ.:     0.2448630 α      in ANC's #2, #5, #1, ...

........................................................................
.............................. CYCLE   35 ..............................
........................................................................

 iter      E             dE          RMSdq      gap      omega  full diag
   1    -57.8097049 -0.578097E+02  0.818E-02    3.39       0.0  T
   2    -57.8097056 -0.703477E-06  0.488E-02    3.39       1.0  T
   3    -57.8097054  0.170236E-06  0.453E-03    3.39       3.5  T
   4    -57.8097059 -0.458312E-06  0.207E-03    3.39       7.7  T
   5    -57.8097059 -0.454130E-07  0.744E-04    3.39      21.5  T
   6    -57.8097059 -0.535413E-08  0.239E-04    3.39      66.9  T
     SCC iter.                  ...        0 min,  0.025 sec
     gradient                   ...        0 min,  0.003 sec
 * total energy  :   -57.2099391 Eh     change       -0.2516912E-04 Eh
   gradient norm :     0.0021690 Eh/α   predicted    -0.1260894E-04 ( -49.90%)
   displ. norm   :     0.1844533 α      lambda       -0.2513740E-04
   maximum displ.:     0.1242479 α      in ANC's #2, #1, #5, ...

........................................................................
.............................. CYCLE   36 ..............................
........................................................................

 iter      E             dE          RMSdq      gap      omega  full diag
   1    -57.8106364 -0.578106E+02  0.418E-02    3.39       0.0  T
   2    -57.8106367 -0.220845E-06  0.248E-02    3.39       1.0  T
   3    -57.8106366  0.882220E-07  0.266E-03    3.39       6.0  T
   4    -57.8106367 -0.178311E-06  0.113E-03    3.39      14.1  T
   5    -57.8106368 -0.151305E-07  0.427E-04    3.39      37.5  T
   6    -57.8106368 -0.482210E-09  0.118E-04    3.39     135.6  T
     SCC iter.                  ...        0 min,  0.012 sec
     gradient                   ...        0 min,  0.004 sec
 * total energy  :   -57.2099594 Eh     change       -0.2031110E-04 Eh
   gradient norm :     0.0018560 Eh/α   predicted    -0.1299869E-04 ( -36.00%)
   displ. norm   :     0.5784866 α      lambda       -0.3947382E-04
   maximum displ.:     0.3920041 α      in ANC's #2, #1, #5, ...

........................................................................
.............................. CYCLE   37 ..............................
........................................................................

 iter      E             dE          RMSdq      gap      omega  full diag
   1    -57.8096889 -0.578097E+02  0.136E-01    3.39       0.0  T
   2    -57.8096910 -0.208013E-05  0.809E-02    3.39       1.0  T
   3    -57.8096912 -0.233217E-06  0.630E-03    3.39       2.5  T
   4    -57.8096918 -0.613614E-06  0.363E-03    3.39       4.4  T
   5    -57.8096920 -0.173935E-06  0.123E-03    3.39      13.1  T
   6    -57.8096920 -0.115027E-07  0.377E-04    3.39      42.4  T
   7    -57.8096920 -0.558387E-09  0.134E-04    3.39     119.5  T
     SCC iter.                  ...        0 min,  0.024 sec
     gradient                   ...        0 min,  0.006 sec
 * total energy  :   -57.2099942 Eh     change       -0.3477533E-04 Eh
   gradient norm :     0.0026863 Eh/α   predicted    -0.2267510E-04 ( -34.80%)
   displ. norm   :     0.1242758 α      lambda       -0.3822320E-04
   maximum displ.:     0.0683810 α      in ANC's #2, #1, #5, ...

........................................................................
.............................. CYCLE   38 ..............................
........................................................................

 iter      E             dE          RMSdq      gap      omega  full diag
   1    -57.8123115 -0.578123E+02  0.326E-02    3.40       0.0  T
   2    -57.8123118 -0.297702E-06  0.194E-02    3.40       1.0  T
   3    -57.8123099  0.189710E-05  0.808E-03    3.40       2.0  T
   4    -57.8123120 -0.216402E-05  0.108E-03    3.40      14.8  T
   5    -57.8123121 -0.103882E-07  0.564E-04    3.40      28.4  T
   6    -57.8123121 -0.615927E-09  0.198E-04    3.40      80.8  T
     SCC iter.                  ...        0 min,  0.012 sec
     gradient                   ...        0 min,  0.004 sec
 * total energy  :   -57.2100152 Eh     change       -0.2098359E-04 Eh
   gradient norm :     0.0016589 Eh/α   predicted    -0.1940821E-04 (  -7.51%)
   displ. norm   :     0.3984142 α      lambda       -0.2386966E-04
   maximum displ.:     0.2660646 α      in ANC's #2, #1, #5, ...

........................................................................
.............................. CYCLE   39 ..............................
........................................................................

 iter      E             dE          RMSdq      gap      omega  full diag
   1    -57.8104177 -0.578104E+02  0.976E-02    3.39       0.0  T
   2    -57.8104190 -0.133979E-05  0.581E-02    3.40       1.0  T
   3    -57.8104188  0.171975E-06  0.552E-03    3.40       2.9  T
   4    -57.8104195 -0.681738E-06  0.287E-03    3.40       5.6  T
   5    -57.8104196 -0.113547E-06  0.123E-03    3.40      13.1  T
   6    -57.8104196 -0.652579E-08  0.325E-04    3.40      49.3  T
   7    -57.8104196 -0.105026E-08  0.146E-04    3.40     109.6  T
     SCC iter.                  ...        0 min,  0.012 sec
     gradient                   ...        0 min,  0.004 sec
 * total energy  :   -57.2100376 Eh     change       -0.2244279E-04 Eh
   gradient norm :     0.0031091 Eh/α   predicted    -0.1277713E-04 ( -43.07%)
   displ. norm   :     0.1384373 α      lambda       -0.2108450E-04
   maximum displ.:     0.0876620 α      in ANC's #2, #1, #5, ...

........................................................................
.............................. CYCLE   40 ..............................
........................................................................

 iter      E             dE          RMSdq      gap      omega  full diag
   1    -57.8104622 -0.578105E+02  0.354E-02    3.40       0.0  T
   2    -57.8104624 -0.247738E-06  0.209E-02    3.40       1.0  T
   3    -57.8104624  0.436089E-07  0.217E-03    3.40       7.4  T
   4    -57.8104625 -0.106563E-06  0.111E-03    3.40      14.5  T
   5    -57.8104625 -0.224057E-07  0.541E-04    3.40      29.6  T
   6    -57.8104625 -0.175977E-08  0.185E-04    3.40      86.6  T
     SCC iter.                  ...        0 min,  0.009 sec
     gradient                   ...        0 min,  0.004 sec
 * total energy  :   -57.2100540 Eh     change       -0.1638253E-04 Eh
   gradient norm :     0.0019004 Eh/α   predicted    -0.1074940E-04 ( -34.38%)
   displ. norm   :     0.3071387 α      lambda       -0.3271135E-04
   maximum displ.:     0.1858496 α      in ANC's #2, #1, #5, ...

........................................................................
.............................. CYCLE   41 ..............................
........................................................................

 iter      E             dE          RMSdq      gap      omega  full diag
   1    -57.8111852 -0.578112E+02  0.829E-02    3.40       0.0  T
   2    -57.8111860 -0.809397E-06  0.489E-02    3.40       1.0  T
   3    -57.8111860 -0.208986E-08  0.450E-03    3.40       3.6  T
   4    -57.8111864 -0.437685E-06  0.219E-03    3.40       7.3  T
   5    -57.8111865 -0.406609E-07  0.101E-03    3.40      15.9  T
   6    -57.8111865 -0.970722E-08  0.242E-04    3.40      66.2  T
   7    -57.8111865 -0.487205E-09  0.104E-04    3.40     153.8  T
     SCC iter.                  ...        0 min,  0.014 sec
     gradient                   ...        0 min,  0.005 sec
 * total energy  :   -57.2100790 Eh     change       -0.2495620E-04 Eh
   gradient norm :     0.0025590 Eh/α   predicted    -0.1704641E-04 ( -31.69%)
   displ. norm   :     0.1287299 α      lambda       -0.1583875E-04
   maximum displ.:     0.0855105 α      in ANC's #2, #1, #5, ...

........................................................................
.............................. CYCLE   42 ..............................
........................................................................

 iter      E             dE          RMSdq      gap      omega  full diag
   1    -57.8107033 -0.578107E+02  0.295E-02    3.41       0.0  T
   2    -57.8107035 -0.230093E-06  0.175E-02    3.41       1.0  T
   3    -57.8107032  0.361494E-06  0.362E-03    3.41       4.4  T
   4    -57.8107036 -0.417762E-06  0.101E-03    3.41      15.9  T
   5    -57.8107036 -0.211404E-07  0.407E-04    3.41      39.3  T
   6    -57.8107036 -0.468731E-09  0.167E-04    3.41      95.7  T
     SCC iter.                  ...        0 min,  0.010 sec
     gradient                   ...        0 min,  0.004 sec
 * total energy  :   -57.2100906 Eh     change       -0.1159131E-04 Eh
   gradient norm :     0.0019743 Eh/α   predicted    -0.8053143E-05 ( -30.52%)
   displ. norm   :     0.2070704 α      lambda       -0.2870581E-04
   maximum displ.:     0.1199133 α      in ANC's #2, #1, #5, ...
 * RMSD in coord.:     0.6273923 α      energy gain  -0.4794902E-03 Eh

generating ANC from exact Hessian ...
Using Lindh-Hessian (1995)
 Shifting diagonal of input Hessian by   9.866342523166384E-003
 Lowest  eigenvalues of input Hessian
    0.000000    0.000000    0.000000    0.000000    0.000000    0.000000
    0.010000    0.010277    0.010508    0.010706    0.011055    0.011626
    0.011979    0.012547    0.013358    0.013783    0.016483    0.016941
 Highest eigenvalues
    1.555437    1.596502    1.611494    1.770579    1.984594    2.385613
 

........................................................................
.............................. CYCLE   43 ..............................
........................................................................

 iter      E             dE          RMSdq      gap      omega  full diag
   1    -57.8115897 -0.578116E+02  0.496E-02    3.41       0.0  T
   2    -57.8115905 -0.886880E-06  0.294E-02    3.41       1.0  T
   3    -57.8115902  0.374387E-06  0.434E-03    3.41       3.7  T
   4    -57.8115906 -0.456643E-06  0.201E-03    3.41       8.0  T
   5    -57.8115907 -0.105676E-06  0.786E-04    3.41      20.4  T
   6    -57.8115907 -0.309652E-08  0.299E-04    3.41      53.5  T
     SCC iter.                  ...        0 min,  0.010 sec
     gradient                   ...        0 min,  0.005 sec
 * total energy  :   -57.2101140 Eh     change       -0.2349218E-04 Eh
   gradient norm :     0.0038392 Eh/α   predicted     0.0000000E+00 (-100.00%)
   displ. norm   :     0.0211904 α      lambda       -0.1447485E-04
   maximum displ.:     0.0092165 α      in ANC's #12, #2, #3, ...

........................................................................
.............................. CYCLE   44 ..............................
........................................................................

 iter      E             dE          RMSdq      gap      omega  full diag
   1    -57.8116313 -0.578116E+02  0.897E-03    3.40       0.0  T
   2    -57.8116317 -0.383389E-06  0.537E-03    3.41       3.0  T
   3    -57.8116317  0.225519E-09  0.190E-03    3.41       8.4  T
   4    -57.8116317 -0.162262E-07  0.334E-04    3.41      48.0  T
   5    -57.8116317 -0.272330E-08  0.163E-04    3.41      98.3  T
     SCC iter.                  ...        0 min,  0.008 sec
     gradient                   ...        0 min,  0.005 sec
 * total energy  :   -57.2101282 Eh     change       -0.1412786E-04 Eh
   gradient norm :     0.0009966 Eh/α   predicted    -0.1060822E-04 ( -24.91%)
   displ. norm   :     0.0482185 α      lambda       -0.1049562E-04
   maximum displ.:     0.0236028 α      in ANC's #2, #12, #3, ...

........................................................................
.............................. CYCLE   45 ..............................
........................................................................

 iter      E             dE          RMSdq      gap      omega  full diag
   1    -57.8117288 -0.578117E+02  0.134E-02    3.40       0.0  T
   2    -57.8117291 -0.330450E-06  0.796E-03    3.40       2.0  T
   3    -57.8117291  0.130245E-08  0.162E-03    3.40       9.9  T
   4    -57.8117291 -0.153922E-07  0.488E-04    3.40      32.8  T
   5    -57.8117291 -0.435411E-08  0.251E-04    3.40      63.7  T
     SCC iter.                  ...        0 min,  0.008 sec
     gradient                   ...        0 min,  0.005 sec
 * total energy  :   -57.2101360 Eh     change       -0.7803902E-05 Eh
   gradient norm :     0.0019363 Eh/α   predicted    -0.5254779E-05 ( -32.66%)
   displ. norm   :     0.0451700 α      lambda       -0.7011114E-05
   maximum displ.:     0.0233991 α      in ANC's #2, #3, #12, ...

........................................................................
.............................. CYCLE   46 ..............................
........................................................................

 iter      E             dE          RMSdq      gap      omega  full diag
   1    -57.8117516 -0.578118E+02  0.109E-02    3.40       0.0  T
   2    -57.8117516 -0.276743E-07  0.652E-03    3.40       2.5  T
   3    -57.8117516  0.444918E-08  0.801E-04    3.40      20.0  T
   4    -57.8117516 -0.135481E-07  0.318E-04    3.40      50.4  T
     SCC iter.                  ...        0 min,  0.006 sec
     gradient                   ...        0 min,  0.005 sec
 * total energy  :   -57.2101422 Eh     change       -0.6181621E-05 Eh
   gradient norm :     0.0015687 Eh/α   predicted    -0.3513591E-05 ( -43.16%)
   displ. norm   :     0.0557536 α      lambda       -0.7281697E-05
   maximum displ.:     0.0316396 α      in ANC's #2, #3, #4, ...

........................................................................
.............................. CYCLE   47 ..............................
........................................................................

 iter      E             dE          RMSdq      gap      omega  full diag
   1    -57.8117188 -0.578117E+02  0.128E-02    3.41       0.0  T
   2    -57.8117189 -0.104697E-06  0.766E-03    3.41       2.1  T
   3    -57.8117189  0.354555E-07  0.146E-03    3.41      11.0  T
   4    -57.8117189 -0.498268E-07  0.546E-04    3.40      29.3  T
   5    -57.8117189 -0.577361E-08  0.260E-04    3.41      61.6  T
     SCC iter.                  ...        0 min,  0.015 sec
     gradient                   ...        0 min,  0.007 sec
 * total energy  :   -57.2101492 Eh     change       -0.7039756E-05 Eh
   gradient norm :     0.0007458 Eh/α   predicted    -0.3646703E-05 ( -48.20%)
   displ. norm   :     0.0562450 α      lambda       -0.4323916E-05
   maximum displ.:     0.0336964 α      in ANC's #2, #3, #1, ...

........................................................................
.............................. CYCLE   48 ..............................
........................................................................

 iter      E             dE          RMSdq      gap      omega  full diag
   1    -57.8116753 -0.578117E+02  0.131E-02    3.40       0.0  T
   2    -57.8116753 -0.319699E-07  0.774E-03    3.41       2.1  T
   3    -57.8116753  0.294742E-08  0.794E-04    3.41      20.2  T
   4    -57.8116753 -0.130656E-07  0.441E-04    3.41      36.3  T
     SCC iter.                  ...        0 min,  0.012 sec
     gradient                   ...        0 min,  0.005 sec
 * total energy  :   -57.2101550 Eh     change       -0.5771643E-05 Eh
   gradient norm :     0.0007154 Eh/α   predicted    -0.2165804E-05 ( -62.48%)
   displ. norm   :     0.1216504 α      lambda       -0.9766128E-05
   maximum displ.:     0.0711389 α      in ANC's #2, #3, #1, ...

........................................................................
.............................. CYCLE   49 ..............................
........................................................................

 iter      E             dE          RMSdq      gap      omega  full diag
   1    -57.8116234 -0.578116E+02  0.280E-02    3.40       0.0  T
   2    -57.8116236 -0.131671E-06  0.166E-02    3.40       1.0  T
   3    -57.8116236 -0.121799E-07  0.144E-03    3.40      11.2  T
   4    -57.8116236 -0.370109E-07  0.860E-04    3.40      18.6  T
   5    -57.8116236 -0.103170E-07  0.435E-04    3.40      36.8  T
     SCC iter.                  ...        0 min,  0.015 sec
     gradient                   ...        0 min,  0.003 sec
 * total energy  :   -57.2101676 Eh     change       -0.1260967E-04 Eh
   gradient norm :     0.0008524 Eh/α   predicted    -0.4920499E-05 ( -60.98%)
   displ. norm   :     0.2102470 α      lambda       -0.1395238E-04
   maximum displ.:     0.1225918 α      in ANC's #2, #3, #1, ...

........................................................................
.............................. CYCLE   50 ..............................
........................................................................

 iter      E             dE          RMSdq      gap      omega  full diag
   1    -57.8113879 -0.578114E+02  0.464E-02    3.40       0.0  T
   2    -57.8113882 -0.318666E-06  0.275E-02    3.40       1.0  T
   3    -57.8113883 -0.788650E-07  0.210E-03    3.40       7.6  T
   4    -57.8113883 -0.717968E-07  0.121E-03    3.40      13.3  T
   5    -57.8113883 -0.299586E-08  0.753E-04    3.40      21.3  T
   6    -57.8113883 -0.111435E-07  0.212E-04    3.40      75.7  T
     SCC iter.                  ...        0 min,  0.011 sec
     gradient                   ...        0 min,  0.004 sec
 * total energy  :   -57.2101841 Eh     change       -0.1655553E-04 Eh
   gradient norm :     0.0013353 Eh/α   predicted    -0.7117330E-05 ( -57.01%)
   displ. norm   :     0.1999571 α      lambda       -0.1087728E-04
   maximum displ.:     0.1174107 α      in ANC's #2, #3, #1, ...

........................................................................
.............................. CYCLE   51 ..............................
........................................................................

 iter      E             dE          RMSdq      gap      omega  full diag
   1    -57.8113953 -0.578114E+02  0.428E-02    3.40       0.0  T
   2    -57.8113955 -0.218079E-06  0.253E-02    3.40       1.0  T
   3    -57.8113956 -0.910843E-07  0.172E-03    3.40       9.3  T
   4    -57.8113957 -0.250576E-07  0.108E-03    3.40      14.9  T
   5    -57.8113957 -0.523497E-08  0.564E-04    3.40      28.4  T
   6    -57.8113957 -0.653706E-08  0.154E-04    3.40     103.7  T
     SCC iter.                  ...        0 min,  0.011 sec
     gradient                   ...        0 min,  0.003 sec
 * total energy  :   -57.2101971 Eh     change       -0.1294210E-04 Eh
   gradient norm :     0.0014122 Eh/α   predicted    -0.5535788E-05 ( -57.23%)
   displ. norm   :     0.1800224 α      lambda       -0.1026170E-04
   maximum displ.:     0.1069949 α      in ANC's #2, #3, #1, ...

........................................................................
.............................. CYCLE   52 ..............................
........................................................................

 iter      E             dE          RMSdq      gap      omega  full diag
   1    -57.8116471 -0.578116E+02  0.357E-02    3.41       0.0  T
   2    -57.8116472 -0.164346E-06  0.211E-02    3.41       1.0  T
   3    -57.8116472  0.244411E-07  0.214E-03    3.41       7.5  T
   4    -57.8116473 -0.107732E-06  0.102E-03    3.41      15.7  T
   5    -57.8116473 -0.110768E-07  0.456E-04    3.41      35.1  T
   6    -57.8116473 -0.117944E-08  0.112E-04    3.41     143.0  T
     SCC iter.                  ...        0 min,  0.011 sec
     gradient                   ...        0 min,  0.005 sec
 * total energy  :   -57.2102096 Eh     change       -0.1251814E-04 Eh
   gradient norm :     0.0008273 Eh/α   predicted    -0.5206399E-05 ( -58.41%)
   displ. norm   :     0.2252922 α      lambda       -0.1288102E-04
   maximum displ.:     0.1360701 α      in ANC's #2, #3, #1, ...

........................................................................
.............................. CYCLE   53 ..............................
........................................................................

 iter      E             dE          RMSdq      gap      omega  full diag
   1    -57.8116107 -0.578116E+02  0.457E-02    3.41       0.0  T
   2    -57.8116109 -0.254811E-06  0.271E-02    3.41       1.0  T
   3    -57.8116110 -0.647325E-07  0.193E-03    3.41       8.3  T
   4    -57.8116111 -0.460502E-07  0.122E-03    3.41      13.2  T
   5    -57.8116111 -0.170552E-07  0.623E-04    3.41      25.7  T
   6    -57.8116111 -0.432515E-08  0.165E-04    3.41      96.8  T
     SCC iter.                  ...        0 min,  0.020 sec
     gradient                   ...        0 min,  0.005 sec
 * total energy  :   -57.2102243 Eh     change       -0.1471782E-04 Eh
   gradient norm :     0.0008606 Eh/α   predicted    -0.6586702E-05 ( -55.25%)
   displ. norm   :     0.2205067 α      lambda       -0.1238972E-04
   maximum displ.:     0.1352486 α      in ANC's #2, #3, #1, ...

........................................................................
.............................. CYCLE   54 ..............................
........................................................................

 iter      E             dE          RMSdq      gap      omega  full diag
   1    -57.8116759 -0.578117E+02  0.422E-02    3.41       0.0  T
   2    -57.8116762 -0.213345E-06  0.250E-02    3.41       1.0  T
   3    -57.8116763 -0.988192E-07  0.143E-03    3.41      11.2  T
   4    -57.8116763 -0.829119E-08  0.803E-04    3.41      19.9  T
   5    -57.8116763 -0.187276E-08  0.259E-04    3.41      61.9  T
     SCC iter.                  ...        0 min,  0.017 sec
     gradient                   ...        0 min,  0.005 sec
 * total energy  :   -57.2102384 Eh     change       -0.1413290E-04 Eh
   gradient norm :     0.0009956 Eh/α   predicted    -0.6329210E-05 ( -55.22%)
   displ. norm   :     0.2033387 α      lambda       -0.1052850E-04
   maximum displ.:     0.1279562 α      in ANC's #2, #3, #1, ...

........................................................................
.............................. CYCLE   55 ..............................
........................................................................

 iter      E             dE          RMSdq      gap      omega  full diag
   1    -57.8116420 -0.578116E+02  0.418E-02    3.41       0.0  T
   2    -57.8116422 -0.182321E-06  0.247E-02    3.41       1.0  T
   3    -57.8116423 -0.430404E-07  0.169E-03    3.42       9.5  T
   4    -57.8116423 -0.341276E-07  0.106E-03    3.41      15.0  T
   5    -57.8116423 -0.147391E-07  0.411E-04    3.41      38.9  T
   6    -57.8116423 -0.178888E-08  0.126E-04    3.41     126.8  T
     SCC iter.                  ...        0 min,  0.009 sec
     gradient                   ...        0 min,  0.003 sec
 * total energy  :   -57.2102510 Eh     change       -0.1251316E-04 Eh
   gradient norm :     0.0009331 Eh/α   predicted    -0.5361791E-05 ( -57.15%)
   displ. norm   :     0.1486186 α      lambda       -0.8771292E-05
   maximum displ.:     0.0966141 α      in ANC's #2, #3, #1, ...

........................................................................
.............................. CYCLE   56 ..............................
........................................................................

 iter      E             dE          RMSdq      gap      omega  full diag
   1    -57.8117990 -0.578118E+02  0.323E-02    3.42       0.0  T
   2    -57.8117990 -0.936909E-07  0.191E-02    3.42       1.0  T
   3    -57.8117991 -0.187934E-07  0.122E-03    3.42      13.1  T
   4    -57.8117991 -0.207348E-07  0.753E-04    3.42      21.3  T
   5    -57.8117991 -0.718509E-08  0.256E-04    3.42      62.6  T
     SCC iter.                  ...        0 min,  0.008 sec
     gradient                   ...        0 min,  0.003 sec
 * total energy  :   -57.2102613 Eh     change       -0.1033366E-04 Eh
   gradient norm :     0.0006232 Eh/α   predicted    -0.4430579E-05 ( -57.12%)
   displ. norm   :     0.1311047 α      lambda       -0.7347952E-05
   maximum displ.:     0.0889221 α      in ANC's #2, #3, #1, ...

........................................................................
.............................. CYCLE   57 ..............................
........................................................................

 iter      E             dE          RMSdq      gap      omega  full diag
   1    -57.8115250 -0.578115E+02  0.304E-02    3.41       0.0  T
   2    -57.8115251 -0.105567E-06  0.180E-02    3.41       1.0  T
   3    -57.8115249  0.185051E-06  0.259E-03    3.41       6.2  T
   4    -57.8115251 -0.235574E-06  0.737E-04    3.41      21.7  T
   5    -57.8115251 -0.550612E-08  0.350E-04    3.41      45.8  T
     SCC iter.                  ...        0 min,  0.009 sec
     gradient                   ...        0 min,  0.003 sec
 * total energy  :   -57.2102698 Eh     change       -0.8537973E-05 Eh
   gradient norm :     0.0005038 Eh/α   predicted    -0.3704934E-05 ( -56.61%)
   displ. norm   :     0.0941215 α      lambda       -0.5946049E-05
   maximum displ.:     0.0616364 α      in ANC's #2, #1, #3, ...

........................................................................
.............................. CYCLE   58 ..............................
........................................................................

 iter      E             dE          RMSdq      gap      omega  full diag
   1    -57.8119419 -0.578119E+02  0.245E-02    3.42       0.0  T
   2    -57.8119420 -0.450547E-07  0.145E-02    3.42       1.1  T
   3    -57.8119419  0.523944E-08  0.996E-04    3.42      16.1  T
   4    -57.8119420 -0.238278E-07  0.480E-04    3.42      33.4  T
     SCC iter.                  ...        0 min,  0.007 sec
     gradient                   ...        0 min,  0.003 sec
 * total energy  :   -57.2102767 Eh     change       -0.6840068E-05 Eh
   gradient norm :     0.0007553 Eh/α   predicted    -0.2989061E-05 ( -56.30%)
   displ. norm   :     0.1670396 α      lambda       -0.8697878E-05
   maximum displ.:     0.1162142 α      in ANC's #2, #1, #3, ...

........................................................................
.............................. CYCLE   59 ..............................
........................................................................

 iter      E             dE          RMSdq      gap      omega  full diag
   1    -57.8113466 -0.578113E+02  0.430E-02    3.41       0.0  T
   2    -57.8113468 -0.198641E-06  0.255E-02    3.41       1.0  T
   3    -57.8113464  0.368273E-06  0.356E-03    3.41       4.5  T
   4    -57.8113469 -0.458392E-06  0.100E-03    3.41      15.9  T
   5    -57.8113469 -0.127595E-07  0.499E-04    3.41      32.1  T
   6    -57.8113469 -0.144794E-08  0.139E-04    3.41     115.1  T
     SCC iter.                  ...        0 min,  0.010 sec
     gradient                   ...        0 min,  0.003 sec
 * total energy  :   -57.2102858 Eh     change       -0.9140050E-05 Eh
   gradient norm :     0.0012874 Eh/α   predicted    -0.4403824E-05 ( -51.82%)
   displ. norm   :     0.1455586 α      lambda       -0.7163785E-05
   maximum displ.:     0.1003509 α      in ANC's #2, #1, #5, ...

........................................................................
.............................. CYCLE   60 ..............................
........................................................................

 iter      E             dE          RMSdq      gap      omega  full diag
   1    -57.8114023 -0.578114E+02  0.382E-02    3.41       0.0  T
   2    -57.8114024 -0.101178E-06  0.226E-02    3.41       1.0  T
   3    -57.8114024 -0.438705E-07  0.914E-04    3.41      17.5  T
   4    -57.8114024 -0.136092E-08  0.525E-04    3.41      30.5  T
     SCC iter.                  ...        0 min,  0.007 sec
     gradient                   ...        0 min,  0.004 sec
[...]
H26-C5-H25=108.59              C7-O6-C5=114.69                C8-C7-O6=108.56                H27-C7-O6=111.49               
H27-C7-C8=108.07               H28-C7-O6=109.74               H28-C7-C8=110.04               H28-C7-H27=108.94              
O9-C8-C7=108.32                H29-C8-C7=108.74               H29-C8-O9=110.51               H30-C8-C7=109.37               
H30-C8-O9=110.69               H30-C8-H29=109.17              C10-O9-C8=115.46               C11-C10-O9=113.17              
H31-C10-O9=110.94              H31-C10-C11=109.04             H32-C10-O9=105.63              H32-C10-C11=108.74             
H32-C10-H31=109.20             
 
 selected dihedral angles (degree)
 ---------------------------------
O3-C2-C1-H18=181.03           O3-C2-C1-H19=301.36           O3-C2-C1-H20= 60.65           H21-C2-C1-H18=301.48          
H21-C2-C1-H19= 61.81          H21-C2-C1-H20=181.11          H22-C2-C1-H18= 60.50          H22-C2-C1-H19=180.83          
H22-C2-C1-H20=300.13          C4-O3-C2-C1=179.53            C4-O3-C2-H21= 58.74           C4-O3-C2-H22=300.42           
C5-C4-O3-C2=178.95            H23-C4-O3-C2= 59.40           H24-C4-O3-C2=300.03           O6-C5-C4-O3=186.72            
O6-C5-C4-H23=307.34           O6-C5-C4-H24= 66.17           H25-C5-C4-O3= 62.22           H25-C5-C4-H23=182.84          
H25-C5-C4-H24=301.67          H26-C5-C4-O3=304.07           H26-C5-C4-H23= 64.69          H26-C5-C4-H24=183.52          
C7-O6-C5-C4=281.76            C7-O6-C5-H25= 45.34           C7-O6-C5-H26=163.01           C8-C7-O6-C5=175.64            
H27-C7-O6-C5= 56.71           H28-C7-O6-C5=295.93           O9-C8-C7-O6=275.11            O9-C8-C7-H27= 36.17           
O9-C8-C7-H28=155.00           H29-C8-C7-O6= 35.25           H29-C8-C7-H27=156.30          H29-C8-C7-H28=275.14          
H30-C8-C7-O6=154.38           H30-C8-C7-H27=275.44          H30-C8-C7-H28= 34.28          C10-O9-C8-C7=161.37           
C10-O9-C8-H29= 42.35          C10-O9-C8-H30=281.27          C11-C10-O9-C8= 73.64          H31-C10-O9-C8=310.69          
H32-C10-O9-C8=192.49          
           -------------------------------------------------
          |                Final Singlepoint                |
           -------------------------------------------------

          ...................................................
          :                      SETUP                      :
          :.................................................:
          :  # basis functions                  90          :
          :  # atomic orbitals                  90          :
          :  # shells                           56          :
          :  # electrons                       100          :
          :  max. iterations                   250          :
          :  Hamiltonian                  GFN2-xTB          :
          :  restarted?                      false          :
          :  GBSA solvation                  false          :
          :  PC potential                    false          :
          :  electronic temp.          300.0000000     K    :
          :  accuracy                    1.0000000          :
          :  -> integral cutoff          0.2500000E+02      :
          :  -> integral neglect         0.1000000E-07      :
          :  -> SCF convergence          0.1000000E-05 Eh   :
          :  -> wf. convergence          0.1000000E-03 e    :
          :  Broyden damping             0.4000000          :
          :  net charge                          0          :
          :  unpaired electrons                  0          :
          ...................................................

 iter      E             dE          RMSdq      gap      omega  full diag
   1    -57.8118671 -0.578119E+02  0.537E-05    3.41       0.0  T
   2    -57.8118671 -0.128182E-10  0.307E-05    3.41     521.7  T
   3    -57.8118671  0.241585E-12  0.205E-05    3.41     780.9  T

   *** convergence criteria satisfied after 3 iterations ***

         #    Occupation            Energy/Eh            Energy/eV
      -------------------------------------------------------------
         1        2.0000           -0.7447453             -20.2656
       ...           ...                  ...                  ...
        44        2.0000           -0.4458634             -12.1326
        45        2.0000           -0.4405278             -11.9874
        46        2.0000           -0.4205466             -11.4437
        47        2.0000           -0.4146531             -11.2833
        48        2.0000           -0.4056260             -11.0376
        49        2.0000           -0.4028615             -10.9624
        50        2.0000           -0.3967235             -10.7954 (HOMO)
        51                         -0.2713737              -7.3845 (LUMO)
        52                         -0.1646500              -4.4804
        53                         -0.0177074              -0.4818
        54                         -0.0056477              -0.1537
        55                          0.0421936               1.1481
       ...                                ...                  ...
        90                          0.6978735              18.9901
      -------------------------------------------------------------
                  HL-Gap            0.1253498 Eh            3.4109 eV
             Fermi-level           -0.3340486 Eh           -9.0899 eV

 SCC (total)                   0 d,  0 h,  0 min,  0.018 sec
 SCC setup                      ...        0 min,  0.000 sec (  1.047%)
 Dispersion                     ...        0 min,  0.000 sec (  0.899%)
 classical contributions        ...        0 min,  0.000 sec (  0.201%)
 integral evaluation            ...        0 min,  0.001 sec (  3.837%)
 iterations                     ...        0 min,  0.011 sec ( 62.355%)
 molecular gradient             ...        0 min,  0.006 sec ( 29.987%)
 printout                       ...        0 min,  0.000 sec (  1.532%)

         :::::::::::::::::::::::::::::::::::::::::::::::::::::
         ::                     SUMMARY                     ::
         :::::::::::::::::::::::::::::::::::::::::::::::::::::
         :: total energy             -57.210366636571 Eh    ::
         :: gradient norm              0.000386376644 Eh/a0 ::
         :: HOMO-LUMO gap              3.410940580185 eV    ::
         ::.................................................::
         :: SCC energy               -57.812067935845 Eh    ::
         :: -> isotropic ES            0.097380669462 Eh    ::
         :: -> anisotropic ES          0.005837614067 Eh    ::
         :: -> anisotropic XC          0.008186308368 Eh    ::
         :: -> dispersion             -0.026578137777 Eh    ::
         :: repulsion energy           0.601701299274 Eh    ::
         :: add. restraining           0.000000000000 Eh    ::
         :: total charge              -0.000000000000 e     ::
         :::::::::::::::::::::::::::::::::::::::::::::::::::::

           -------------------------------------------------
          |                Property Printout                |
           -------------------------------------------------

    * Orbital Energies and Occupations

         #    Occupation            Energy/Eh            Energy/eV
      -------------------------------------------------------------
         1        2.0000           -0.7447453             -20.2656
       ...           ...                  ...                  ...
        38        2.0000           -0.4680224             -12.7355
        39        2.0000           -0.4631261             -12.6023
        40        2.0000           -0.4584005             -12.4737
        41        2.0000           -0.4556473             -12.3988
        42        2.0000           -0.4543793             -12.3643
        43        2.0000           -0.4518787             -12.2962
        44        2.0000           -0.4458634             -12.1326
        45        2.0000           -0.4405278             -11.9874
        46        2.0000           -0.4205466             -11.4437
        47        2.0000           -0.4146531             -11.2833
        48        2.0000           -0.4056260             -11.0376
        49        2.0000           -0.4028615             -10.9624
        50        2.0000           -0.3967235             -10.7954 (HOMO)
        51                         -0.2713737              -7.3845 (LUMO)
        52                         -0.1646500              -4.4804
        53                         -0.0177074              -0.4818
        54                         -0.0056477              -0.1537
        55                          0.0421936               1.1481
        56                          0.0482789               1.3137
        57                          0.0797756               2.1708
        58                          0.0907857               2.4704
        59                          0.0927704               2.5244
        60                          0.0952525               2.5920
        61                          0.1019170               2.7733
       ...                                ...                  ...
        90                          0.6978735              18.9901
      -------------------------------------------------------------
                  HL-Gap            0.1253498 Eh            3.4109 eV
             Fermi-level           -0.3340486 Eh           -9.0899 eV

     #   Z          covCN         q      C6AA      α(0)
     1   6 C        3.751    -0.113    22.719     6.797
     2   6 C        3.702     0.092    19.211     6.267
     3   8 O        1.702    -0.323    19.398     5.946
     4   6 C        3.702     0.078    19.421     6.302
     5   6 C        3.697     0.072    19.531     6.321
     6   8 O        1.701    -0.308    19.132     5.905
     7   6 C        3.697     0.078    19.444     6.307
     8   6 C        3.694     0.076    19.480     6.314
     9   8 O        1.702    -0.304    19.067     5.895
    10   6 C        3.694     0.072    19.545     6.325
    11   6 C        3.700     0.066    19.633     6.337
    12   8 O        1.705    -0.267    18.423     5.795
    13   6 C        2.730     0.349    21.080     7.517
    14   8 O        0.856    -0.412    21.918     6.277
    15   6 C        2.938    -0.008    28.227     8.713
    16   6 C        3.757    -0.113    22.711     6.794
    17   6 C        2.850    -0.077    29.928     8.966
    18   1 H        0.925     0.046     2.372     2.408
    19   1 H        0.925     0.056     2.249     2.345
    20   1 H        0.925     0.056     2.246     2.344
    21   1 H        0.923     0.018     2.764     2.600
    22   1 H        0.923     0.020     2.734     2.586
    23   1 H        0.923     0.032     2.554     2.499
    24   1 H        0.923     0.019     2.747     2.592
    25   1 H        0.923     0.035     2.515     2.480
    26   1 H        0.924     0.069     2.098     2.265
    27   1 H        0.924     0.047     2.359     2.402
    28   1 H        0.923     0.028     2.613     2.528
    29   1 H        0.924     0.049     2.331     2.387
    30   1 H        0.923     0.027     2.632     2.537
    31   1 H        0.923     0.035     2.521     2.483
    32   1 H        0.924     0.075     2.027     2.226
    33   1 H        0.924     0.056     2.250     2.346
    34   1 H        0.924     0.067     2.119     2.277
    35   1 H        0.925     0.061     2.186     2.312
    36   1 H        0.925     0.054     2.276     2.359
    37   1 H        0.925     0.061     2.187     2.312
    38   1 H        0.926     0.059     2.209     2.324
    39   1 H        0.926     0.073     2.053     2.241

 Mol. C6AA /au·bohr⁶  :      12411.324886
 Mol. C8AA /au·bohr⁸  :     265871.671067
 Mol. α(0) /au        :        165.635659


Wiberg/Mayer (AO) data.
largest (>0.10) Wiberg bond orders for each atom

 ---------------------------------------------------------------------------
     #   Z sym  total        # sym  WBO       # sym  WBO       # sym  WBO
 ---------------------------------------------------------------------------
     1   6 C    3.993 --     2 C    1.015    20 H    0.986    19 H    0.986
                            18 H    0.985
     2   6 C    3.952 --     1 C    1.015     3 O    0.977    22 H    0.969
                            21 H    0.968
     3   8 O    2.065 --     4 C    0.990     2 C    0.977
     4   6 C    3.957 --     3 O    0.990     5 C    0.986    23 H    0.967
                            24 H    0.965
     5   6 C    3.951 --     6 O    0.990     4 C    0.986    25 H    0.967
                            26 H    0.967
     6   8 O    2.079 --     5 C    0.990     7 C    0.986
     7   6 C    3.959 --     8 C    0.997     6 O    0.986    28 H    0.966
                            27 H    0.965
     8   6 C    3.958 --     7 C    0.997     9 O    0.984    30 H    0.967
                            29 H    0.964
     9   8 O    2.088 --    10 C    0.996     8 C    0.984
    10   6 C    3.950 --     9 O    0.996    11 C    0.977    32 H    0.966
                            31 H    0.965
    11   6 C    3.930 --    10 C    0.977    33 H    0.970    34 H    0.967
                            12 O    0.954
    12   8 O    2.301 --    13 C    1.110    11 C    0.954    14 O    0.168
    13   6 C    3.915 --    14 O    1.730    12 O    1.110    15 C    0.996
    14   8 O    2.037 --    13 C    1.730    12 O    0.168
    15   6 C    3.986 --    17 C    1.874    16 C    1.030    13 C    0.996
    16   6 C    3.995 --    15 C    1.030    36 H    0.984    35 H    0.968
                            37 H    0.968
    17   6 C    3.984 --    15 C    1.874    38 H    0.975    39 H    0.971
    18   1 H    0.997 --     1 C    0.985
    19   1 H    0.997 --     1 C    0.986
    20   1 H    0.997 --     1 C    0.986
    21   1 H    1.000 --     2 C    0.968
    22   1 H    1.000 --     2 C    0.969
    23   1 H    0.999 --     4 C    0.967
    24   1 H    1.000 --     4 C    0.965
    25   1 H    0.999 --     5 C    0.967
    26   1 H    0.995 --     5 C    0.967
    27   1 H    0.998 --     7 C    0.965
    28   1 H    0.999 --     7 C    0.966
    29   1 H    0.998 --     8 C    0.964
    30   1 H    0.999 --     8 C    0.967
    31   1 H    0.999 --    10 C    0.965
    32   1 H    0.994 --    10 C    0.966
    33   1 H    0.996 --    11 C    0.970
    34   1 H    0.995 --    11 C    0.967
    35   1 H    0.996 --    16 C    0.968
    36   1 H    0.997 --    16 C    0.984
    37   1 H    0.996 --    16 C    0.968
    38   1 H    0.995 --    17 C    0.975
    39   1 H    0.995 --    17 C    0.971
 ---------------------------------------------------------------------------

Topologies differ in total number of bonds
Writing topology from bond orders to xtbtopo.mol

molecular dipole:
                 x           y           z       tot (Debye)
 q only:        0.326      -0.535       0.359
   full:        0.472      -0.695       0.235       2.217
molecular quadrupole (traceless):
                xx          xy          yy          xz          yz          zz
 q only:       17.002      -5.190      -3.906      12.220       3.326     -13.096
  q+dip:       10.633      -6.523      -0.176      15.230       4.981     -10.456
   full:       12.552      -7.214      -1.078      14.640       5.515     -11.475

           -------------------------------------------------
          |                Geometry Summary                 |
           -------------------------------------------------

      molecular mass/u    :      246.3005519
   center of mass at/Å    :        0.3924823       0.0162441      -0.1639904
  moments of inertia/u·Å² :        0.4219800E+03   0.5050162E+04   0.5306073E+04
rotational constants/cm⁻¹ :        0.3994889E-01   0.3338038E-02   0.3177045E-02

 * 36 selected distances

     #   Z          #   Z                                           value/Å
     1   6 C        2   6 C                                       1.5196817
     2   6 C        3   8 O                                       1.4119423
     3   8 O        4   6 C                                       1.4052606
     4   6 C        5   6 C                                       1.5330972
     5   6 C        6   8 O                                       1.4059194
     6   8 O        7   6 C                                       1.4102944
     7   6 C        8   6 C                                       1.5258802
     8   6 C        9   8 O                                       1.4110885
     9   8 O       10   6 C                                       1.4014722
    10   6 C       11   6 C                                       1.5391063 (max)
    11   6 C       12   8 O                                       1.4200207
    12   8 O       13   6 C                                       1.3446002
    13   6 C       14   8 O                                       1.2059354
    15   6 C       17   6 C                                       1.3293930
     1   6 C       18   1 H                                       1.0864077
     1   6 C       19   1 H                                       1.0862412
     1   6 C       20   1 H                                       1.0860971
     2   6 C       21   1 H                                       1.1020501
     2   6 C       22   1 H                                       1.1015965
     4   6 C       23   1 H                                       1.1008295
     4   6 C       24   1 H                                       1.1016805
     5   6 C       25   1 H                                       1.0987932
     5   6 C       26   1 H                                       1.0924663
     7   6 C       27   1 H                                       1.0960744
     7   6 C       28   1 H                                       1.1011927
     8   6 C       29   1 H                                       1.0977974
     8   6 C       30   1 H                                       1.0993768
    10   6 C       31   1 H                                       1.1007255
    10   6 C       32   1 H                                       1.0929870
    11   6 C       33   1 H                                       1.0918906
    11   6 C       34   1 H                                       1.0950890
    16   6 C       35   1 H                                       1.0882083
    16   6 C       36   1 H                                       1.0865889
    16   6 C       37   1 H                                       1.0884904
    17   6 C       38   1 H                                       1.0764086 (min)
    17   6 C       39   1 H                                       1.0766730

 * 3 distinct bonds (by element types)

   Z      Z             #   av. dist./Å        max./Å        min./Å
   1 H    6 C          22     1.0930757     1.1020501     1.0764086
   6 C    6 C           5     1.4894317     1.5391063     1.3293930
   6 C    8 O           9     1.3796149     1.4200207     1.2059354


optimized geometry written to: xtbopt.xyz


           -------------------------------------------------
          | TOTAL ENERGY              -57.210366636571 Eh   |
          | GRADIENT NORM               0.000386376644 Eh/α |
          | HOMO-LUMO GAP               3.410940580185 eV   |
           -------------------------------------------------

------------------------------------------------------------------------
 * finished run on 2025/12/01 at 14:19:21.414     
------------------------------------------------------------------------
 total:
 * wall-time:     0 d,  0 h,  0 min,  1.408 sec
 *  cpu-time:     0 d,  0 h,  0 min, 31.337 sec
 * ratio c/w:    22.251 speedup
 SCF:
 * wall-time:     0 d,  0 h,  0 min,  0.044 sec
 *  cpu-time:     0 d,  0 h,  0 min,  1.003 sec
 * ratio c/w:    22.684 speedup
 ANC optimizer:
 * wall-time:     0 d,  0 h,  0 min,  1.318 sec
 *  cpu-time:     0 d,  0 h,  0 min, 30.028 sec
 * ratio c/w:    22.787 speedup

normal termination of xtb
