      -----------------------------------------------------------      
     |                   =====================                   |     
     |                           x T B                           |     
     |                   =====================                   |     
     |                         S. Grimme                         |     
     |          Mulliken Center for Theoretical Chemistry        |     
     |                    University of Bonn                     |     
      -----------------------------------------------------------      

   * xtb version 6.7.1 (edcfbbe) compiled by 'albert@albert-system' on 2024-07-22

   xtb is free software: you can redistribute it and/or modify it under
   the terms of the GNU Lesser General Public License as published by
   the Free Software Foundation, either version 3 of the License, or
   (at your option) any later version.
   
   xtb is distributed in the hope that it will be useful,
   but WITHOUT ANY WARRANTY; without even the implied warranty of
   MERCHANTABILITY or FITNESS FOR A PARTICULAR PURPOSE.  See the
   GNU Lesser General Public License for more details.
   
   Cite this work as:
   * C. Bannwarth, E. Caldeweyher, S. Ehlert, A. Hansen, P. Pracht,
     J. Seibert, S. Spicher, S. Grimme, WIREs Comput. Mol. Sci., 2020, 11,
     e01493. DOI: 10.1002/wcms.1493
   
   for GFN2-xTB:
   * C. Bannwarth, S. Ehlert and S. Grimme., J. Chem. Theory Comput., 2019,
     15, 1652-1671. DOI: 10.1021/acs.jctc.8b01176
   for GFN1-xTB:
   * S. Grimme, C. Bannwarth, P. Shushkov, J. Chem. Theory Comput., 2017,
     13, 1989-2009. DOI: 10.1021/acs.jctc.7b00118
   for GFN0-xTB:
   * P. Pracht, E. Caldeweyher, S. Ehlert, S. Grimme, ChemRxiv, 2019, preprint.
     DOI: 10.26434/chemrxiv.8326202.v1
   for GFN-FF:
   * S. Spicher and S. Grimme, Angew. Chem. Int. Ed., 2020, 59, 15665-15673.
     DOI: 10.1002/anie.202004239
   
   for ALPB and GBSA implicit solvation:
   * S. Ehlert, M. Stahn, S. Spicher, S. Grimme, J. Chem. Theory Comput.,
     2021, 17, 4250-4261. DOI: 10.1021/acs.jctc.1c00471
   
   for ddCOSMO and CPCM-X implicit solvation:
   * M. Stahn, S. Ehlert, S. Grimme, J. Phys. Chem. A,
     2023, XX, XXXX-XXXX. DOI: 10.1021/acs.jpca.3c04382
   
   for DFT-D4:
   * E. Caldeweyher, C. Bannwarth and S. Grimme, J. Chem. Phys., 2017,
     147, 034112. DOI: 10.1063/1.4993215
   * E. Caldeweyher, S. Ehlert, A. Hansen, H. Neugebauer, S. Spicher,
     C. Bannwarth and S. Grimme, J. Chem. Phys., 2019, 150, 154122.
     DOI: 10.1063/1.5090222
   * E. Caldeweyher, J.-M. Mewes, S. Ehlert and S. Grimme, Phys. Chem. Chem. Phys.
     2020, 22, 8499-8512. DOI: 10.1039/D0CP00502A
   
   for sTDA-xTB:
   * S. Grimme and C. Bannwarth, J. Chem. Phys., 2016, 145, 054103.
     DOI: 10.1063/1.4959605
   
   in the mass-spec context:
   * V. Asgeirsson, C. Bauer and S. Grimme, Chem. Sci., 2017, 8, 4879.
     DOI: 10.1039/c7sc00601b
   * J. Koopman and S. Grimme, ACS Omega 2019, 4, 12, 15120-15133.
     DOI: 10.1021/acsomega.9b02011
   
   for metadynamics refer to:
   * S. Grimme, J. Chem. Theory Comput., 2019, 155, 2847-2862
     DOI: 10.1021/acs.jctc.9b00143
   
   for SPH calculations refer to:
   * S. Spicher and S. Grimme, J. Chem. Theory Comput., 2021, 17, 1701-1714
     DOI: 10.1021/acs.jctc.0c01306
   
   for ONIOM refer to:
   * C. Plett, A. Katbashev, S. Ehlert, S. Grimme, M. Bursch,
     Phys. Chem. Chem. Phys., 2023, 25, 17860-17868. DOI: 10.1039/D3CP02178E
   
   for DIPRO refer to:
   * J. Kohn, N. Gildemeister, S. Grimme, D. Fazzi, A. Hansen,
     J. Chem. Phys., 2023, just accepted.
   
   for PTB refer to:
   * S. Grimme, M. Mueller, A. Hansen, J. Chem. Phys., 2023, 158, 124111.
     DOI: 10.1063/5.0137838
   
   with help from (in alphabetical order)
   P. Atkinson, C. Bannwarth, F. Bohle, G. Brandenburg, E. Caldeweyher
   M. Checinski, S. Dohm, S. Ehlert, S. Ehrlich, I. Gerasimov, C. Hölzer
   A. Katbashev, J. Kohn, J. Koopman, C. Lavigne, S. Lehtola, F. März, M. Müller,
   F. Musil, H. Neugebauer, J. Pisarek, C. Plett, P. Pracht, F. Pultar,
   J. Seibert, P. Shushkov, S. Spicher, M. Stahn, M. Steiner, T. Strunk,
   J. Stückrath, T. Rose, and J. Unsleber
   
 * started run on 2025/12/01 at 14:19:25.948     
   ID    Z sym.   atoms
    1    6 C      1-4, 7-10
    2    8 O      5, 6
    3    1 H      11-24

           -------------------------------------------------
          |                Calculation Setup                |
           -------------------------------------------------

          program call               : xtb pipeline_data/3_conformer_xyz/acrylates/rdkit/SJMYWORNLPSJQO-UHFFFAOYSA-N_conf52.xyz --opt --gfn 2-xTB --iterations 250
          coordinate file            : pipeline_data/3_conformer_xyz/acrylates/rdkit/SJMYWORNLPSJQO-UHFFFAOYSA-N_conf52.xyz
          omp threads                :                    24

########################################################################
[WARNING] Please study the warnings concerning your input carefully
-1- readin_getIntValue: could not parse '2-xTB'
########################################################################

           -------------------------------------------------
          |                 G F N 2 - x T B                 |
           -------------------------------------------------

        Reference                      10.1021/acs.jctc.8b01176
      * Hamiltonian:
        H0-scaling (s, p, d)           1.850000    2.230000    2.230000
        zeta-weighting                 0.500000
      * Dispersion:
        s8                             2.700000
        a1                             0.520000
        a2                             5.000000
        s9                             5.000000
      * Repulsion:
        kExp                           1.500000    1.000000
        rExp                           1.000000
      * Coulomb:
        alpha                          2.000000
        third order                    shell-resolved
        anisotropic                    true
        a3                             3.000000
        a5                             4.000000
        cn-shift                       1.200000
        cn-exp                         4.000000
        max-rad                        5.000000

q/qsh data taken from xtbrestart
CAMM data taken from xtbrestart

          ...................................................
          :                      SETUP                      :
          :.................................................:
          :  # basis functions                  54          :
          :  # atomic orbitals                  54          :
          :  # shells                           34          :
          :  # electrons                        58          :
          :  max. iterations                   250          :
          :  Hamiltonian                  GFN2-xTB          :
          :  restarted?                       true          :
          :  GBSA solvation                  false          :
          :  PC potential                    false          :
          :  electronic temp.          300.0000000     K    :
          :  accuracy                    1.0000000          :
          :  -> integral cutoff          0.2500000E+02      :
          :  -> integral neglect         0.1000000E-07      :
          :  -> SCF convergence          0.1000000E-05 Eh   :
          :  -> wf. convergence          0.1000000E-03 e    :
          :  Broyden damping             0.4000000          :
          :  net charge                          0          :
          :  unpaired electrons                  0          :
          ...................................................

 iter      E             dE          RMSdq      gap      omega  full diag
   1    -32.7616960 -0.327617E+02  0.347E+00    3.48       0.0  T
   2    -32.7662571 -0.456108E-02  0.207E+00    3.35       1.0  T
   3    -32.7540961  0.121610E-01  0.852E-01    3.44       1.0  T
   4    -32.7687482 -0.146522E-01  0.141E-01    3.35       1.0  T
   5    -32.7688489 -0.100702E-03  0.759E-02    3.36       1.0  T
   6    -32.7688499 -0.944460E-06  0.190E-02    3.35       1.1  T
   7    -32.7688547 -0.484523E-05  0.706E-03    3.36       2.9  T
   8    -32.7688549 -0.153739E-06  0.334E-03    3.36       6.1  T
   9    -32.7688549 -0.318672E-07  0.106E-03    3.36      19.2  T
  10    -32.7688549 -0.413694E-08  0.495E-04    3.36      41.2  T
  11    -32.7688549 -0.675641E-09  0.935E-05    3.36     218.3  T

   *** convergence criteria satisfied after 11 iterations ***

         #    Occupation            Energy/Eh            Energy/eV
      -------------------------------------------------------------
         1        2.0000           -0.7239096             -19.6986
       ...           ...                  ...                  ...
        23        2.0000           -0.4546678             -12.3721
        24        2.0000           -0.4498603             -12.2413
        25        2.0000           -0.4475784             -12.1792
        26        2.0000           -0.4341934             -11.8150
        27        2.0000           -0.4211577             -11.4603
        28        2.0000           -0.4199371             -11.4271
        29        2.0000           -0.4007113             -10.9039 (HOMO)
        30                         -0.2772565              -7.5445 (LUMO)
        31                         -0.1633508              -4.4450
        32                         -0.0176257              -0.4796
        33                          0.0652203               1.7747
        34                          0.0948954               2.5822
       ...                                ...                  ...
        54                          0.6867474              18.6873
      -------------------------------------------------------------
                  HL-Gap            0.1234547 Eh            3.3594 eV
             Fermi-level           -0.3389839 Eh           -9.2242 eV

 SCC (total)                   0 d,  0 h,  0 min,  0.021 sec
 SCC setup                      ...        0 min,  0.000 sec (  2.239%)
 Dispersion                     ...        0 min,  0.001 sec (  3.301%)
 classical contributions        ...        0 min,  0.000 sec (  1.480%)
 integral evaluation            ...        0 min,  0.001 sec (  6.911%)
 iterations                     ...        0 min,  0.016 sec ( 76.590%)
 molecular gradient             ...        0 min,  0.002 sec (  8.614%)
 printout                       ...        0 min,  0.000 sec (  0.683%)

         :::::::::::::::::::::::::::::::::::::::::::::::::::::
         ::                     SUMMARY                     ::
         :::::::::::::::::::::::::::::::::::::::::::::::::::::
         :: total energy             -32.374424395019 Eh    ::
         :: gradient norm              0.153420263944 Eh/a0 ::
         :: HOMO-LUMO gap              3.359374015221 eV    ::
         ::.................................................::
         :: SCC energy               -32.768737153588 Eh    ::
         :: -> isotropic ES            0.051758005277 Eh    ::
         :: -> anisotropic ES          0.002731752356 Eh    ::
         :: -> anisotropic XC          0.013335093911 Eh    ::
         :: -> dispersion             -0.017079108995 Eh    ::
         :: repulsion energy           0.394312758569 Eh    ::
         :: add. restraining           0.000000000000 Eh    ::
         :: total charge               0.000000000000 e     ::
         :::::::::::::::::::::::::::::::::::::::::::::::::::::

      ----------------------------------------------------------- 
     |                   =====================                   |
     |                        A N C O P T                        |
     |                   =====================                   |
     |               Approximate Normal Coordinate               |
     |                Rational Function Optimizer                |
      ----------------------------------------------------------- 
      ----------------------------------------------------------- 
     |                   =====================                   |
     |                        A N C O P T                        |
     |                   =====================                   |
     |               Approximate Normal Coordinate               |
     |                Rational Function Optimizer                |
      ----------------------------------------------------------- 

          ...................................................
          :                      SETUP                      :
          :.................................................:
          :   optimization level            normal          :
          :   max. optcycles                   200          :
          :   ANC micro-cycles                  20          :
          :   degrees of freedom                66          :
          :.................................................:
          :   RF solver                   davidson          :
          :   write xtbopt.log                true          :
          :   linear?                        false          :
          :   energy convergence         0.5000000E-05 Eh   :
          :   grad. convergence          0.1000000E-02 Eh/α :
          :   maxmium RF displ.          1.0000000          :
          :   Hlow (freq-cutoff)         0.1000000E-01      :
          :   Hmax (freq-cutoff)         5.0000000          :
          :   S6 in model hess.         20.0000000          :
          ...................................................

generating ANC from exact Hessian ...
Using Lindh-Hessian (1995)
 Shifting diagonal of input Hessian by   9.232052253490945E-003
 Lowest  eigenvalues of input Hessian
    0.000000    0.000000    0.000000    0.000000    0.000000    0.000000
    0.010000    0.010761    0.012136    0.016187    0.016948    0.018543
    0.018832    0.019128    0.019464    0.020573    0.021560    0.022898
 Highest eigenvalues
    1.278839    1.307101    1.504044    1.784739    2.037860    2.117440
 

........................................................................
.............................. CYCLE    1 ..............................
........................................................................

 iter      E             dE          RMSdq      gap      omega  full diag
   1    -32.7688549 -0.327689E+02  0.393E-05    3.36       0.0  T
   2    -32.7688549 -0.213163E-11  0.253E-05    3.36     807.2  T
   3    -32.7688549 -0.845546E-12  0.717E-06    3.36    2847.9  T
     SCC iter.                  ...        0 min,  0.006 sec
     gradient                   ...        0 min,  0.003 sec
 * total energy  :   -32.3744244 Eh     change       -0.3318945E-10 Eh
   gradient norm :     0.1534200 Eh/α   predicted     0.0000000E+00 (-100.00%)
   displ. norm   :     0.3366808 α      lambda       -0.2571158E-01
   maximum displ.:     0.1164743 α      in ANC's #10, #17, #5, ...

........................................................................
.............................. CYCLE    2 ..............................
........................................................................

 iter      E             dE          RMSdq      gap      omega  full diag
   1    -32.8041906 -0.328042E+02  0.308E-01    3.51       0.0  T
   2    -32.8045176 -0.327012E-03  0.192E-01    3.55       1.0  T
   3    -32.8044827  0.348994E-04  0.871E-02    3.56       1.0  T
   4    -32.8045217 -0.389370E-04  0.392E-02    3.56       1.0  T
   5    -32.8045532 -0.315894E-04  0.789E-03    3.55       2.6  T
   6    -32.8045539 -0.702903E-06  0.386E-03    3.56       5.3  T
   7    -32.8045540 -0.241439E-07  0.844E-04    3.56      24.2  T
   8    -32.8045540 -0.245394E-08  0.407E-04    3.56      50.2  T
     SCC iter.                  ...        0 min,  0.014 sec
     gradient                   ...        0 min,  0.003 sec
 * total energy  :   -32.3919220 Eh     change       -0.1749756E-01 Eh
   gradient norm :     0.0610442 Eh/α   predicted    -0.1432491E-01 ( -18.13%)
   displ. norm   :     0.3288994 α      lambda       -0.7244330E-02
   maximum displ.:     0.1895661 α      in ANC's #5, #10, #4, ...

........................................................................
.............................. CYCLE    3 ..............................
........................................................................

 iter      E             dE          RMSdq      gap      omega  full diag
   1    -32.8205966 -0.328206E+02  0.160E-01    3.66       0.0  T
   2    -32.8207307 -0.134143E-03  0.105E-01    3.69       1.0  T
   3    -32.8207304  0.383961E-06  0.610E-02    3.69       1.0  T
   4    -32.8207439 -0.135089E-04  0.288E-02    3.70       1.0  T
   5    -32.8207592 -0.153474E-04  0.450E-03    3.70       4.5  T
   6    -32.8207594 -0.160977E-06  0.224E-03    3.70       9.1  T
   7    -32.8207594 -0.942322E-08  0.685E-04    3.70      29.8  T
   8    -32.8207594 -0.970843E-09  0.309E-04    3.70      66.1  T
     SCC iter.                  ...        0 min,  0.014 sec
     gradient                   ...        0 min,  0.003 sec
 * total energy  :   -32.3963534 Eh     change       -0.4431400E-02 Eh
   gradient norm :     0.0205460 Eh/α   predicted    -0.4018460E-02 (  -9.32%)
   displ. norm   :     0.3030631 α      lambda       -0.1777759E-02
   maximum displ.:     0.1870565 α      in ANC's #5, #10, #4, ...

........................................................................
.............................. CYCLE    4 ..............................
........................................................................

 iter      E             dE          RMSdq      gap      omega  full diag
   1    -32.8205823 -0.328206E+02  0.730E-02    3.72       0.0  T
   2    -32.8206007 -0.183566E-04  0.443E-02    3.72       1.0  T
   3    -32.8205976  0.308634E-05  0.267E-02    3.72       1.0  T
   4    -32.8206027 -0.513173E-05  0.115E-02    3.72       1.8  T
   5    -32.8206050 -0.222710E-05  0.168E-03    3.72      12.2  T
   6    -32.8206050 -0.264420E-07  0.718E-04    3.72      28.4  T
   7    -32.8206050 -0.109443E-08  0.218E-04    3.72      93.7  T
     SCC iter.                  ...        0 min,  0.013 sec
     gradient                   ...        0 min,  0.003 sec
 * total energy  :   -32.3976537 Eh     change       -0.1300310E-02 Eh
   gradient norm :     0.0125870 Eh/α   predicted    -0.9705798E-03 ( -25.36%)
   displ. norm   :     0.3350219 α      lambda       -0.1122774E-02
   maximum displ.:     0.1892329 α      in ANC's #5, #4, #8, ...

........................................................................
.............................. CYCLE    5 ..............................
........................................................................

 iter      E             dE          RMSdq      gap      omega  full diag
   1    -32.8199315 -0.328199E+02  0.713E-02    3.73       0.0  T
   2    -32.8199502 -0.187569E-04  0.418E-02    3.72       1.0  T
   3    -32.8199478  0.245533E-05  0.231E-02    3.72       1.0  T
   4    -32.8199504 -0.261046E-05  0.116E-02    3.73       1.8  T
   5    -32.8199528 -0.238419E-05  0.151E-03    3.72      13.5  T
   6    -32.8199528 -0.199737E-07  0.683E-04    3.73      29.9  T
   7    -32.8199528 -0.926342E-09  0.169E-04    3.73     121.0  T
     SCC iter.                  ...        0 min,  0.012 sec
     gradient                   ...        0 min,  0.003 sec
 * total energy  :   -32.3983765 Eh     change       -0.7228233E-03 Eh
   gradient norm :     0.0069724 Eh/α   predicted    -0.6243979E-03 ( -13.62%)
   displ. norm   :     0.1920542 α      lambda       -0.3389753E-03
   maximum displ.:     0.1048612 α      in ANC's #4, #8, #5, ...

........................................................................
.............................. CYCLE    6 ..............................
........................................................................

 iter      E             dE          RMSdq      gap      omega  full diag
   1    -32.8208581 -0.328209E+02  0.445E-02    3.73       0.0  T
   2    -32.8208609 -0.278118E-05  0.263E-02    3.72       1.0  T
   3    -32.8208603  0.564426E-06  0.846E-03    3.72       2.4  T
   4    -32.8208607 -0.430175E-06  0.424E-03    3.73       4.8  T
   5    -32.8208611 -0.365759E-06  0.828E-04    3.72      24.7  T
   6    -32.8208611 -0.312635E-08  0.402E-04    3.72      50.8  T
     SCC iter.                  ...        0 min,  0.011 sec
     gradient                   ...        0 min,  0.003 sec
 * total energy  :   -32.3986161 Eh     change       -0.2395819E-03 Eh
   gradient norm :     0.0071356 Eh/α   predicted    -0.1757477E-03 ( -26.64%)
   displ. norm   :     0.2141698 α      lambda       -0.2975579E-03
   maximum displ.:     0.1219718 α      in ANC's #4, #8, #9, ...

........................................................................
.............................. CYCLE    7 ..............................
........................................................................

 iter      E             dE          RMSdq      gap      omega  full diag
   1    -32.8220228 -0.328220E+02  0.477E-02    3.72       0.0  T
   2    -32.8220236 -0.715994E-06  0.288E-02    3.72       1.0  T
   3    -32.8220234  0.136667E-06  0.395E-03    3.72       5.2  T
   4    -32.8220237 -0.257469E-06  0.127E-03    3.72      16.1  T
   5    -32.8220237 -0.502465E-08  0.824E-04    3.72      24.8  T
   6    -32.8220237 -0.692998E-08  0.310E-04    3.72      65.9  T
     SCC iter.                  ...        0 min,  0.010 sec
     gradient                   ...        0 min,  0.003 sec
 * total energy  :   -32.3988271 Eh     change       -0.2110347E-03 Eh
   gradient norm :     0.0075416 Eh/α   predicted    -0.1556127E-03 ( -26.26%)
   displ. norm   :     0.2591321 α      lambda       -0.3145628E-03
   maximum displ.:     0.1461329 α      in ANC's #4, #8, #9, ...

........................................................................
.............................. CYCLE    8 ..............................
........................................................................

 iter      E             dE          RMSdq      gap      omega  full diag
   1    -32.8225659 -0.328226E+02  0.611E-02    3.72       0.0  T
   2    -32.8225672 -0.121193E-05  0.368E-02    3.72       1.0  T
   3    -32.8225669  0.276017E-06  0.523E-03    3.72       3.9  T
   4    -32.8225673 -0.436277E-06  0.144E-03    3.72      14.2  T
   5    -32.8225673 -0.137226E-07  0.921E-04    3.72      22.2  T
   6    -32.8225673 -0.974870E-08  0.416E-04    3.72      49.1  T
     SCC iter.                  ...        0 min,  0.011 sec
     gradient                   ...        0 min,  0.003 sec
 * total energy  :   -32.3990533 Eh     change       -0.2261592E-03 Eh
   gradient norm :     0.0074461 Eh/α   predicted    -0.1678478E-03 ( -25.78%)
   displ. norm   :     0.2879798 α      lambda       -0.3257935E-03
   maximum displ.:     0.1568081 α      in ANC's #4, #8, #9, ...

........................................................................
.............................. CYCLE    9 ..............................
........................................................................

 iter      E             dE          RMSdq      gap      omega  full diag
   1    -32.8225646 -0.328226E+02  0.664E-02    3.72       0.0  T
   2    -32.8225674 -0.276319E-05  0.395E-02    3.72       1.0  T
   3    -32.8225671  0.288351E-06  0.737E-03    3.72       2.8  T
   4    -32.8225674 -0.342113E-06  0.273E-03    3.72       7.5  T
   5    -32.8225676 -0.128655E-06  0.959E-04    3.72      21.3  T
   6    -32.8225676 -0.104718E-07  0.427E-04    3.72      47.8  T
     SCC iter.                  ...        0 min,  0.005 sec
     gradient                   ...        0 min,  0.001 sec
 * total energy  :   -32.3992887 Eh     change       -0.2354754E-03 Eh
   gradient norm :     0.0069554 Eh/α   predicted    -0.1764072E-03 ( -25.08%)
   displ. norm   :     0.2363278 α      lambda       -0.2790682E-03
   maximum displ.:     0.1194863 α      in ANC's #4, #6, #9, ...

........................................................................
.............................. CYCLE   10 ..............................
........................................................................

 iter      E             dE          RMSdq      gap      omega  full diag
   1    -32.8237198 -0.328237E+02  0.614E-02    3.72       0.0  T
   2    -32.8237214 -0.167034E-05  0.365E-02    3.73       1.0  T
   3    -32.8237210  0.411098E-06  0.612E-03    3.73       3.3  T
   4    -32.8237214 -0.352474E-06  0.325E-03    3.73       6.3  T
   5    -32.8237216 -0.206345E-06  0.734E-04    3.73      27.8  T
   6    -32.8237216 -0.168320E-08  0.336E-04    3.73      60.8  T
     SCC iter.                  ...        0 min,  0.008 sec
     gradient                   ...        0 min,  0.002 sec
 * total energy  :   -32.3994767 Eh     change       -0.1879424E-03 Eh
   gradient norm :     0.0055555 Eh/α   predicted    -0.1473295E-03 ( -21.61%)
   displ. norm   :     0.2658514 α      lambda       -0.1682761E-03
   maximum displ.:     0.1642403 α      in ANC's #4, #6, #9, ...

........................................................................
.............................. CYCLE   11 ..............................
........................................................................

 iter      E             dE          RMSdq      gap      omega  full diag
   1    -32.8208749 -0.328209E+02  0.653E-02    3.73       0.0  T
   2    -32.8208769 -0.196897E-05  0.386E-02    3.73       1.0  T
   3    -32.8208761  0.809104E-06  0.824E-03    3.73       2.5  T
   4    -32.8208769 -0.833660E-06  0.368E-03    3.73       5.5  T
   5    -32.8208772 -0.257174E-06  0.106E-03    3.73      19.3  T
   6    -32.8208772 -0.423509E-08  0.368E-04    3.73      55.5  T
   7    -32.8208772 -0.673104E-09  0.119E-04    3.73     170.9  T
     SCC iter.                  ...        0 min,  0.006 sec
     gradient                   ...        0 min,  0.001 sec
 * total energy  :   -32.3995531 Eh     change       -0.7645456E-04 Eh
   gradient norm :     0.0084058 Eh/α   predicted    -0.9008629E-04 (  17.83%)
   displ. norm   :     0.1258002 α      lambda       -0.2350113E-03
   maximum displ.:     0.0715472 α      in ANC's #6, #3, #4, ...

........................................................................
.............................. CYCLE   12 ..............................
........................................................................

 iter      E             dE          RMSdq      gap      omega  full diag
   1    -32.8251317 -0.328251E+02  0.508E-02    3.73       0.0  T
   2    -32.8251346 -0.295181E-05  0.295E-02    3.73       1.0  T
   3    -32.8251346  0.454821E-07  0.648E-03    3.73       3.2  T
   4    -32.8251348 -0.222612E-06  0.175E-03    3.73      11.7  T
   5    -32.8251348 -0.288000E-07  0.837E-04    3.73      24.4  T
   6    -32.8251348  0.547473E-10  0.614E-04    3.73      33.2  T
     SCC iter.                  ...        0 min,  0.006 sec
     gradient                   ...        0 min,  0.002 sec
 * total energy  :   -32.3996670 Eh     change       -0.1138731E-03 Eh
   gradient norm :     0.0055729 Eh/α   predicted    -0.1193674E-03 (   4.82%)
   displ. norm   :     0.1234385 α      lambda       -0.9540288E-04
   maximum displ.:     0.0772988 α      in ANC's #4, #6, #9, ...

........................................................................
.............................. CYCLE   13 ..............................
........................................................................

 iter      E             dE          RMSdq      gap      omega  full diag
   1    -32.8243601 -0.328244E+02  0.393E-02    3.73       0.0  T
   2    -32.8243606 -0.522668E-06  0.231E-02    3.73       1.0  T
   3    -32.8243606  0.261353E-08  0.229E-03    3.73       8.9  T
   4    -32.8243606 -0.321127E-07  0.746E-04    3.73      27.4  T
   5    -32.8243606 -0.579905E-08  0.433E-04    3.73      47.1  T
     SCC iter.                  ...        0 min,  0.005 sec
     gradient                   ...        0 min,  0.001 sec
 * total energy  :   -32.3997458 Eh     change       -0.7882950E-04 Eh
   gradient norm :     0.0038397 Eh/α   predicted    -0.4843208E-04 ( -38.56%)
   displ. norm   :     0.2728014 α      lambda       -0.2118073E-03
   maximum displ.:     0.1629295 α      in ANC's #6, #4, #9, ...

........................................................................
.............................. CYCLE   14 ..............................
........................................................................

 iter      E             dE          RMSdq      gap      omega  full diag
   1    -32.8236693 -0.328237E+02  0.944E-02    3.73       0.0  T
   2    -32.8236721 -0.280055E-05  0.553E-02    3.72       1.0  T
   3    -32.8236721 -0.698936E-07  0.503E-03    3.72       4.1  T
   4    -32.8236723 -0.143641E-06  0.176E-03    3.72      11.6  T
   5    -32.8236723 -0.179319E-07  0.113E-03    3.72      18.0  T
   6    -32.8236723 -0.815272E-08  0.502E-04    3.72      40.7  T
   7    -32.8236723 -0.301598E-08  0.125E-04    3.72     163.2  T
     SCC iter.                  ...        0 min,  0.006 sec
     gradient                   ...        0 min,  0.002 sec
 * total energy  :   -32.3998453 Eh     change       -0.9943817E-04 Eh
   gradient norm :     0.0070797 Eh/α   predicted    -0.1137860E-03 (  14.43%)
   displ. norm   :     0.0962456 α      lambda       -0.1591896E-03
   maximum displ.:     0.0605223 α      in ANC's #8, #2, #5, ...

........................................................................
.............................. CYCLE   15 ..............................
........................................................................

 iter      E             dE          RMSdq      gap      omega  full diag
   1    -32.8252977 -0.328253E+02  0.497E-02    3.72       0.0  T
   2    -32.8253015 -0.378388E-05  0.280E-02    3.72       1.0  T
   3    -32.8253016 -0.772349E-07  0.753E-03    3.72       2.7  T
   4    -32.8253016 -0.350506E-07  0.293E-03    3.72       7.0  T
   5    -32.8253018 -0.138569E-06  0.134E-03    3.72      15.3  T
   6    -32.8253018 -0.120667E-07  0.361E-04    3.72      56.5  T
   7    -32.8253018 -0.245421E-09  0.104E-04    3.72     195.4  T
     SCC iter.                  ...        0 min,  0.023 sec
     gradient                   ...        0 min,  0.002 sec
 * total energy  :   -32.3998531 Eh     change       -0.7851548E-05 Eh
   gradient norm :     0.0073376 Eh/α   predicted    -0.8033238E-04 ( 923.14%)
   displ. norm   :     0.0731134 α      lambda       -0.1354371E-03
   maximum displ.:     0.0534148 α      in ANC's #6, #4, #5, ...

........................................................................
.............................. CYCLE   16 ..............................
........................................................................

 iter      E             dE          RMSdq      gap      omega  full diag
   1    -32.8249764 -0.328250E+02  0.294E-02    3.72       0.0  T
   2    -32.8249780 -0.164002E-05  0.168E-02    3.73       1.2  T
   3    -32.8249779  0.833289E-07  0.540E-03    3.73       3.8  T
   4    -32.8249780 -0.430118E-07  0.265E-03    3.73       7.7  T
   5    -32.8249781 -0.135592E-06  0.663E-04    3.73      30.8  T
   6    -32.8249781 -0.215674E-08  0.278E-04    3.73      73.5  T
     SCC iter.                  ...        0 min,  0.006 sec
     gradient                   ...        0 min,  0.002 sec
 * total energy  :   -32.3999416 Eh     change       -0.8846408E-04 Eh
   gradient norm :     0.0039595 Eh/α   predicted    -0.6808181E-04 ( -23.04%)
   displ. norm   :     0.0722270 α      lambda        0.1748249E-04
   maximum displ.:     0.0527693 α      in ANC's #6, #4, #5, ...

........................................................................
.............................. CYCLE   17 ..............................
........................................................................

 iter      E             dE          RMSdq      gap      omega  full diag
   1    -32.8244466 -0.328244E+02  0.298E-02    3.73       0.0  T
   2    -32.8244484 -0.175137E-05  0.169E-02    3.73       1.2  T
   3    -32.8244483  0.727500E-07  0.556E-03    3.73       3.7  T
   4    -32.8244483 -0.364433E-07  0.269E-03    3.73       7.6  T
   5    -32.8244485 -0.138511E-06  0.695E-04    3.73      29.4  T
   6    -32.8244485 -0.239962E-08  0.286E-04    3.73      71.4  T
     SCC iter.                  ...        0 min,  0.006 sec
     gradient                   ...        0 min,  0.001 sec
 * total energy  :   -32.3999274 Eh     change        0.1419829E-04 Eh
   gradient norm :     0.0071060 Eh/α   predicted     0.8782182E-05 ( -38.15%)
   displ. norm   :     0.0440962 α      lambda       -0.1053130E-03
   maximum displ.:     0.0253152 α      in ANC's #7, #8, #1, ...

........................................................................
.............................. CYCLE   18 ..............................
........................................................................

 iter      E             dE          RMSdq      gap      omega  full diag
   1    -32.8249862 -0.328250E+02  0.230E-02    3.73       0.0  T
   2    -32.8249870 -0.873537E-06  0.130E-02    3.73       1.6  T
   3    -32.8249871 -0.448528E-07  0.362E-03    3.73       5.6  T
   4    -32.8249871 -0.187777E-07  0.837E-04    3.73      24.4  T
   5    -32.8249871 -0.172491E-09  0.498E-04    3.73      41.0  T
     SCC iter.                  ...        0 min,  0.004 sec
     gradient                   ...        0 min,  0.016 sec
 * total energy  :   -32.3999921 Eh     change       -0.6474396E-04 Eh
   gradient norm :     0.0035174 Eh/α   predicted    -0.5275947E-04 ( -18.51%)
   displ. norm   :     0.1040515 α      lambda       -0.7968670E-04
   maximum displ.:     0.0576905 α      in ANC's #6, #8, #4, ...

........................................................................
.............................. CYCLE   19 ..............................
........................................................................

 iter      E             dE          RMSdq      gap      omega  full diag
   1    -32.8250991 -0.328251E+02  0.404E-02    3.73       0.0  T
   2    -32.8250995 -0.465818E-06  0.237E-02    3.73       1.0  T
   3    -32.8250995  0.146936E-07  0.262E-03    3.73       7.8  T
   4    -32.8250996 -0.536392E-07  0.116E-03    3.73      17.5  T
   5    -32.8250996 -0.153479E-07  0.569E-04    3.73      35.9  T
   6    -32.8250996 -0.181322E-08  0.253E-04    3.73      80.8  T
     SCC iter.                  ...        0 min,  0.006 sec
     gradient                   ...        0 min,  0.002 sec
 * total energy  :   -32.4000426 Eh     change       -0.5049769E-04 Eh
   gradient norm :     0.0024221 Eh/α   predicted    -0.4027931E-04 ( -20.24%)
   displ. norm   :     0.1672856 α      lambda       -0.8568005E-04
   maximum displ.:     0.1069428 α      in ANC's #6, #8, #4, ...

........................................................................
.............................. CYCLE   20 ..............................
........................................................................

 iter      E             dE          RMSdq      gap      omega  full diag
   1    -32.8245949 -0.328246E+02  0.567E-02    3.74       0.0  T
   2    -32.8245954 -0.532587E-06  0.334E-02    3.74       1.0  T
   3    -32.8245951  0.360346E-06  0.503E-03    3.74       4.1  T
   4    -32.8245955 -0.383849E-06  0.187E-03    3.74      10.9  T
   5    -32.8245955 -0.672066E-07  0.557E-04    3.74      36.6  T
   6    -32.8245955 -0.122141E-08  0.238E-04    3.74      85.9  T
     SCC iter.                  ...        0 min,  0.006 sec
     gradient                   ...        0 min,  0.002 sec
 * total energy  :   -32.4001059 Eh     change       -0.6329851E-04 Eh
   gradient norm :     0.0023753 Eh/α   predicted    -0.4403921E-04 ( -30.43%)
   displ. norm   :     0.1817893 α      lambda       -0.8161590E-04
   maximum displ.:     0.1000475 α      in ANC's #6, #8, #1, ...
 * RMSD in coord.:     0.5474374 α      energy gain  -0.2568154E-01 Eh

generating ANC from exact Hessian ...
Using Lindh-Hessian (1995)
 Shifting diagonal of input Hessian by   9.168894701372273E-003
 Lowest  eigenvalues of input Hessian
    0.000000    0.000000    0.000000    0.000000    0.000000    0.000000
    0.010000    0.010611    0.012070    0.015999    0.016163    0.018942
    0.018994    0.019280    0.019367    0.019723    0.021305    0.021804
 Highest eigenvalues
    1.265861    1.289581    1.454460    1.772287    1.975583    2.392116
 

........................................................................
.............................. CYCLE   21 ..............................
........................................................................

 iter      E             dE          RMSdq      gap      omega  full diag
   1    -32.8248612 -0.328249E+02  0.503E-02    3.74       0.0  T
   2    -32.8248616 -0.416572E-06  0.298E-02    3.75       1.0  T
   3    -32.8248608  0.841488E-06  0.695E-03    3.74       2.9  T
   4    -32.8248617 -0.921365E-06  0.164E-03    3.75      12.4  T
   5    -32.8248617 -0.464678E-07  0.528E-04    3.75      38.7  T
   6    -32.8248617 -0.675499E-09  0.177E-04    3.75     115.6  T
     SCC iter.                  ...        0 min,  0.006 sec
     gradient                   ...        0 min,  0.002 sec
 * total energy  :   -32.4001535 Eh     change       -0.4757083E-04 Eh
   gradient norm :     0.0032447 Eh/α   predicted     0.0000000E+00 (-100.00%)
   displ. norm   :     0.0421901 α      lambda       -0.3644955E-04
   maximum displ.:     0.0304377 α      in ANC's #2, #3, #4, ...

........................................................................
.............................. CYCLE   22 ..............................
........................................................................

 iter      E             dE          RMSdq      gap      omega  full diag
   1    -32.8251925 -0.328252E+02  0.168E-02    3.74       0.0  T
   2    -32.8251927 -0.186070E-06  0.975E-03    3.74       2.1  T
   3    -32.8251927  0.143937E-07  0.186E-03    3.74      11.0  T
   4    -32.8251927 -0.201180E-07  0.706E-04    3.74      28.9  T
   5    -32.8251927 -0.906017E-08  0.294E-04    3.74      69.5  T
     SCC iter.                  ...        0 min,  0.005 sec
     gradient                   ...        0 min,  0.002 sec
 * total energy  :   -32.4001848 Eh     change       -0.3127043E-04 Eh
   gradient norm :     0.0015934 Eh/α   predicted    -0.1931583E-04 ( -38.23%)
   displ. norm   :     0.1463938 α      lambda       -0.5519381E-04
   maximum displ.:     0.1051375 α      in ANC's #2, #3, #1, ...

........................................................................
.............................. CYCLE   23 ..............................
........................................................................

 iter      E             dE          RMSdq      gap      omega  full diag
   1    -32.8254628 -0.328255E+02  0.502E-02    3.74       0.0  T
   2    -32.8254640 -0.116705E-05  0.294E-02    3.74       1.0  T
   3    -32.8254639  0.575860E-07  0.424E-03    3.74       4.8  T
   4    -32.8254641 -0.147141E-06  0.111E-03    3.74      18.4  T
   5    -32.8254641 -0.117946E-07  0.669E-04    3.74      30.5  T
   6    -32.8254641 -0.253179E-08  0.337E-04    3.74      60.5  T
     SCC iter.                  ...        0 min,  0.006 sec
     gradient                   ...        0 min,  0.002 sec
 * total energy  :   -32.4002288 Eh     change       -0.4401078E-04 Eh
   gradient norm :     0.0028368 Eh/α   predicted    -0.2786023E-04 ( -36.70%)
   displ. norm   :     0.0550682 α      lambda       -0.2443991E-04
   maximum displ.:     0.0421640 α      in ANC's #2, #7, #3, ...

........................................................................
.............................. CYCLE   24 ..............................
........................................................................

 iter      E             dE          RMSdq      gap      omega  full diag
   1    -32.8253952 -0.328254E+02  0.181E-02    3.74       0.0  T
   2    -32.8253953 -0.283069E-07  0.108E-02    3.74       1.9  T
   3    -32.8253953  0.415442E-08  0.910E-04    3.74      22.4  T
   4    -32.8253953 -0.127220E-07  0.419E-04    3.74      48.7  T
     SCC iter.                  ...        0 min,  0.004 sec
     gradient                   ...        0 min,  0.002 sec
 * total energy  :   -32.4002470 Eh     change       -0.1825389E-04 Eh
   gradient norm :     0.0024100 Eh/α   predicted    -0.1226061E-04 ( -32.83%)
   displ. norm   :     0.0732995 α      lambda       -0.3094583E-04
   maximum displ.:     0.0561275 α      in ANC's #2, #7, #1, ...

........................................................................
.............................. CYCLE   25 ..............................
........................................................................

 iter      E             dE          RMSdq      gap      omega  full diag
   1    -32.8253191 -0.328253E+02  0.207E-02    3.74       0.0  T
   2    -32.8253193 -0.108189E-06  0.122E-02    3.74       1.7  T
   3    -32.8253192  0.541821E-07  0.208E-03    3.74       9.8  T
   4    -32.8253193 -0.613004E-07  0.835E-04    3.74      24.5  T
   5    -32.8253193 -0.129475E-07  0.309E-04    3.74      66.1  T
     SCC iter.                  ...        0 min,  0.005 sec
     gradient                   ...        0 min,  0.002 sec
 * total energy  :   -32.4002708 Eh     change       -0.2380047E-04 Eh
   gradient norm :     0.0013836 Eh/α   predicted    -0.1555757E-04 ( -34.63%)
   displ. norm   :     0.1199276 α      lambda       -0.2125759E-04
   maximum displ.:     0.0937491 α      in ANC's #2, #7, #1, ...

........................................................................
.............................. CYCLE   26 ..............................
........................................................................

 iter      E             dE          RMSdq      gap      omega  full diag
   1    -32.8250868 -0.328251E+02  0.329E-02    3.74       0.0  T
   2    -32.8250871 -0.267383E-06  0.194E-02    3.74       1.1  T
   3    -32.8250871  0.303029E-07  0.230E-03    3.74       8.9  T
   4    -32.8250871 -0.499942E-07  0.987E-04    3.74      20.7  T
   5    -32.8250871 -0.149756E-07  0.441E-04    3.74      46.3  T
     SCC iter.                  ...        0 min,  0.005 sec
     gradient                   ...        0 min,  0.002 sec
 * total energy  :   -32.4002899 Eh     change       -0.1901503E-04 Eh
   gradient norm :     0.0018545 Eh/α   predicted    -0.1069907E-04 ( -43.73%)
   displ. norm   :     0.0481877 α      lambda       -0.8266145E-05
   maximum displ.:     0.0408970 α      in ANC's #2, #7, #6, ...

........................................................................
.............................. CYCLE   27 ..............................
........................................................................

 iter      E             dE          RMSdq      gap      omega  full diag
   1    -32.8253339 -0.328253E+02  0.134E-02    3.74       0.0  T
   2    -32.8253339 -0.449096E-07  0.796E-03    3.74       2.6  T
   3    -32.8253339  0.139895E-07  0.112E-03    3.74      18.2  T
   4    -32.8253339 -0.183343E-07  0.409E-04    3.74      49.9  T
   5    -32.8253339 -0.287316E-08  0.190E-04    3.74     107.6  T
     SCC iter.                  ...        0 min,  0.005 sec
     gradient                   ...        0 min,  0.002 sec
 * total energy  :   -32.4003000 Eh     change       -0.1014466E-04 Eh
   gradient norm :     0.0012041 Eh/α   predicted    -0.4139542E-05 ( -59.19%)
   displ. norm   :     0.0762144 α      lambda       -0.1093971E-04
   maximum displ.:     0.0613761 α      in ANC's #2, #7, #6, ...

........................................................................
.............................. CYCLE   28 ..............................
........................................................................

 iter      E             dE          RMSdq      gap      omega  full diag
   1    -32.8254869 -0.328255E+02  0.219E-02    3.74       0.0  T
   2    -32.8254869 -0.483654E-07  0.130E-02    3.74       1.6  T
   3    -32.8254868  0.704278E-07  0.198E-03    3.74      10.3  T
   4    -32.8254869 -0.816900E-07  0.564E-04    3.74      36.2  T
   5    -32.8254869 -0.503579E-08  0.233E-04    3.74      87.5  T
     SCC iter.                  ...        0 min,  0.005 sec
     gradient                   ...        0 min,  0.002 sec
 * total energy  :   -32.4003110 Eh     change       -0.1095108E-04 Eh
   gradient norm :     0.0006701 Eh/α   predicted    -0.5486078E-05 ( -49.90%)
   displ. norm   :     0.0681023 α      lambda       -0.5985971E-05
   maximum displ.:     0.0546404 α      in ANC's #2, #7, #3, ...

........................................................................
.............................. CYCLE   29 ..............................
........................................................................

 iter      E             dE          RMSdq      gap      omega  full diag
   1    -32.8254640 -0.328255E+02  0.203E-02    3.74       0.0  T
   2    -32.8254640 -0.191314E-07  0.121E-02    3.74       1.7  T
   3    -32.8254640  0.215831E-07  0.124E-03    3.74      16.5  T
   4    -32.8254640 -0.291728E-07  0.391E-04    3.74      52.2  T
   5    -32.8254640 -0.140037E-08  0.171E-04    3.74     119.3  T
     SCC iter.                  ...        0 min,  0.005 sec
     gradient                   ...        0 min,  0.004 sec
 * total energy  :   -32.4003162 Eh     change       -0.5261096E-05 Eh
   gradient norm :     0.0007338 Eh/α   predicted    -0.3001562E-05 ( -42.95%)
   displ. norm   :     0.0437522 α      lambda       -0.2656711E-05
   maximum displ.:     0.0347307 α      in ANC's #2, #7, #3, ...

........................................................................
.............................. CYCLE   30 ..............................
........................................................................

 iter      E             dE          RMSdq      gap      omega  full diag
   1    -32.8255300 -0.328255E+02  0.127E-02    3.74       0.0  T
   2    -32.8255300 -0.180231E-07  0.756E-03    3.74       2.7  T
   3    -32.8255300  0.834032E-08  0.822E-04    3.74      24.8  T
   4    -32.8255301 -0.103365E-07  0.331E-04    3.74      61.7  T
     SCC iter.                  ...        0 min,  0.004 sec
     gradient                   ...        0 min,  0.002 sec
 * total energy  :   -32.4003190 Eh     change       -0.2740700E-05 Eh
   gradient norm :     0.0004002 Eh/α   predicted    -0.1329933E-05 ( -51.47%)
   displ. norm   :     0.0376678 α      lambda       -0.1425987E-05
   maximum displ.:     0.0292658 α      in ANC's #2, #4, #7, ...

   *** GEOMETRY OPTIMIZATION CONVERGED AFTER 30 ITERATIONS ***

------------------------------------------------------------------------
 total energy gain   :        -0.0258946 Eh      -16.2491 kcal/mol
 total RMSD          :         0.5895923 a0        0.3120 Å
 total power (kW/mol):        -2.2662050 (step) -176.7586 (real)
------------------------------------------------------------------------

 ANCopt (total)                0 d,  0 h,  0 min,  0.385 sec
 optimizer setup                ...        0 min,  0.000 sec (  0.029%)
 model hessian                  ...        0 min,  0.023 sec (  6.109%)
 ANC generation                 ...        0 min,  0.002 sec (  0.446%)
 coordinate transformation      ...        0 min,  0.000 sec (  0.067%)
 single point calculation       ...        0 min,  0.346 sec ( 89.930%)
 optimization log               ...        0 min,  0.003 sec (  0.816%)
 hessian update                 ...        0 min,  0.006 sec (  1.651%)
 rational function              ...        0 min,  0.002 sec (  0.621%)

================
 final structure:
================
24
 xtb: 6.7.1 (edcfbbe)
C            2.70363835625289       -0.36605395741491       -0.71068532738617
C            2.20753344809139        0.70544848476652        0.20544701623725
C            2.98844545355782        1.60072140436407        0.80027926997552
C            0.73849090237514        0.76825004263581        0.46701670977481
O            0.21869589585362        1.62066895613871        1.14821311338625
O            0.10047613077770       -0.22812933831621       -0.14400291234020
C           -1.33521350189990       -0.38271443997967       -0.04146021073506
C           -1.63417457980035       -1.63198807533807       -0.87153958944066
C           -2.04051710242602        0.83673951378798       -0.63447370368003
C           -1.74209371145134       -0.59799465339793        1.41610774682295
H            3.78355253794782       -0.30761962590892       -0.81638718088660
H            2.43296847563318       -1.34662635798476       -0.32320147485863
H            2.24159880773011       -0.26410100436326       -1.69106900382511
H            2.56242429525700        2.34700923810320        1.44936364153839
H            4.05574238725450        1.61566703601711        0.65984330735962
H           -2.70092640030070       -1.83475988761529       -0.86852892965527
H           -1.10899890740441       -2.48917358651307       -0.45832737555741
H           -1.30353391075200       -1.48649718426040       -1.89662853138566
H           -1.81659170954086        1.72376830263461       -0.04834173126427
H           -3.11466252147562        0.67435284236835       -0.63257816776991
H           -1.70961584878930        0.99912241864541       -1.65831903212075
H           -2.80719619253871       -0.80438265664298        1.47123470980943
H           -1.52329169474552        0.28913712641304        2.00379150225620
H           -1.19675360960660       -1.44084759813880        1.83599115374532
 
 Bond Distances (Angstroems)
 ---------------------------
C1-C2=1.4945         C1-H11=1.0866        C1-H12=1.0885        C1-H13=1.0886        C2-C1=1.4945         C2-C3=1.3286         
C2-C4=1.4935         C3-C2=1.3286         C3-H14=1.0769        C3-H15=1.0766        C4-C2=1.4935         C4-O5=1.2086         
C4-O6=1.3316         O5-C4=1.2086         O6-C4=1.3316         O6-C7=1.4476         C7-O6=1.4476         C7-C8=1.5294         
C7-C9=1.5285         C7-C10=1.5285        C8-C7=1.5294         C8-H16=1.0859        C8-H17=1.0869        C8-H18=1.0869        
C9-C7=1.5285         C9-H19=1.0865        C9-H20=1.0864        C9-H21=1.0882        C10-C7=1.5285        C10-H22=1.0863       
C10-H23=1.0864       C10-H24=1.0882       H11-C1=1.0866        H12-C1=1.0885        H13-C1=1.0886        H14-C3=1.0769        
H15-C3=1.0766        H16-C8=1.0859        H17-C8=1.0869        H18-C8=1.0869        H19-C9=1.0865        H20-C9=1.0864        
H21-C9=1.0882        H22-C10=1.0863       H23-C10=1.0864       H24-C10=1.0882       
 C  H  Rav=1.0856 sigma=0.0037  Rmin=1.0766  Rmax=1.0886    14
 C  C  Rav=1.4838 sigma=0.0711  Rmin=1.3286  Rmax=1.5294     6
 O  C  Rav=1.3293 sigma=0.0976  Rmin=1.2086  Rmax=1.4476     3
 
 selected bond angles (degree)
 --------------------
H11-C1-C2=110.55               H12-C1-C2=110.19               H12-C1-H11=109.28              H13-C1-C2=110.12               
H13-C1-H11=109.22              H13-C1-H12=107.42              C3-C2-C1=124.23                C4-C2-C1=117.65                
C4-C2-C3=118.13                H14-C3-C2=120.28               H15-C3-C2=122.25               H15-C3-H14=117.46              
O5-C4-C2=123.46                O6-C4-C2=111.07                O6-C4-O5=125.47                C7-O6-C4=121.51                
C8-C7-O6=104.04                C9-C7-O6=110.18                C9-C7-C8=110.54                C10-C7-O6=110.28               
C10-C7-C8=110.52               C10-C7-C9=111.07               H16-C8-C7=110.06               H17-C8-C7=110.08               
H17-C8-H16=109.05              H18-C8-C7=110.06               H18-C8-H16=109.05              H18-C8-H17=108.49              
H19-C9-C7=110.30               H20-C9-C7=109.65               H20-C9-H19=108.96              H21-C9-C7=110.11               
H21-C9-H19=108.85              H21-C9-H20=108.94              H22-C10-C7=109.64              H23-C10-C7=110.32              
H23-C10-H22=108.98             H24-C10-C7=110.10              H24-C10-H22=108.94             H24-C10-H23=108.83             
 
 selected dihedral angles (degree)
 ---------------------------------
C3-C2-C1-H11=  0.10           C3-C2-C1-H12=121.00           C3-C2-C1-H13=239.32           C4-C2-C1-H11=180.18           
C4-C2-C1-H12=301.08           C4-C2-C1-H13= 59.40           H14-C3-C2-C1=179.98           H14-C3-C2-C4=359.90           
H15-C3-C2-C1=  0.00           H15-C3-C2-C4=179.91           O5-C4-C2-C1=182.91            O5-C4-C2-C3=  2.99            
O6-C4-C2-C1=  2.96            O6-C4-C2-C3=183.03            C7-O6-C4-C2=180.01            C7-O6-C4-O5=  0.05            
C8-C7-O6-C4=180.31            C9-C7-O6-C4= 61.80            C10-C7-O6-C4=298.84           H16-C8-C7-O6=180.53           
H16-C8-C7-C9=298.79           H16-C8-C7-C10= 62.17          H17-C8-C7-O6= 60.30           H17-C8-C7-C9=178.56           
H17-C8-C7-C10=301.94          H18-C8-C7-O6=300.76           H18-C8-C7-C9= 59.02           H18-C8-C7-C10=182.40          
H19-C9-C7-O6=295.07           H19-C9-C7-C8=180.63           H19-C9-C7-C10= 57.57          H20-C9-C7-O6=175.08           
H20-C9-C7-C8= 60.63           H20-C9-C7-C10=297.58          H21-C9-C7-O6= 55.22           H21-C9-C7-C8=300.78           
H21-C9-C7-C10=177.72          H22-C10-C7-O6=185.22          H22-C10-C7-C8=299.71          H22-C10-C7-C9= 62.78          
H23-C10-C7-O6= 65.20          H23-C10-C7-C8=179.69          H23-C10-C7-C9=302.76          H24-C10-C7-O6=305.06          
H24-C10-C7-C8= 59.55          H24-C10-C7-C9=182.62          
           -------------------------------------------------
          |                Final Singlepoint                |
           -------------------------------------------------

          ...................................................
          :                      SETUP                      :
          :.................................................:
          :  # basis functions                  54          :
          :  # atomic orbitals                  54          :
          :  # shells                           34          :
          :  # electrons                        58          :
          :  max. iterations                   250          :
          :  Hamiltonian                  GFN2-xTB          :
          :  restarted?                      false          :
          :  GBSA solvation                  false          :
          :  PC potential                    false          :
          :  electronic temp.          300.0000000     K    :
          :  accuracy                    1.0000000          :
          :  -> integral cutoff          0.2500000E+02      :
          :  -> integral neglect         0.1000000E-07      :
          :  -> SCF convergence          0.1000000E-05 Eh   :
          :  -> wf. convergence          0.1000000E-03 e    :
          :  Broyden damping             0.4000000          :
          :  net charge                          0          :
          :  unpaired electrons                  0          :
          ...................................................

 iter      E             dE          RMSdq      gap      omega  full diag
   1    -32.8255301 -0.328255E+02  0.125E-04    3.74       0.0  T
   2    -32.8255301 -0.214797E-10  0.863E-05    3.74     236.6  T
   3    -32.8255301 -0.458868E-10  0.551E-05    3.74     370.2  T

   *** convergence criteria satisfied after 3 iterations ***

         #    Occupation            Energy/Eh            Energy/eV
      -------------------------------------------------------------
         1        2.0000           -0.7303521             -19.8739
       ...           ...                  ...                  ...
        23        2.0000           -0.4617741             -12.5655
        24        2.0000           -0.4552019             -12.3867
        25        2.0000           -0.4500352             -12.2461
        26        2.0000           -0.4386948             -11.9375
        27        2.0000           -0.4298579             -11.6970
        28        2.0000           -0.4126163             -11.2279
        29        2.0000           -0.3983928             -10.8408 (HOMO)
        30                         -0.2609402              -7.1005 (LUMO)
        31                         -0.1559249              -4.2429
        32                         -0.0141699              -0.3856
        33                          0.0804383               2.1888
        34                          0.0905588               2.4642
       ...                                ...                  ...
        54                          0.7103153              19.3287
      -------------------------------------------------------------
                  HL-Gap            0.1374526 Eh            3.7403 eV
             Fermi-level           -0.3296665 Eh           -8.9707 eV

 SCC (total)                   0 d,  0 h,  0 min,  0.007 sec
 SCC setup                      ...        0 min,  0.000 sec (  3.485%)
 Dispersion                     ...        0 min,  0.000 sec (  1.458%)
 classical contributions        ...        0 min,  0.000 sec (  0.520%)
 integral evaluation            ...        0 min,  0.001 sec ( 12.478%)
 iterations                     ...        0 min,  0.003 sec ( 46.422%)
 molecular gradient             ...        0 min,  0.002 sec ( 33.496%)
 printout                       ...        0 min,  0.000 sec (  1.820%)

         :::::::::::::::::::::::::::::::::::::::::::::::::::::
         ::                     SUMMARY                     ::
         :::::::::::::::::::::::::::::::::::::::::::::::::::::
         :: total energy             -32.400318953761 Eh    ::
         :: gradient norm              0.000400191177 Eh/a0 ::
         :: HOMO-LUMO gap              3.740276707382 eV    ::
         ::.................................................::
         :: SCC energy               -32.825398992672 Eh    ::
         :: -> isotropic ES            0.050108168881 Eh    ::
         :: -> anisotropic ES          0.003024666360 Eh    ::
         :: -> anisotropic XC          0.011982389947 Eh    ::
         :: -> dispersion             -0.017371016595 Eh    ::
         :: repulsion energy           0.425080038912 Eh    ::
         :: add. restraining           0.000000000000 Eh    ::
         :: total charge               0.000000000000 e     ::
         :::::::::::::::::::::::::::::::::::::::::::::::::::::

           -------------------------------------------------
          |                Property Printout                |
           -------------------------------------------------

    * Orbital Energies and Occupations

         #    Occupation            Energy/Eh            Energy/eV
      -------------------------------------------------------------
         1        2.0000           -0.7303521             -19.8739
       ...           ...                  ...                  ...
        17        2.0000           -0.4892995             -13.3145
        18        2.0000           -0.4866221             -13.2417
        19        2.0000           -0.4737223             -12.8906
        20        2.0000           -0.4723037             -12.8520
        21        2.0000           -0.4703750             -12.7996
        22        2.0000           -0.4621450             -12.5756
        23        2.0000           -0.4617741             -12.5655
        24        2.0000           -0.4552019             -12.3867
        25        2.0000           -0.4500352             -12.2461
        26        2.0000           -0.4386948             -11.9375
        27        2.0000           -0.4298579             -11.6970
        28        2.0000           -0.4126163             -11.2279
        29        2.0000           -0.3983928             -10.8408 (HOMO)
        30                         -0.2609402              -7.1005 (LUMO)
        31                         -0.1559249              -4.2429
        32                         -0.0141699              -0.3856
        33                          0.0804383               2.1888
        34                          0.0905588               2.4642
        35                          0.1044055               2.8410
        36                          0.1055455               2.8720
        37                          0.1346907               3.6651
        38                          0.1468617               3.9963
        39                          0.1737934               4.7292
        40                          0.1855145               5.0481
       ...                                ...                  ...
        54                          0.7103153              19.3287
      -------------------------------------------------------------
                  HL-Gap            0.1374526 Eh            3.7403 eV
             Fermi-level           -0.3296665 Eh           -8.9707 eV

     #   Z          covCN         q      C6AA      α(0)
     1   6 C        3.757    -0.109    22.646     6.785
     2   6 C        2.938    -0.011    28.283     8.722
     3   6 C        2.849    -0.079    29.970     8.972
     4   6 C        2.713     0.355    20.967     7.495
     5   8 O        0.856    -0.428    22.239     6.323
     6   8 O        1.704    -0.273    18.529     5.812
     7   6 C        3.782     0.154    18.127     6.065
     8   6 C        3.757    -0.118    22.810     6.809
     9   6 C        3.756    -0.118    22.812     6.810
    10   6 C        3.756    -0.118    22.815     6.811
    11   1 H        0.925     0.049     2.336     2.390
    12   1 H        0.925     0.059     2.207     2.323
    13   1 H        0.925     0.058     2.224     2.332
    14   1 H        0.926     0.069     2.096     2.264
    15   1 H        0.926     0.053     2.280     2.361
    16   1 H        0.925     0.048     2.347     2.396
    17   1 H        0.925     0.051     2.305     2.374
    18   1 H        0.925     0.051     2.302     2.373
    19   1 H        0.925     0.067     2.122     2.278
    20   1 H        0.925     0.044     2.401     2.423
    21   1 H        0.925     0.042     2.419     2.432
    22   1 H        0.925     0.044     2.402     2.424
    23   1 H        0.925     0.067     2.117     2.275
    24   1 H        0.925     0.042     2.420     2.433

 Mol. C6AA /au·bohr⁶  :       4722.456511
 Mol. C8AA /au·bohr⁸  :     103381.250853
 Mol. α(0) /au        :        103.682908


Wiberg/Mayer (AO) data.
largest (>0.10) Wiberg bond orders for each atom

 ---------------------------------------------------------------------------
     #   Z sym  total        # sym  WBO       # sym  WBO       # sym  WBO
 ---------------------------------------------------------------------------
     1   6 C    3.995 --     2 C    1.030    11 H    0.984    13 H    0.969
                            12 H    0.968
     2   6 C    3.985 --     3 C    1.881     1 C    1.030     4 C    0.986
     3   6 C    3.987 --     2 C    1.881    15 H    0.975    14 H    0.971
     4   6 C    3.919 --     5 O    1.710     6 O    1.145     2 C    0.986
     5   8 O    2.023 --     4 C    1.710     6 O    0.174
     6   8 O    2.314 --     4 C    1.145     7 C    0.902     5 O    0.174
     7   6 C    3.923 --     8 C    0.995    10 C    0.994     9 C    0.994
                             6 O    0.902
     8   6 C    3.994 --     7 C    0.995    17 H    0.985    18 H    0.985
                            16 H    0.984
     9   6 C    3.993 --     7 C    0.994    21 H    0.985    20 H    0.984
                            19 H    0.980
    10   6 C    3.993 --     7 C    0.994    24 H    0.985    22 H    0.984
                            23 H    0.980
    11   1 H    0.998 --     1 C    0.984
    12   1 H    0.996 --     1 C    0.968
    13   1 H    0.997 --     1 C    0.969
    14   1 H    0.995 --     3 C    0.971
    15   1 H    0.996 --     3 C    0.975
    16   1 H    0.997 --     8 C    0.984
    17   1 H    0.997 --     8 C    0.985
    18   1 H    0.997 --     8 C    0.985
    19   1 H    0.996 --     9 C    0.980
    20   1 H    0.998 --     9 C    0.984
    21   1 H    0.998 --     9 C    0.985
    22   1 H    0.998 --    10 C    0.984
    23   1 H    0.995 --    10 C    0.980
    24   1 H    0.998 --    10 C    0.985
 ---------------------------------------------------------------------------

Topologies differ in total number of bonds
Writing topology from bond orders to xtbtopo.mol

molecular dipole:
                 x           y           z       tot (Debye)
 q only:        0.022      -0.737      -0.526
   full:        0.046      -0.811      -0.582       2.540
molecular quadrupole (traceless):
                xx          xy          yy          xz          yz          zz
 q only:        7.350       1.809      -4.292      -0.019      -2.113      -3.058
  q+dip:        8.218       2.066      -5.009       0.116      -2.813      -3.209
   full:        7.603       1.860      -4.992       0.236      -3.810      -2.611

           -------------------------------------------------
          |                Geometry Summary                 |
           -------------------------------------------------

      molecular mass/u    :      142.1958675
   center of mass at/Å    :        0.1795926       0.2189607       0.1593644
  moments of inertia/u·Å² :        0.2144162E+03   0.5796183E+03   0.6796102E+03
rotational constants/cm⁻¹ :        0.7862106E-01   0.2908403E-01   0.2480485E-01

 * 20 selected distances

     #   Z          #   Z                                           value/Å
     2   6 C        3   6 C                                       1.3285943
     4   6 C        5   8 O                                       1.2086495
     4   6 C        6   8 O                                       1.3316081
     7   6 C        8   6 C                                       1.5294099 (max)
     7   6 C        9   6 C                                       1.5284589
     7   6 C       10   6 C                                       1.5285293
     1   6 C       11   1 H                                       1.0866473
     1   6 C       12   1 H                                       1.0885442
     1   6 C       13   1 H                                       1.0885896
     3   6 C       14   1 H                                       1.0769170
     3   6 C       15   1 H                                       1.0766005 (min)
     8   6 C       16   1 H                                       1.0858569
     8   6 C       17   1 H                                       1.0868859
     8   6 C       18   1 H                                       1.0868755
     9   6 C       19   1 H                                       1.0865144
     9   6 C       20   1 H                                       1.0863524
     9   6 C       21   1 H                                       1.0881743
    10   6 C       22   1 H                                       1.0863142
    10   6 C       23   1 H                                       1.0863929
    10   6 C       24   1 H                                       1.0881632

 * 3 distinct bonds (by element types)

   Z      Z             #   av. dist./Å        max./Å        min./Å
   1 H    6 C          14     1.0856306     1.0885896     1.0766005
   6 C    6 C           4     1.4787481     1.5294099     1.3285943
   6 C    8 O           2     1.2701288     1.3316081     1.2086495


optimized geometry written to: xtbopt.xyz


           -------------------------------------------------
          | TOTAL ENERGY              -32.400318953761 Eh   |
          | GRADIENT NORM               0.000400191177 Eh/α |
          | HOMO-LUMO GAP               3.740276707382 eV   |
           -------------------------------------------------

------------------------------------------------------------------------
 * finished run on 2025/12/01 at 14:19:26.425     
------------------------------------------------------------------------
 total:
 * wall-time:     0 d,  0 h,  0 min,  0.477 sec
 *  cpu-time:     0 d,  0 h,  0 min,  9.969 sec
 * ratio c/w:    20.891 speedup
 SCF:
 * wall-time:     0 d,  0 h,  0 min,  0.021 sec
 *  cpu-time:     0 d,  0 h,  0 min,  0.475 sec
 * ratio c/w:    22.389 speedup
 ANC optimizer:
 * wall-time:     0 d,  0 h,  0 min,  0.393 sec
 *  cpu-time:     0 d,  0 h,  0 min,  8.952 sec
 * ratio c/w:    22.803 speedup

normal termination of xtb
