      -----------------------------------------------------------      
     |                   =====================                   |     
     |                           x T B                           |     
     |                   =====================                   |     
     |                         S. Grimme                         |     
     |          Mulliken Center for Theoretical Chemistry        |     
     |                    University of Bonn                     |     
      -----------------------------------------------------------      

   * xtb version 6.7.1 (edcfbbe) compiled by 'albert@albert-system' on 2024-07-22

   xtb is free software: you can redistribute it and/or modify it under
   the terms of the GNU Lesser General Public License as published by
   the Free Software Foundation, either version 3 of the License, or
   (at your option) any later version.
   
   xtb is distributed in the hope that it will be useful,
   but WITHOUT ANY WARRANTY; without even the implied warranty of
   MERCHANTABILITY or FITNESS FOR A PARTICULAR PURPOSE.  See the
   GNU Lesser General Public License for more details.
   
   Cite this work as:
   * C. Bannwarth, E. Caldeweyher, S. Ehlert, A. Hansen, P. Pracht,
     J. Seibert, S. Spicher, S. Grimme, WIREs Comput. Mol. Sci., 2020, 11,
     e01493. DOI: 10.1002/wcms.1493
   
   for GFN2-xTB:
   * C. Bannwarth, S. Ehlert and S. Grimme., J. Chem. Theory Comput., 2019,
     15, 1652-1671. DOI: 10.1021/acs.jctc.8b01176
   for GFN1-xTB:
   * S. Grimme, C. Bannwarth, P. Shushkov, J. Chem. Theory Comput., 2017,
     13, 1989-2009. DOI: 10.1021/acs.jctc.7b00118
   for GFN0-xTB:
   * P. Pracht, E. Caldeweyher, S. Ehlert, S. Grimme, ChemRxiv, 2019, preprint.
     DOI: 10.26434/chemrxiv.8326202.v1
   for GFN-FF:
   * S. Spicher and S. Grimme, Angew. Chem. Int. Ed., 2020, 59, 15665-15673.
     DOI: 10.1002/anie.202004239
   
   for ALPB and GBSA implicit solvation:
   * S. Ehlert, M. Stahn, S. Spicher, S. Grimme, J. Chem. Theory Comput.,
     2021, 17, 4250-4261. DOI: 10.1021/acs.jctc.1c00471
   
   for ddCOSMO and CPCM-X implicit solvation:
   * M. Stahn, S. Ehlert, S. Grimme, J. Phys. Chem. A,
     2023, XX, XXXX-XXXX. DOI: 10.1021/acs.jpca.3c04382
   
   for DFT-D4:
   * E. Caldeweyher, C. Bannwarth and S. Grimme, J. Chem. Phys., 2017,
     147, 034112. DOI: 10.1063/1.4993215
   * E. Caldeweyher, S. Ehlert, A. Hansen, H. Neugebauer, S. Spicher,
     C. Bannwarth and S. Grimme, J. Chem. Phys., 2019, 150, 154122.
     DOI: 10.1063/1.5090222
   * E. Caldeweyher, J.-M. Mewes, S. Ehlert and S. Grimme, Phys. Chem. Chem. Phys.
     2020, 22, 8499-8512. DOI: 10.1039/D0CP00502A
   
   for sTDA-xTB:
   * S. Grimme and C. Bannwarth, J. Chem. Phys., 2016, 145, 054103.
     DOI: 10.1063/1.4959605
   
   in the mass-spec context:
   * V. Asgeirsson, C. Bauer and S. Grimme, Chem. Sci., 2017, 8, 4879.
     DOI: 10.1039/c7sc00601b
   * J. Koopman and S. Grimme, ACS Omega 2019, 4, 12, 15120-15133.
     DOI: 10.1021/acsomega.9b02011
   
   for metadynamics refer to:
   * S. Grimme, J. Chem. Theory Comput., 2019, 155, 2847-2862
     DOI: 10.1021/acs.jctc.9b00143
   
   for SPH calculations refer to:
   * S. Spicher and S. Grimme, J. Chem. Theory Comput., 2021, 17, 1701-1714
     DOI: 10.1021/acs.jctc.0c01306
   
   for ONIOM refer to:
   * C. Plett, A. Katbashev, S. Ehlert, S. Grimme, M. Bursch,
     Phys. Chem. Chem. Phys., 2023, 25, 17860-17868. DOI: 10.1039/D3CP02178E
   
   for DIPRO refer to:
   * J. Kohn, N. Gildemeister, S. Grimme, D. Fazzi, A. Hansen,
     J. Chem. Phys., 2023, just accepted.
   
   for PTB refer to:
   * S. Grimme, M. Mueller, A. Hansen, J. Chem. Phys., 2023, 158, 124111.
     DOI: 10.1063/5.0137838
   
   with help from (in alphabetical order)
   P. Atkinson, C. Bannwarth, F. Bohle, G. Brandenburg, E. Caldeweyher
   M. Checinski, S. Dohm, S. Ehlert, S. Ehrlich, I. Gerasimov, C. Hölzer
   A. Katbashev, J. Kohn, J. Koopman, C. Lavigne, S. Lehtola, F. März, M. Müller,
   F. Musil, H. Neugebauer, J. Pisarek, C. Plett, P. Pracht, F. Pultar,
   J. Seibert, P. Shushkov, S. Spicher, M. Stahn, M. Steiner, T. Strunk,
   J. Stückrath, T. Rose, and J. Unsleber
   
 * started run on 2025/12/01 at 14:19:24.981     
   ID    Z sym.   atoms
    1    6 C      1-4, 7-10
    2    8 O      5, 6
    3    1 H      11-24

           -------------------------------------------------
          |                Calculation Setup                |
           -------------------------------------------------

          program call               : xtb pipeline_data/3_conformer_xyz/acrylates/rdkit/SJMYWORNLPSJQO-UHFFFAOYSA-N_conf212.xyz --opt --gfn 2-xTB --iterations 250
          coordinate file            : pipeline_data/3_conformer_xyz/acrylates/rdkit/SJMYWORNLPSJQO-UHFFFAOYSA-N_conf212.xyz
          omp threads                :                    24

########################################################################
[WARNING] Please study the warnings concerning your input carefully
-1- readin_getIntValue: could not parse '2-xTB'
########################################################################

           -------------------------------------------------
          |                 G F N 2 - x T B                 |
           -------------------------------------------------

        Reference                      10.1021/acs.jctc.8b01176
      * Hamiltonian:
        H0-scaling (s, p, d)           1.850000    2.230000    2.230000
        zeta-weighting                 0.500000
      * Dispersion:
        s8                             2.700000
        a1                             0.520000
        a2                             5.000000
        s9                             5.000000
      * Repulsion:
        kExp                           1.500000    1.000000
        rExp                           1.000000
      * Coulomb:
        alpha                          2.000000
        third order                    shell-resolved
        anisotropic                    true
        a3                             3.000000
        a5                             4.000000
        cn-shift                       1.200000
        cn-exp                         4.000000
        max-rad                        5.000000

q/qsh data taken from xtbrestart
CAMM data taken from xtbrestart

          ...................................................
          :                      SETUP                      :
          :.................................................:
          :  # basis functions                  54          :
          :  # atomic orbitals                  54          :
          :  # shells                           34          :
          :  # electrons                        58          :
          :  max. iterations                   250          :
          :  Hamiltonian                  GFN2-xTB          :
          :  restarted?                       true          :
          :  GBSA solvation                  false          :
          :  PC potential                    false          :
          :  electronic temp.          300.0000000     K    :
          :  accuracy                    1.0000000          :
          :  -> integral cutoff          0.2500000E+02      :
          :  -> integral neglect         0.1000000E-07      :
          :  -> SCF convergence          0.1000000E-05 Eh   :
          :  -> wf. convergence          0.1000000E-03 e    :
          :  Broyden damping             0.4000000          :
          :  net charge                          0          :
          :  unpaired electrons                  0          :
          ...................................................

 iter      E             dE          RMSdq      gap      omega  full diag
   1    -32.7655123 -0.327655E+02  0.415E+00    3.43       0.0  T
   2    -32.7698058 -0.429353E-02  0.248E+00    3.31       1.0  T
   3    -32.7638961  0.590979E-02  0.657E-01    3.44       1.0  T
   4    -32.7713355 -0.743943E-02  0.154E-01    3.34       1.0  T
   5    -32.7714941 -0.158586E-03  0.866E-02    3.35       1.0  T
   6    -32.7715117 -0.176032E-04  0.192E-02    3.36       1.1  T
   7    -32.7715153 -0.357854E-05  0.700E-03    3.35       2.9  T
   8    -32.7715153 -0.618010E-07  0.302E-03    3.35       6.8  T
   9    -32.7715154 -0.650498E-07  0.103E-03    3.35      19.8  T
  10    -32.7715154 -0.210439E-08  0.492E-04    3.35      41.5  T
  11    -32.7715154 -0.883965E-09  0.910E-05    3.35     224.2  T

   *** convergence criteria satisfied after 11 iterations ***

         #    Occupation            Energy/Eh            Energy/eV
      -------------------------------------------------------------
         1        2.0000           -0.7258976             -19.7527
       ...           ...                  ...                  ...
        23        2.0000           -0.4546655             -12.3721
        24        2.0000           -0.4511658             -12.2768
        25        2.0000           -0.4474500             -12.1757
        26        2.0000           -0.4327632             -11.7761
        27        2.0000           -0.4247423             -11.5578
        28        2.0000           -0.4179881             -11.3740
        29        2.0000           -0.4010093             -10.9120 (HOMO)
        30                         -0.2777907              -7.5591 (LUMO)
        31                         -0.1647428              -4.4829
        32                         -0.0163211              -0.4441
        33                          0.0712517               1.9389
        34                          0.0908602               2.4724
       ...                                ...                  ...
        54                          0.6386530              17.3786
      -------------------------------------------------------------
                  HL-Gap            0.1232186 Eh            3.3529 eV
             Fermi-level           -0.3394000 Eh           -9.2355 eV

 SCC (total)                   0 d,  0 h,  0 min,  0.023 sec
 SCC setup                      ...        0 min,  0.000 sec (  1.331%)
 Dispersion                     ...        0 min,  0.000 sec (  1.177%)
 classical contributions        ...        0 min,  0.000 sec (  0.449%)
 integral evaluation            ...        0 min,  0.001 sec (  3.785%)
 iterations                     ...        0 min,  0.020 sec ( 84.462%)
 molecular gradient             ...        0 min,  0.002 sec (  7.339%)
 printout                       ...        0 min,  0.000 sec (  1.319%)

         :::::::::::::::::::::::::::::::::::::::::::::::::::::
         ::                     SUMMARY                     ::
         :::::::::::::::::::::::::::::::::::::::::::::::::::::
         :: total energy             -32.376300989527 Eh    ::
         :: gradient norm              0.141408960261 Eh/a0 ::
         :: HOMO-LUMO gap              3.352949053124 eV    ::
         ::.................................................::
         :: SCC energy               -32.771396346248 Eh    ::
         :: -> isotropic ES            0.052193984833 Eh    ::
         :: -> anisotropic ES          0.002942948871 Eh    ::
         :: -> anisotropic XC          0.012976406408 Eh    ::
         :: -> dispersion             -0.017081675659 Eh    ::
         :: repulsion energy           0.395095356721 Eh    ::
         :: add. restraining           0.000000000000 Eh    ::
         :: total charge               0.000000000000 e     ::
         :::::::::::::::::::::::::::::::::::::::::::::::::::::

      ----------------------------------------------------------- 
     |                   =====================                   |
     |                        A N C O P T                        |
     |                   =====================                   |
     |               Approximate Normal Coordinate               |
     |                Rational Function Optimizer                |
      ----------------------------------------------------------- 
      ----------------------------------------------------------- 
     |                   =====================                   |
     |                        A N C O P T                        |
     |                   =====================                   |
     |               Approximate Normal Coordinate               |
     |                Rational Function Optimizer                |
      ----------------------------------------------------------- 

          ...................................................
          :                      SETUP                      :
          :.................................................:
          :   optimization level            normal          :
          :   max. optcycles                   200          :
          :   ANC micro-cycles                  20          :
          :   degrees of freedom                66          :
          :.................................................:
          :   RF solver                   davidson          :
          :   write xtbopt.log                true          :
          :   linear?                        false          :
          :   energy convergence         0.5000000E-05 Eh   :
          :   grad. convergence          0.1000000E-02 Eh/α :
          :   maxmium RF displ.          1.0000000          :
          :   Hlow (freq-cutoff)         0.1000000E-01      :
          :   Hmax (freq-cutoff)         5.0000000          :
          :   S6 in model hess.         20.0000000          :
          ...................................................

generating ANC from exact Hessian ...
Using Lindh-Hessian (1995)
 Shifting diagonal of input Hessian by   9.211572140459295E-003
 Lowest  eigenvalues of input Hessian
    0.000000    0.000000    0.000000    0.000000    0.000000    0.000000
    0.010000    0.010792    0.012178    0.016465    0.016919    0.019031
    0.019179    0.019479    0.019916    0.020685    0.022170    0.022977
 Highest eigenvalues
    1.327917    1.329965    1.509146    1.785175    2.000700    2.119886
 

........................................................................
.............................. CYCLE    1 ..............................
........................................................................

 iter      E             dE          RMSdq      gap      omega  full diag
   1    -32.7715154 -0.327715E+02  0.400E-05    3.35       0.0  T
   2    -32.7715154 -0.192557E-11  0.266E-05    3.35     767.2  T
   3    -32.7715154  0.250111E-11  0.190E-05    3.35    1074.9  T
     SCC iter.                  ...        0 min,  0.004 sec
     gradient                   ...        0 min,  0.003 sec
 * total energy  :   -32.3763010 Eh     change       -0.2309974E-10 Eh
   gradient norm :     0.1414085 Eh/α   predicted     0.0000000E+00 (-100.00%)
   displ. norm   :     0.3721389 α      lambda       -0.2433553E-01
   maximum displ.:     0.1962359 α      in ANC's #10, #18, #17, ...

........................................................................
.............................. CYCLE    2 ..............................
........................................................................

 iter      E             dE          RMSdq      gap      omega  full diag
   1    -32.8058774 -0.328059E+02  0.339E-01    3.52       0.0  T
   2    -32.8061752 -0.297774E-03  0.212E-01    3.57       1.0  T
   3    -32.8061093  0.658794E-04  0.895E-02    3.57       1.0  T
   4    -32.8061717 -0.623990E-04  0.421E-02    3.57       1.0  T
   5    -32.8062077 -0.360453E-04  0.663E-03    3.57       3.1  T
   6    -32.8062082 -0.418386E-06  0.348E-03    3.57       5.9  T
   7    -32.8062082 -0.232324E-07  0.883E-04    3.57      23.1  T
   8    -32.8062082 -0.239898E-08  0.440E-04    3.57      46.3  T
     SCC iter.                  ...        0 min,  0.009 sec
     gradient                   ...        0 min,  0.003 sec
 * total energy  :   -32.3930816 Eh     change       -0.1678061E-01 Eh
   gradient norm :     0.0592893 Eh/α   predicted    -0.1387059E-01 ( -17.34%)
   displ. norm   :     0.3584670 α      lambda       -0.7568273E-02
   maximum displ.:     0.2466856 α      in ANC's #10, #5, #15, ...

........................................................................
.............................. CYCLE    3 ..............................
........................................................................

 iter      E             dE          RMSdq      gap      omega  full diag
   1    -32.8217717 -0.328218E+02  0.184E-01    3.68       0.0  T
   2    -32.8219041 -0.132470E-03  0.116E-01    3.72       1.0  T
   3    -32.8218871  0.170278E-04  0.653E-02    3.72       1.0  T
   4    -32.8219123 -0.252014E-04  0.281E-02    3.72       1.0  T
   5    -32.8219275 -0.151783E-04  0.439E-03    3.72       4.6  T
   6    -32.8219277 -0.161098E-06  0.210E-03    3.72       9.7  T
   7    -32.8219277 -0.102847E-07  0.629E-04    3.72      32.5  T
   8    -32.8219277 -0.773092E-09  0.295E-04    3.72      69.2  T
     SCC iter.                  ...        0 min,  0.009 sec
     gradient                   ...        0 min,  0.002 sec
 * total energy  :   -32.3977123 Eh     change       -0.4630662E-02 Eh
   gradient norm :     0.0178617 Eh/α   predicted    -0.4274701E-02 (  -7.69%)
   displ. norm   :     0.2801275 α      lambda       -0.1575173E-02
   maximum displ.:     0.1916096 α      in ANC's #10, #5, #3, ...

........................................................................
.............................. CYCLE    4 ..............................
........................................................................

 iter      E             dE          RMSdq      gap      omega  full diag
   1    -32.8218683 -0.328219E+02  0.728E-02    3.73       0.0  T
   2    -32.8218777 -0.938354E-05  0.437E-02    3.73       1.0  T
   3    -32.8218709  0.675771E-05  0.277E-02    3.73       1.0  T
   4    -32.8218806 -0.964904E-05  0.737E-03    3.73       2.8  T
   5    -32.8218814 -0.845039E-06  0.159E-03    3.73      12.8  T
   6    -32.8218814 -0.134369E-07  0.679E-04    3.73      30.1  T
   7    -32.8218814 -0.137122E-08  0.206E-04    3.73      99.2  T
     SCC iter.                  ...        0 min,  0.008 sec
     gradient                   ...        0 min,  0.002 sec
 * total energy  :   -32.3987919 Eh     change       -0.1079631E-02 Eh
   gradient norm :     0.0108982 Eh/α   predicted    -0.8494029E-03 ( -21.32%)
   displ. norm   :     0.2467065 α      lambda       -0.6987352E-03
   maximum displ.:     0.1363408 α      in ANC's #10, #5, #3, ...

........................................................................
.............................. CYCLE    5 ..............................
........................................................................

 iter      E             dE          RMSdq      gap      omega  full diag
   1    -32.8221352 -0.328221E+02  0.552E-02    3.73       0.0  T
   2    -32.8221455 -0.102718E-04  0.325E-02    3.73       1.0  T
   3    -32.8221436  0.188056E-05  0.190E-02    3.73       1.1  T
   4    -32.8221463 -0.265556E-05  0.842E-03    3.73       2.4  T
   5    -32.8221474 -0.112180E-05  0.126E-03    3.73      16.2  T
   6    -32.8221474 -0.935851E-08  0.591E-04    3.73      34.6  T
   7    -32.8221474 -0.961606E-09  0.154E-04    3.73     132.8  T
     SCC iter.                  ...        0 min,  0.008 sec
     gradient                   ...        0 min,  0.003 sec
 * total energy  :   -32.3992594 Eh     change       -0.4675092E-03 Eh
   gradient norm :     0.0055727 Eh/α   predicted    -0.3706496E-03 ( -20.72%)
   displ. norm   :     0.1945116 α      lambda       -0.3155033E-03
   maximum displ.:     0.1175711 α      in ANC's #3, #5, #8, ...

........................................................................
.............................. CYCLE    6 ..............................
........................................................................

 iter      E             dE          RMSdq      gap      omega  full diag
   1    -32.8230879 -0.328231E+02  0.413E-02    3.73       0.0  T
   2    -32.8230916 -0.373074E-05  0.246E-02    3.72       1.0  T
   3    -32.8230906  0.102702E-05  0.115E-02    3.73       1.8  T
   4    -32.8230916 -0.102357E-05  0.541E-03    3.73       3.8  T
   5    -32.8230921 -0.524571E-06  0.872E-04    3.73      23.4  T
   6    -32.8230921 -0.443702E-08  0.432E-04    3.73      47.3  T
     SCC iter.                  ...        0 min,  0.007 sec
     gradient                   ...        0 min,  0.002 sec
 * total energy  :   -32.3994821 Eh     change       -0.2226468E-03 Eh
   gradient norm :     0.0051802 Eh/α   predicted    -0.1637616E-03 ( -26.45%)
   displ. norm   :     0.2084712 α      lambda       -0.2390485E-03
   maximum displ.:     0.1330550 α      in ANC's #3, #9, #8, ...

........................................................................
.............................. CYCLE    7 ..............................
........................................................................

 iter      E             dE          RMSdq      gap      omega  full diag
   1    -32.8235106 -0.328235E+02  0.448E-02    3.73       0.0  T
   2    -32.8235119 -0.125460E-05  0.269E-02    3.72       1.0  T
   3    -32.8235115  0.392693E-06  0.572E-03    3.73       3.6  T
   4    -32.8235119 -0.367607E-06  0.291E-03    3.73       7.0  T
   5    -32.8235120 -0.159376E-06  0.687E-04    3.72      29.7  T
   6    -32.8235120 -0.149188E-08  0.325E-04    3.73      62.9  T
     SCC iter.                  ...        0 min,  0.007 sec
     gradient                   ...        0 min,  0.003 sec
 * total energy  :   -32.3996537 Eh     change       -0.1716231E-03 Eh
   gradient norm :     0.0069852 Eh/α   predicted    -0.1247212E-03 ( -27.33%)
   displ. norm   :     0.2281516 α      lambda       -0.2306482E-03
   maximum displ.:     0.1377638 α      in ANC's #3, #4, #9, ...

........................................................................
.............................. CYCLE    8 ..............................
........................................................................

 iter      E             dE          RMSdq      gap      omega  full diag
   1    -32.8237689 -0.328238E+02  0.503E-02    3.73       0.0  T
   2    -32.8237694 -0.510241E-06  0.301E-02    3.73       1.0  T
   3    -32.8237693  0.796339E-07  0.337E-03    3.73       6.1  T
   4    -32.8237694 -0.124549E-06  0.158E-03    3.73      12.9  T
   5    -32.8237695 -0.359101E-07  0.622E-04    3.73      32.8  T
   6    -32.8237695 -0.277836E-08  0.245E-04    3.73      83.3  T
     SCC iter.                  ...        0 min,  0.007 sec
     gradient                   ...        0 min,  0.002 sec
 * total energy  :   -32.3998179 Eh     change       -0.1642511E-03 Eh
   gradient norm :     0.0070242 Eh/α   predicted    -0.1213292E-03 ( -26.13%)
   displ. norm   :     0.2200872 α      lambda       -0.2263695E-03
   maximum displ.:     0.1146214 α      in ANC's #4, #3, #9, ...

........................................................................
.............................. CYCLE    9 ..............................
........................................................................

 iter      E             dE          RMSdq      gap      omega  full diag
   1    -32.8241075 -0.328241E+02  0.508E-02    3.74       0.0  T
   2    -32.8241092 -0.174752E-05  0.301E-02    3.74       1.0  T
   3    -32.8241091  0.155229E-06  0.623E-03    3.74       3.3  T
   4    -32.8241094 -0.292608E-06  0.113E-03    3.74      18.1  T
   5    -32.8241094 -0.126872E-07  0.480E-04    3.74      42.5  T
   6    -32.8241094  0.426404E-09  0.265E-04    3.74      77.1  T
     SCC iter.                  ...        0 min,  0.007 sec
     gradient                   ...        0 min,  0.002 sec
 * total energy  :   -32.3999739 Eh     change       -0.1559906E-03 Eh
   gradient norm :     0.0051236 Eh/α   predicted    -0.1186939E-03 ( -23.91%)
   displ. norm   :     0.1734347 α      lambda       -0.1664064E-03
   maximum displ.:     0.1053064 α      in ANC's #4, #8, #7, ...

........................................................................
.............................. CYCLE   10 ..............................
........................................................................

 iter      E             dE          RMSdq      gap      omega  full diag
   1    -32.8245198 -0.328245E+02  0.415E-02    3.74       0.0  T
   2    -32.8245217 -0.186171E-05  0.243E-02    3.75       1.0  T
   3    -32.8245215  0.140125E-06  0.687E-03    3.74       3.0  T
   4    -32.8245217 -0.206469E-06  0.197E-03    3.75      10.3  T
   5    -32.8245218 -0.631146E-07  0.696E-04    3.75      29.3  T
   6    -32.8245218 -0.568669E-08  0.322E-04    3.75      63.4  T
     SCC iter.                  ...        0 min,  0.009 sec
     gradient                   ...        0 min,  0.003 sec
 * total energy  :   -32.4000867 Eh     change       -0.1127842E-03 Eh
   gradient norm :     0.0033397 Eh/α   predicted    -0.8571123E-04 ( -24.00%)
   displ. norm   :     0.1655717 α      lambda       -0.1070477E-03
   maximum displ.:     0.1116444 α      in ANC's #4, #7, #8, ...

........................................................................
.............................. CYCLE   11 ..............................
........................................................................

 iter      E             dE          RMSdq      gap      omega  full diag
   1    -32.8242362 -0.328242E+02  0.372E-02    3.75       0.0  T
   2    -32.8242367 -0.502243E-06  0.222E-02    3.75       1.0  T
   3    -32.8242365  0.137653E-06  0.389E-03    3.75       5.2  T
   4    -32.8242367 -0.156199E-06  0.164E-03    3.75      12.4  T
   5    -32.8242367 -0.473513E-07  0.551E-04    3.75      37.0  T
   6    -32.8242367 -0.219229E-08  0.231E-04    3.75      88.5  T
     SCC iter.                  ...        0 min,  0.010 sec
     gradient                   ...        0 min,  0.005 sec
 * total energy  :   -32.4001587 Eh     change       -0.7197159E-04 Eh
   gradient norm :     0.0042446 Eh/α   predicted    -0.5500065E-04 ( -23.58%)
   displ. norm   :     0.1194014 α      lambda       -0.9234137E-04
   maximum displ.:     0.0780244 α      in ANC's #4, #7, #3, ...

........................................................................
.............................. CYCLE   12 ..............................
........................................................................

 iter      E             dE          RMSdq      gap      omega  full diag
   1    -32.8262308 -0.328262E+02  0.317E-02    3.74       0.0  T
   2    -32.8262316 -0.736782E-06  0.185E-02    3.74       1.1  T
   3    -32.8262315  0.428087E-07  0.363E-03    3.75       5.6  T
   4    -32.8262316 -0.505988E-07  0.188E-03    3.74      10.9  T
   5    -32.8262316 -0.626310E-07  0.617E-04    3.74      33.1  T
   6    -32.8262316 -0.128497E-08  0.200E-04    3.74     102.2  T
     SCC iter.                  ...        0 min,  0.016 sec
     gradient                   ...        0 min,  0.005 sec
 * total energy  :   -32.4002024 Eh     change       -0.4371048E-04 Eh
   gradient norm :     0.0040500 Eh/α   predicted    -0.4684158E-04 (   7.16%)
   displ. norm   :     0.2457592 α      lambda       -0.1041372E-03
   maximum displ.:     0.1632133 α      in ANC's #4, #7, #8, ...

........................................................................
.............................. CYCLE   13 ..............................
........................................................................

 iter      E             dE          RMSdq      gap      omega  full diag
   1    -32.8229466 -0.328229E+02  0.595E-02    3.74       0.0  T
   2    -32.8229491 -0.250757E-05  0.350E-02    3.74       1.0  T
   3    -32.8229492 -0.219011E-07  0.621E-03    3.74       3.3  T
   4    -32.8229493 -0.111108E-06  0.232E-03    3.74       8.8  T
   5    -32.8229493 -0.790438E-07  0.119E-03    3.74      17.1  T
   6    -32.8229494 -0.921232E-08  0.390E-04    3.74      52.3  T
   7    -32.8229494 -0.921197E-09  0.118E-04    3.74     173.1  T
     SCC iter.                  ...        0 min,  0.011 sec
     gradient                   ...        0 min,  0.002 sec
 * total energy  :   -32.4001972 Eh     change        0.5184929E-05 Eh
   gradient norm :     0.0058952 Eh/α   predicted    -0.5521532E-04 (*******%)
   displ. norm   :     0.1253560 α      lambda       -0.1215115E-03
   maximum displ.:     0.0754529 α      in ANC's #4, #8, #7, ...

........................................................................
.............................. CYCLE   14 ..............................
........................................................................

 iter      E             dE          RMSdq      gap      omega  full diag
   1    -32.8255560 -0.328256E+02  0.329E-02    3.74       0.0  T
   2    -32.8255570 -0.100424E-05  0.190E-02    3.74       1.1  T
   3    -32.8255570  0.257446E-07  0.459E-03    3.74       4.5  T
   4    -32.8255571 -0.622564E-07  0.196E-03    3.74      10.4  T
   5    -32.8255571 -0.629752E-07  0.771E-04    3.74      26.5  T
   6    -32.8255571 -0.327160E-08  0.263E-04    3.74      77.7  T
     SCC iter.                  ...        0 min,  0.007 sec
     gradient                   ...        0 min,  0.003 sec
 * total energy  :   -32.4002549 Eh     change       -0.5774585E-04 Eh
   gradient norm :     0.0020845 Eh/α   predicted    -0.6171881E-04 (   6.88%)
   displ. norm   :     0.0320551 α      lambda       -0.1876681E-04
   maximum displ.:     0.0170483 α      in ANC's #7, #3, #4, ...

........................................................................
.............................. CYCLE   15 ..............................
........................................................................

 iter      E             dE          RMSdq      gap      omega  full diag
   1    -32.8257307 -0.328257E+02  0.133E-02    3.74       0.0  T
   2    -32.8257309 -0.130719E-06  0.766E-03    3.74       2.7  T
   3    -32.8257308  0.269122E-07  0.205E-03    3.74      10.0  T
   4    -32.8257309 -0.281922E-07  0.811E-04    3.74      25.2  T
   5    -32.8257309 -0.124118E-07  0.268E-04    3.74      76.1  T
     SCC iter.                  ...        0 min,  0.006 sec
     gradient                   ...        0 min,  0.003 sec
 * total energy  :   -32.4002686 Eh     change       -0.1364190E-04 Eh
   gradient norm :     0.0011454 Eh/α   predicted    -0.9397462E-05 ( -31.11%)
   displ. norm   :     0.2053632 α      lambda       -0.3913424E-04
   maximum displ.:     0.1240676 α      in ANC's #7, #4, #3, ...

........................................................................
.............................. CYCLE   16 ..............................
........................................................................

 iter      E             dE          RMSdq      gap      omega  full diag
   1    -32.8250899 -0.328251E+02  0.544E-02    3.74       0.0  T
   2    -32.8250908 -0.968337E-06  0.320E-02    3.73       1.0  T
   3    -32.8250907  0.123077E-06  0.486E-03    3.74       4.2  T
   4    -32.8250909 -0.178291E-06  0.209E-03    3.73       9.8  T
   5    -32.8250910 -0.681250E-07  0.801E-04    3.74      25.5  T
   6    -32.8250910 -0.199730E-08  0.329E-04    3.74      62.0  T
     SCC iter.                  ...        0 min,  0.007 sec
     gradient                   ...        0 min,  0.002 sec
 * total energy  :   -32.4002783 Eh     change       -0.9744794E-05 Eh
   gradient norm :     0.0038611 Eh/α   predicted    -0.1993472E-04 ( 104.57%)
   displ. norm   :     0.0341709 α      lambda       -0.2681943E-04
   maximum displ.:     0.0242593 α      in ANC's #4, #7, #6, ...

........................................................................
.............................. CYCLE   17 ..............................
........................................................................

 iter      E             dE          RMSdq      gap      omega  full diag
   1    -32.8254628 -0.328255E+02  0.132E-02    3.74       0.0  T
   2    -32.8254630 -0.264318E-06  0.744E-03    3.74       2.7  T
   3    -32.8254630  0.852294E-08  0.246E-03    3.74       8.3  T
   4    -32.8254630 -0.124496E-07  0.987E-04    3.74      20.7  T
   5    -32.8254631 -0.165833E-07  0.302E-04    3.74      67.6  T
     SCC iter.                  ...        0 min,  0.005 sec
     gradient                   ...        0 min,  0.003 sec
 * total energy  :   -32.4002948 Eh     change       -0.1642438E-04 Eh
   gradient norm :     0.0016972 Eh/α   predicted    -0.1343038E-04 ( -18.23%)
   displ. norm   :     0.0268797 α      lambda       -0.9725689E-05
   maximum displ.:     0.0119352 α      in ANC's #5, #8, #4, ...

........................................................................
.............................. CYCLE   18 ..............................
........................................................................

 iter      E             dE          RMSdq      gap      omega  full diag
   1    -32.8255972 -0.328256E+02  0.124E-02    3.74       0.0  T
   2    -32.8255975 -0.372796E-06  0.688E-03    3.74       3.0  T
   3    -32.8255975  0.456816E-08  0.284E-03    3.74       7.2  T
   4    -32.8255976 -0.146038E-07  0.902E-04    3.74      22.6  T
   5    -32.8255976 -0.140571E-07  0.321E-04    3.74      63.6  T
     SCC iter.                  ...        0 min,  0.005 sec
     gradient                   ...        0 min,  0.003 sec
 * total energy  :   -32.4003019 Eh     change       -0.7126860E-05 Eh
   gradient norm :     0.0007890 Eh/α   predicted    -0.4867506E-05 ( -31.70%)
   displ. norm   :     0.0332778 α      lambda       -0.4470938E-05
   maximum displ.:     0.0225255 α      in ANC's #7, #2, #8, ...

........................................................................
.............................. CYCLE   19 ..............................
........................................................................

 iter      E             dE          RMSdq      gap      omega  full diag
   1    -32.8254839 -0.328255E+02  0.776E-03    3.74       0.0  T
   2    -32.8254839 -0.596285E-08  0.466E-03    3.74       4.4  T
   3    -32.8254839  0.354134E-08  0.540E-04    3.74      37.8  T
   4    -32.8254839 -0.479806E-08  0.198E-04    3.74     103.3  T
     SCC iter.                  ...        0 min,  0.004 sec
     gradient                   ...        0 min,  0.003 sec
 * total energy  :   -32.4003073 Eh     change       -0.5380036E-05 Eh
   gradient norm :     0.0008487 Eh/α   predicted    -0.2238863E-05 ( -58.39%)
   displ. norm   :     0.0980417 α      lambda       -0.1078922E-04
   maximum displ.:     0.0639965 α      in ANC's #7, #2, #8, ...

........................................................................
.............................. CYCLE   20 ..............................
........................................................................

 iter      E             dE          RMSdq      gap      omega  full diag
   1    -32.8252065 -0.328252E+02  0.227E-02    3.74       0.0  T
   2    -32.8252065 -0.733405E-07  0.136E-02    3.74       1.5  T
   3    -32.8252065 -0.363489E-08  0.881E-04    3.74      23.2  T
   4    -32.8252065 -0.773477E-08  0.346E-04    3.74      59.1  T
     SCC iter.                  ...        0 min,  0.004 sec
     gradient                   ...        0 min,  0.003 sec
 * total energy  :   -32.4003159 Eh     change       -0.8677486E-05 Eh
   gradient norm :     0.0010640 Eh/α   predicted    -0.5418651E-05 ( -37.56%)
   displ. norm   :     0.0278970 α      lambda       -0.3142866E-05
   maximum displ.:     0.0162157 α      in ANC's #2, #8, #1, ...
 * RMSD in coord.:     0.4266028 α      energy gain  -0.2401495E-01 Eh

generating ANC from exact Hessian ...
Using Lindh-Hessian (1995)
 Shifting diagonal of input Hessian by   9.168214321859601E-003
 Lowest  eigenvalues of input Hessian
    0.000000    0.000000    0.000000    0.000000    0.000000    0.000000
    0.010000    0.010614    0.012089    0.015995    0.016195    0.018965
    0.019015    0.019333    0.019397    0.019723    0.021280    0.021818
 Highest eigenvalues
    1.267697    1.291639    1.452991    1.773084    1.977174    2.393384
 

........................................................................
.............................. CYCLE   21 ..............................
........................................................................

 iter      E             dE          RMSdq      gap      omega  full diag
   1    -32.8254936 -0.328255E+02  0.731E-03    3.74       0.0  T
   2    -32.8254936 -0.228255E-07  0.432E-03    3.74       4.7  T
   3    -32.8254936  0.450008E-09  0.588E-04    3.74      34.7  T
   4    -32.8254936 -0.230809E-08  0.214E-04    3.74      95.4  T
     SCC iter.                  ...        0 min,  0.004 sec
     gradient                   ...        0 min,  0.002 sec
 * total energy  :   -32.4003192 Eh     change       -0.3272039E-05 Eh
   gradient norm :     0.0007502 Eh/α   predicted     0.0000000E+00 (-100.00%)
   displ. norm   :     0.0135204 α      lambda       -0.5906944E-06
   maximum displ.:     0.0076043 α      in ANC's #6, #2, #3, ...

   *** GEOMETRY OPTIMIZATION CONVERGED AFTER 21 ITERATIONS ***

------------------------------------------------------------------------
 total energy gain   :        -0.0240182 Eh      -15.0717 kcal/mol
 total RMSD          :         0.4266028 a0        0.2257 Å
 total power (kW/mol):        -3.0028493 (step) -228.0844 (real)
------------------------------------------------------------------------

 ANCopt (total)                0 d,  0 h,  0 min,  0.276 sec
 optimizer setup                ...        0 min,  0.000 sec (  0.041%)
 model hessian                  ...        0 min,  0.024 sec (  8.509%)
 ANC generation                 ...        0 min,  0.002 sec (  0.841%)
 coordinate transformation      ...        0 min,  0.000 sec (  0.063%)
 single point calculation       ...        0 min,  0.237 sec ( 85.801%)
 optimization log               ...        0 min,  0.005 sec (  1.968%)
 hessian update                 ...        0 min,  0.003 sec (  0.926%)
 rational function              ...        0 min,  0.002 sec (  0.733%)

================
 final structure:
================
24
 xtb: 6.7.1 (edcfbbe)
C            2.75605546340216       -0.44984292499732        0.39501579506478
C            2.18392997548650        0.20926836142620       -0.81806480698924
C            2.90877925204214        0.65246312652102       -1.83955863312621
C            0.70133380118870        0.37752747154315       -0.88313923615339
O            0.13114270991913        0.90824350668875       -1.80725697635949
O            0.11364886073676       -0.13110320631691        0.19801255645380
C           -1.32449999372628       -0.09872752974323        0.36219977325402
C           -1.56022516026305       -0.78220641585675        1.71001093010870
C           -2.00087128747869       -0.88359947224690       -0.76143603539349
C           -1.82091868829146        1.34619641171557        0.40012527940081
H            2.32708690180236       -1.44194661613871        0.52115870383056
H            2.51182073383962        0.12709570686186        1.28564817812052
H            3.83679990013637       -0.53383048120139        0.30917466540893
H            3.98145705938177        0.56463338204888       -1.86437424914666
H            2.42922594008629        1.11952516595592       -2.68317640940986
H           -2.62151155332768       -0.79657814849636        1.93938527388357
H           -1.03442403410452       -0.24689832212376        2.49639645572339
H           -1.18959431485256       -1.80352785933040        1.68087895856040
H           -1.58841115754029       -1.88912425583183       -0.81470592566920
H           -1.84307181443982       -0.38942562432768       -1.71608685970240
H           -3.06773638415112       -0.95057960768544       -0.56987781084253
H           -1.62994538175197        1.83550922004094       -0.55082548958657
H           -1.31063051125800        1.89700277269696        1.18776553763805
H           -2.88943931683633        1.35992633879742        0.59539132493192
 
 Bond Distances (Angstroems)
 ---------------------------
C1-C2=1.4944         C1-H11=1.0882        C1-H12=1.0889        C1-H13=1.0874        C2-C1=1.4944         C2-C3=1.3286         
C2-C4=1.4935         C3-C2=1.3286         C3-H14=1.0766        C3-H15=1.0769        C4-C2=1.4935         C4-O5=1.2086         
C4-O6=1.3315         O5-C4=1.2086         O6-C4=1.3315         O6-C7=1.4479         C7-O6=1.4479         C7-C8=1.5295         
C7-C9=1.5284         C7-C10=1.5283        C8-C7=1.5295         C8-H16=1.0859        C8-H17=1.0869        C8-H18=1.0869        
C9-C7=1.5284         C9-H19=1.0881        C9-H20=1.0865        C9-H21=1.0860        C10-C7=1.5283        C10-H22=1.0864       
C10-H23=1.0882       C10-H24=1.0863       H11-C1=1.0882        H12-C1=1.0889        H13-C1=1.0874        H14-C3=1.0766        
H15-C3=1.0769        H16-C8=1.0859        H17-C8=1.0869        H18-C8=1.0869        H19-C9=1.0881        H20-C9=1.0865        
H21-C9=1.0860        H22-C10=1.0864       H23-C10=1.0882       H24-C10=1.0863       
 C  H  Rav=1.0857 sigma=0.0037  Rmin=1.0766  Rmax=1.0889    14
 C  C  Rav=1.4838 sigma=0.0711  Rmin=1.3286  Rmax=1.5295     6
 O  C  Rav=1.3293 sigma=0.0977  Rmin=1.2086  Rmax=1.4479     3
 
 selected bond angles (degree)
 --------------------
H11-C1-C2=110.20               H12-C1-C2=110.14               H12-C1-H11=107.45              H13-C1-C2=110.52               
H13-C1-H11=109.30              H13-C1-H12=109.17              C3-C2-C1=124.22                C4-C2-C1=117.72                
C4-C2-C3=118.07                H14-C3-C2=122.28               H15-C3-C2=120.26               H15-C3-H14=117.45              
O5-C4-C2=123.44                O6-C4-C2=111.08                O6-C4-O5=125.47                C7-O6-C4=121.46                
C8-C7-O6=104.07                C9-C7-O6=110.16                C9-C7-C8=110.50                C10-C7-O6=110.28               
C10-C7-C8=110.52               C10-C7-C9=111.10               H16-C8-C7=110.04               H17-C8-C7=110.05               
H17-C8-H16=109.06              H18-C8-C7=110.10               H18-C8-H16=109.06              H18-C8-H17=108.49              
H19-C9-C7=110.05               H20-C9-C7=110.37               H20-C9-H19=108.80              H21-C9-C7=109.68               
H21-C9-H19=108.91              H21-C9-H20=109.01              H22-C10-C7=110.31              H23-C10-C7=110.13              
H23-C10-H22=108.85             H24-C10-C7=109.63              H24-C10-H22=108.94             H24-C10-H23=108.95             
 
 selected dihedral angles (degree)
 ---------------------------------
C3-C2-C1-H11=237.75           C3-C2-C1-H12=119.37           C3-C2-C1-H13=358.66           C4-C2-C1-H11= 57.68           
C4-C2-C1-H12=299.31           C4-C2-C1-H13=178.60           H14-C3-C2-C1=  0.05           H14-C3-C2-C4=180.11           
H15-C3-C2-C1=180.06           H15-C3-C2-C4=  0.13           O5-C4-C2-C1=179.17            O5-C4-C2-C3=359.11            
O6-C4-C2-C1=359.11            O6-C4-C2-C3=179.05            C7-O6-C4-C2=180.52            C7-O6-C4-O5=  0.45            
C8-C7-O6-C4=179.69            C9-C7-O6-C4= 61.23            C10-C7-O6-C4=298.24           H16-C8-C7-O6=179.10           
H16-C8-C7-C9=297.33           H16-C8-C7-C10= 60.72          H17-C8-C7-O6= 58.89           H17-C8-C7-C9=177.12           
H17-C8-C7-C10=300.51          H18-C8-C7-O6=299.34           H18-C8-C7-C9= 57.57           H18-C8-C7-C10=180.96          
H19-C9-C7-O6= 53.79           H19-C9-C7-C8=299.36           H19-C9-C7-C10=176.31          H20-C9-C7-O6=293.70           
H20-C9-C7-C8=179.27           H20-C9-C7-C10= 56.21          H21-C9-C7-O6=173.58           H21-C9-C7-C8= 59.15           
H21-C9-C7-C10=296.09          H22-C10-C7-O6= 64.11          H22-C10-C7-C8=178.63          H22-C10-C7-C9=301.67          
H23-C10-C7-O6=303.94          H23-C10-C7-C8= 58.45          H23-C10-C7-C9=181.49          H24-C10-C7-O6=184.07          
H24-C10-C7-C8=298.59          H24-C10-C7-C9= 61.63          
           -------------------------------------------------
          |                Final Singlepoint                |
           -------------------------------------------------

          ...................................................
          :                      SETUP                      :
          :.................................................:
          :  # basis functions                  54          :
          :  # atomic orbitals                  54          :
          :  # shells                           34          :
          :  # electrons                        58          :
          :  max. iterations                   250          :
          :  Hamiltonian                  GFN2-xTB          :
          :  restarted?                      false          :
          :  GBSA solvation                  false          :
          :  PC potential                    false          :
          :  electronic temp.          300.0000000     K    :
          :  accuracy                    1.0000000          :
          :  -> integral cutoff          0.2500000E+02      :
          :  -> integral neglect         0.1000000E-07      :
          :  -> SCF convergence          0.1000000E-05 Eh   :
          :  -> wf. convergence          0.1000000E-03 e    :
          :  Broyden damping             0.4000000          :
          :  net charge                          0          :
          :  unpaired electrons                  0          :
          ...................................................

 iter      E             dE          RMSdq      gap      omega  full diag
   1    -32.8254936 -0.328255E+02  0.117E-04    3.74       0.0  T
   2    -32.8254936 -0.614619E-11  0.889E-05    3.74     229.5  T
   3    -32.8254936 -0.998313E-10  0.461E-05    3.74     442.8  T

   *** convergence criteria satisfied after 3 iterations ***

         #    Occupation            Energy/Eh            Energy/eV
      -------------------------------------------------------------
         1        2.0000           -0.7303346             -19.8734
       ...           ...                  ...                  ...
        23        2.0000           -0.4617808             -12.5657
        24        2.0000           -0.4551742             -12.3859
        25        2.0000           -0.4499697             -12.2443
        26        2.0000           -0.4386929             -11.9374
        27        2.0000           -0.4298857             -11.6978
        28        2.0000           -0.4125919             -11.2272
        29        2.0000           -0.3983948             -10.8409 (HOMO)
        30                         -0.2609600              -7.1011 (LUMO)
        31                         -0.1558055              -4.2397
        32                         -0.0142702              -0.3883
        33                          0.0803806               2.1873
        34                          0.0906424               2.4665
       ...                                ...                  ...
        54                          0.7103485              19.3296
      -------------------------------------------------------------
                  HL-Gap            0.1374348 Eh            3.7398 eV
             Fermi-level           -0.3296774 Eh           -8.9710 eV

 SCC (total)                   0 d,  0 h,  0 min,  0.006 sec
 SCC setup                      ...        0 min,  0.000 sec (  3.856%)
 Dispersion                     ...        0 min,  0.000 sec (  1.874%)
 classical contributions        ...        0 min,  0.000 sec (  4.738%)
 integral evaluation            ...        0 min,  0.001 sec (  8.913%)
 iterations                     ...        0 min,  0.003 sec ( 46.816%)
 molecular gradient             ...        0 min,  0.002 sec ( 31.009%)
 printout                       ...        0 min,  0.000 sec (  2.140%)

         :::::::::::::::::::::::::::::::::::::::::::::::::::::
         ::                     SUMMARY                     ::
         :::::::::::::::::::::::::::::::::::::::::::::::::::::
         :: total energy             -32.400319213165 Eh    ::
         :: gradient norm              0.000750756998 Eh/a0 ::
         :: HOMO-LUMO gap              3.739790030489 eV    ::
         ::.................................................::
         :: SCC energy               -32.825362616077 Eh    ::
         :: -> isotropic ES            0.050109657905 Eh    ::
         :: -> anisotropic ES          0.003029101140 Eh    ::
         :: -> anisotropic XC          0.011981784870 Eh    ::
         :: -> dispersion             -0.017369565676 Eh    ::
         :: repulsion energy           0.425043402912 Eh    ::
         :: add. restraining           0.000000000000 Eh    ::
         :: total charge               0.000000000000 e     ::
         :::::::::::::::::::::::::::::::::::::::::::::::::::::

           -------------------------------------------------
          |                Property Printout                |
           -------------------------------------------------

    * Orbital Energies and Occupations

         #    Occupation            Energy/Eh            Energy/eV
      -------------------------------------------------------------
         1        2.0000           -0.7303346             -19.8734
       ...           ...                  ...                  ...
        17        2.0000           -0.4892888             -13.3142
        18        2.0000           -0.4865986             -13.2410
        19        2.0000           -0.4737226             -12.8906
        20        2.0000           -0.4723528             -12.8534
        21        2.0000           -0.4703027             -12.7976
        22        2.0000           -0.4621252             -12.5751
        23        2.0000           -0.4617808             -12.5657
        24        2.0000           -0.4551742             -12.3859
        25        2.0000           -0.4499697             -12.2443
        26        2.0000           -0.4386929             -11.9374
        27        2.0000           -0.4298857             -11.6978
        28        2.0000           -0.4125919             -11.2272
        29        2.0000           -0.3983948             -10.8409 (HOMO)
        30                         -0.2609600              -7.1011 (LUMO)
        31                         -0.1558055              -4.2397
        32                         -0.0142702              -0.3883
        33                          0.0803806               2.1873
        34                          0.0906424               2.4665
        35                          0.1043284               2.8389
        36                          0.1056449               2.8747
        37                          0.1346334               3.6636
        38                          0.1469126               3.9977
        39                          0.1737936               4.7292
        40                          0.1851886               5.0392
       ...                                ...                  ...
        54                          0.7103485              19.3296
      -------------------------------------------------------------
                  HL-Gap            0.1374348 Eh            3.7398 eV
             Fermi-level           -0.3296774 Eh           -8.9710 eV

     #   Z          covCN         q      C6AA      α(0)
     1   6 C        3.757    -0.109    22.644     6.785
     2   6 C        2.938    -0.011    28.284     8.722
     3   6 C        2.849    -0.079    29.970     8.972
     4   6 C        2.713     0.355    20.967     7.495
     5   8 O        0.856    -0.428    22.240     6.323
     6   8 O        1.704    -0.273    18.529     5.812
     7   6 C        3.782     0.154    18.127     6.065
     8   6 C        3.757    -0.118    22.810     6.809
     9   6 C        3.756    -0.118    22.811     6.810
    10   6 C        3.756    -0.118    22.816     6.811
    11   1 H        0.925     0.059     2.211     2.325
    12   1 H        0.925     0.058     2.220     2.330
    13   1 H        0.925     0.049     2.338     2.391
    14   1 H        0.926     0.053     2.280     2.361
    15   1 H        0.926     0.069     2.095     2.263
    16   1 H        0.925     0.048     2.347     2.396
    17   1 H        0.925     0.051     2.301     2.372
    18   1 H        0.925     0.051     2.306     2.375
    19   1 H        0.925     0.042     2.420     2.433
    20   1 H        0.925     0.067     2.121     2.277
    21   1 H        0.925     0.044     2.402     2.424
    22   1 H        0.925     0.067     2.119     2.276
    23   1 H        0.925     0.042     2.419     2.432
    24   1 H        0.925     0.044     2.400     2.423

 Mol. C6AA /au·bohr⁶  :       4722.461792
 Mol. C8AA /au·bohr⁸  :     103381.236337
 Mol. α(0) /au        :        103.682992


Wiberg/Mayer (AO) data.
largest (>0.10) Wiberg bond orders for each atom

 ---------------------------------------------------------------------------
     #   Z sym  total        # sym  WBO       # sym  WBO       # sym  WBO
 ---------------------------------------------------------------------------
     1   6 C    3.995 --     2 C    1.030    13 H    0.984    11 H    0.969
                            12 H    0.968
     2   6 C    3.985 --     3 C    1.881     1 C    1.030     4 C    0.986
     3   6 C    3.987 --     2 C    1.881    14 H    0.975    15 H    0.971
     4   6 C    3.919 --     5 O    1.710     6 O    1.145     2 C    0.986
     5   8 O    2.023 --     4 C    1.710     6 O    0.174
     6   8 O    2.314 --     4 C    1.145     7 C    0.902     5 O    0.174
     7   6 C    3.923 --     8 C    0.995    10 C    0.994     9 C    0.994
                             6 O    0.902
     8   6 C    3.994 --     7 C    0.995    18 H    0.985    17 H    0.985
                            16 H    0.984
     9   6 C    3.993 --     7 C    0.994    19 H    0.985    21 H    0.984
                            20 H    0.980
    10   6 C    3.993 --     7 C    0.994    23 H    0.985    24 H    0.984
                            22 H    0.980
    11   1 H    0.997 --     1 C    0.969
    12   1 H    0.997 --     1 C    0.968
    13   1 H    0.998 --     1 C    0.984
    14   1 H    0.996 --     3 C    0.975
    15   1 H    0.995 --     3 C    0.971
    16   1 H    0.997 --     8 C    0.984
    17   1 H    0.997 --     8 C    0.985
    18   1 H    0.997 --     8 C    0.985
    19   1 H    0.998 --     9 C    0.985
    20   1 H    0.996 --     9 C    0.980
    21   1 H    0.998 --     9 C    0.984
    22   1 H    0.996 --    10 C    0.980
    23   1 H    0.998 --    10 C    0.985
    24   1 H    0.998 --    10 C    0.984
 ---------------------------------------------------------------------------

Topologies differ in total number of bonds
Writing topology from bond orders to xtbtopo.mol

molecular dipole:
                 x           y           z       tot (Debye)
 q only:        0.061      -0.424       0.796
   full:        0.090      -0.468       0.877       2.537
molecular quadrupole (traceless):
                xx          xy          yy          xz          yz          zz
 q only:        7.312       0.327      -2.546      -2.142       1.848      -4.767
  q+dip:        8.154       0.458      -2.580      -2.493       2.487      -5.573
   full:        7.538       0.567      -1.646      -2.341       3.330      -5.892

           -------------------------------------------------
          |                Geometry Summary                 |
           -------------------------------------------------

      molecular mass/u    :      142.1958675
   center of mass at/Å    :        0.1684603       0.1106458      -0.2893850
  moments of inertia/u·Å² :        0.2143654E+03   0.5796832E+03   0.6797244E+03
rotational constants/cm⁻¹ :        0.7863970E-01   0.2908077E-01   0.2480069E-01

 * 20 selected distances

     #   Z          #   Z                                           value/Å
     2   6 C        3   6 C                                       1.3286377
     4   6 C        5   8 O                                       1.2086237
     4   6 C        6   8 O                                       1.3315286
     7   6 C        8   6 C                                       1.5294787 (max)
     7   6 C        9   6 C                                       1.5284175
     7   6 C       10   6 C                                       1.5282917
     1   6 C       11   1 H                                       1.0882077
     1   6 C       12   1 H                                       1.0889146
     1   6 C       13   1 H                                       1.0873966
     3   6 C       14   1 H                                       1.0765537 (min)
     3   6 C       15   1 H                                       1.0769445
     8   6 C       16   1 H                                       1.0858859
     8   6 C       17   1 H                                       1.0869333
     8   6 C       18   1 H                                       1.0868825
     9   6 C       19   1 H                                       1.0881366
     9   6 C       20   1 H                                       1.0864929
     9   6 C       21   1 H                                       1.0859937
    10   6 C       22   1 H                                       1.0863726
    10   6 C       23   1 H                                       1.0881907
    10   6 C       24   1 H                                       1.0863029

 * 3 distinct bonds (by element types)

   Z      Z             #   av. dist./Å        max./Å        min./Å
   1 H    6 C          14     1.0856577     1.0889146     1.0765537
   6 C    6 C           4     1.4787064     1.5294787     1.3286377
   6 C    8 O           2     1.2700761     1.3315286     1.2086237


optimized geometry written to: xtbopt.xyz


           -------------------------------------------------
          | TOTAL ENERGY              -32.400319213165 Eh   |
          | GRADIENT NORM               0.000750756998 Eh/α |
          | HOMO-LUMO GAP               3.739790030489 eV   |
           -------------------------------------------------

------------------------------------------------------------------------
 * finished run on 2025/12/01 at 14:19:25.302     
------------------------------------------------------------------------
 total:
 * wall-time:     0 d,  0 h,  0 min,  0.321 sec
 *  cpu-time:     0 d,  0 h,  0 min,  7.216 sec
 * ratio c/w:    22.460 speedup
 SCF:
 * wall-time:     0 d,  0 h,  0 min,  0.023 sec
 *  cpu-time:     0 d,  0 h,  0 min,  0.523 sec
 * ratio c/w:    22.273 speedup
 ANC optimizer:
 * wall-time:     0 d,  0 h,  0 min,  0.284 sec
 *  cpu-time:     0 d,  0 h,  0 min,  6.440 sec
 * ratio c/w:    22.680 speedup

normal termination of xtb
