      -----------------------------------------------------------      
     |                   =====================                   |     
     |                           x T B                           |     
     |                   =====================                   |     
     |                         S. Grimme                         |     
     |          Mulliken Center for Theoretical Chemistry        |     
     |                    University of Bonn                     |     
      -----------------------------------------------------------      

   * xtb version 6.7.1 (edcfbbe) compiled by 'albert@albert-system' on 2024-07-22

   xtb is free software: you can redistribute it and/or modify it under
   the terms of the GNU Lesser General Public License as published by
   the Free Software Foundation, either version 3 of the License, or
   (at your option) any later version.
   
   xtb is distributed in the hope that it will be useful,
   but WITHOUT ANY WARRANTY; without even the implied warranty of
   MERCHANTABILITY or FITNESS FOR A PARTICULAR PURPOSE.  See the
   GNU Lesser General Public License for more details.
   
   Cite this work as:
   * C. Bannwarth, E. Caldeweyher, S. Ehlert, A. Hansen, P. Pracht,
     J. Seibert, S. Spicher, S. Grimme, WIREs Comput. Mol. Sci., 2020, 11,
     e01493. DOI: 10.1002/wcms.1493
   
   for GFN2-xTB:
   * C. Bannwarth, S. Ehlert and S. Grimme., J. Chem. Theory Comput., 2019,
     15, 1652-1671. DOI: 10.1021/acs.jctc.8b01176
   for GFN1-xTB:
   * S. Grimme, C. Bannwarth, P. Shushkov, J. Chem. Theory Comput., 2017,
     13, 1989-2009. DOI: 10.1021/acs.jctc.7b00118
   for GFN0-xTB:
   * P. Pracht, E. Caldeweyher, S. Ehlert, S. Grimme, ChemRxiv, 2019, preprint.
     DOI: 10.26434/chemrxiv.8326202.v1
   for GFN-FF:
   * S. Spicher and S. Grimme, Angew. Chem. Int. Ed., 2020, 59, 15665-15673.
     DOI: 10.1002/anie.202004239
   
   for ALPB and GBSA implicit solvation:
   * S. Ehlert, M. Stahn, S. Spicher, S. Grimme, J. Chem. Theory Comput.,
     2021, 17, 4250-4261. DOI: 10.1021/acs.jctc.1c00471
   
   for ddCOSMO and CPCM-X implicit solvation:
   * M. Stahn, S. Ehlert, S. Grimme, J. Phys. Chem. A,
     2023, XX, XXXX-XXXX. DOI: 10.1021/acs.jpca.3c04382
   
   for DFT-D4:
   * E. Caldeweyher, C. Bannwarth and S. Grimme, J. Chem. Phys., 2017,
     147, 034112. DOI: 10.1063/1.4993215
   * E. Caldeweyher, S. Ehlert, A. Hansen, H. Neugebauer, S. Spicher,
     C. Bannwarth and S. Grimme, J. Chem. Phys., 2019, 150, 154122.
     DOI: 10.1063/1.5090222
   * E. Caldeweyher, J.-M. Mewes, S. Ehlert and S. Grimme, Phys. Chem. Chem. Phys.
     2020, 22, 8499-8512. DOI: 10.1039/D0CP00502A
   
   for sTDA-xTB:
   * S. Grimme and C. Bannwarth, J. Chem. Phys., 2016, 145, 054103.
     DOI: 10.1063/1.4959605
   
   in the mass-spec context:
   * V. Asgeirsson, C. Bauer and S. Grimme, Chem. Sci., 2017, 8, 4879.
     DOI: 10.1039/c7sc00601b
   * J. Koopman and S. Grimme, ACS Omega 2019, 4, 12, 15120-15133.
     DOI: 10.1021/acsomega.9b02011
   
   for metadynamics refer to:
   * S. Grimme, J. Chem. Theory Comput., 2019, 155, 2847-2862
     DOI: 10.1021/acs.jctc.9b00143
   
   for SPH calculations refer to:
   * S. Spicher and S. Grimme, J. Chem. Theory Comput., 2021, 17, 1701-1714
     DOI: 10.1021/acs.jctc.0c01306
   
   for ONIOM refer to:
   * C. Plett, A. Katbashev, S. Ehlert, S. Grimme, M. Bursch,
     Phys. Chem. Chem. Phys., 2023, 25, 17860-17868. DOI: 10.1039/D3CP02178E
   
   for DIPRO refer to:
   * J. Kohn, N. Gildemeister, S. Grimme, D. Fazzi, A. Hansen,
     J. Chem. Phys., 2023, just accepted.
   
   for PTB refer to:
   * S. Grimme, M. Mueller, A. Hansen, J. Chem. Phys., 2023, 158, 124111.
     DOI: 10.1063/5.0137838
   
   with help from (in alphabetical order)
   P. Atkinson, C. Bannwarth, F. Bohle, G. Brandenburg, E. Caldeweyher
   M. Checinski, S. Dohm, S. Ehlert, S. Ehrlich, I. Gerasimov, C. Hölzer
   A. Katbashev, J. Kohn, J. Koopman, C. Lavigne, S. Lehtola, F. März, M. Müller,
   F. Musil, H. Neugebauer, J. Pisarek, C. Plett, P. Pracht, F. Pultar,
   J. Seibert, P. Shushkov, S. Spicher, M. Stahn, M. Steiner, T. Strunk,
   J. Stückrath, T. Rose, and J. Unsleber
   
 * started run on 2025/12/01 at 14:19:25.310     
   ID    Z sym.   atoms
    1    6 C      1-4, 7-10
    2    8 O      5, 6
    3    1 H      11-24

           -------------------------------------------------
          |                Calculation Setup                |
           -------------------------------------------------

          program call               : xtb pipeline_data/3_conformer_xyz/acrylates/rdkit/SJMYWORNLPSJQO-UHFFFAOYSA-N_conf154.xyz --opt --gfn 2-xTB --iterations 250
          coordinate file            : pipeline_data/3_conformer_xyz/acrylates/rdkit/SJMYWORNLPSJQO-UHFFFAOYSA-N_conf154.xyz
          omp threads                :                    24

########################################################################
[WARNING] Please study the warnings concerning your input carefully
-1- readin_getIntValue: could not parse '2-xTB'
########################################################################

           -------------------------------------------------
          |                 G F N 2 - x T B                 |
           -------------------------------------------------

        Reference                      10.1021/acs.jctc.8b01176
      * Hamiltonian:
        H0-scaling (s, p, d)           1.850000    2.230000    2.230000
        zeta-weighting                 0.500000
      * Dispersion:
        s8                             2.700000
        a1                             0.520000
        a2                             5.000000
        s9                             5.000000
      * Repulsion:
        kExp                           1.500000    1.000000
        rExp                           1.000000
      * Coulomb:
        alpha                          2.000000
        third order                    shell-resolved
        anisotropic                    true
        a3                             3.000000
        a5                             4.000000
        cn-shift                       1.200000
        cn-exp                         4.000000
        max-rad                        5.000000

q/qsh data taken from xtbrestart
CAMM data taken from xtbrestart

          ...................................................
          :                      SETUP                      :
          :.................................................:
          :  # basis functions                  54          :
          :  # atomic orbitals                  54          :
          :  # shells                           34          :
          :  # electrons                        58          :
          :  max. iterations                   250          :
          :  Hamiltonian                  GFN2-xTB          :
          :  restarted?                       true          :
          :  GBSA solvation                  false          :
          :  PC potential                    false          :
          :  electronic temp.          300.0000000     K    :
          :  accuracy                    1.0000000          :
          :  -> integral cutoff          0.2500000E+02      :
          :  -> integral neglect         0.1000000E-07      :
          :  -> SCF convergence          0.1000000E-05 Eh   :
          :  -> wf. convergence          0.1000000E-03 e    :
          :  Broyden damping             0.4000000          :
          :  net charge                          0          :
          :  unpaired electrons                  0          :
          ...................................................

 iter      E             dE          RMSdq      gap      omega  full diag
   1    -32.7706743 -0.327707E+02  0.384E+00    3.32       0.0  T
   2    -32.7734123 -0.273797E-02  0.230E+00    3.40       1.0  T
   3    -32.7720048  0.140748E-02  0.355E-01    3.26       1.0  T
   4    -32.7741323 -0.212748E-02  0.162E-01    3.38       1.0  T
   5    -32.7743629 -0.230601E-03  0.688E-02    3.37       1.0  T
   6    -32.7743604  0.245254E-05  0.265E-02    3.36       1.0  T
   7    -32.7743689 -0.848777E-05  0.502E-03    3.37       4.1  T
   8    -32.7743690 -0.706227E-07  0.224E-03    3.37       9.1  T
   9    -32.7743690 -0.102752E-07  0.737E-04    3.37      27.7  T
  10    -32.7743690 -0.140266E-08  0.326E-04    3.37      62.7  T

   *** convergence criteria satisfied after 10 iterations ***

         #    Occupation            Energy/Eh            Energy/eV
      -------------------------------------------------------------
         1        2.0000           -0.7245282             -19.7154
       ...           ...                  ...                  ...
        23        2.0000           -0.4534778             -12.3398
        24        2.0000           -0.4502197             -12.2511
        25        2.0000           -0.4474507             -12.1758
        26        2.0000           -0.4338502             -11.8057
        27        2.0000           -0.4231425             -11.5143
        28        2.0000           -0.4175653             -11.3625
        29        2.0000           -0.4021406             -10.9428 (HOMO)
        30                         -0.2784400              -7.5767 (LUMO)
        31                         -0.1624860              -4.4215
        32                         -0.0152592              -0.4152
        33                          0.0629652               1.7134
        34                          0.0981152               2.6699
       ...                                ...                  ...
        54                          0.6542808              17.8039
      -------------------------------------------------------------
                  HL-Gap            0.1237006 Eh            3.3661 eV
             Fermi-level           -0.3402903 Eh           -9.2598 eV

 SCC (total)                   0 d,  0 h,  0 min,  0.026 sec
 SCC setup                      ...        0 min,  0.000 sec (  0.846%)
 Dispersion                     ...        0 min,  0.000 sec (  1.164%)
 classical contributions        ...        0 min,  0.000 sec (  0.408%)
 integral evaluation            ...        0 min,  0.001 sec (  2.847%)
 iterations                     ...        0 min,  0.022 sec ( 86.133%)
 molecular gradient             ...        0 min,  0.002 sec (  7.919%)
 printout                       ...        0 min,  0.000 sec (  0.586%)

         :::::::::::::::::::::::::::::::::::::::::::::::::::::
         ::                     SUMMARY                     ::
         :::::::::::::::::::::::::::::::::::::::::::::::::::::
         :: total energy             -32.378025579508 Eh    ::
         :: gradient norm              0.123526465783 Eh/a0 ::
         :: HOMO-LUMO gap              3.366064469088 eV    ::
         ::.................................................::
         :: SCC energy               -32.774268698527 Eh    ::
         :: -> isotropic ES            0.051136660479 Eh    ::
         :: -> anisotropic ES          0.003012005138 Eh    ::
         :: -> anisotropic XC          0.012858982576 Eh    ::
         :: -> dispersion             -0.017177193546 Eh    ::
         :: repulsion energy           0.396243119020 Eh    ::
         :: add. restraining           0.000000000000 Eh    ::
         :: total charge               0.000000000000 e     ::
         :::::::::::::::::::::::::::::::::::::::::::::::::::::

      ----------------------------------------------------------- 
     |                   =====================                   |
     |                        A N C O P T                        |
     |                   =====================                   |
     |               Approximate Normal Coordinate               |
     |                Rational Function Optimizer                |
      ----------------------------------------------------------- 
      ----------------------------------------------------------- 
     |                   =====================                   |
     |                        A N C O P T                        |
     |                   =====================                   |
     |               Approximate Normal Coordinate               |
     |                Rational Function Optimizer                |
      ----------------------------------------------------------- 

          ...................................................
          :                      SETUP                      :
          :.................................................:
          :   optimization level            normal          :
          :   max. optcycles                   200          :
          :   ANC micro-cycles                  20          :
          :   degrees of freedom                66          :
          :.................................................:
          :   RF solver                   davidson          :
          :   write xtbopt.log                true          :
          :   linear?                        false          :
          :   energy convergence         0.5000000E-05 Eh   :
          :   grad. convergence          0.1000000E-02 Eh/α :
          :   maxmium RF displ.          1.0000000          :
          :   Hlow (freq-cutoff)         0.1000000E-01      :
          :   Hmax (freq-cutoff)         5.0000000          :
          :   S6 in model hess.         20.0000000          :
          ...................................................

generating ANC from exact Hessian ...
Using Lindh-Hessian (1995)
 Shifting diagonal of input Hessian by   9.140740600382349E-003
 Lowest  eigenvalues of input Hessian
    0.000000    0.000000    0.000000    0.000000    0.000000    0.000000
    0.010000    0.010561    0.012042    0.016105    0.018478    0.018666
    0.018991    0.019334    0.019486    0.019715    0.021389    0.022439
 Highest eigenvalues
    1.299637    1.311341    1.541032    1.839835    1.929081    2.208062
 

........................................................................
.............................. CYCLE    1 ..............................
........................................................................

 iter      E             dE          RMSdq      gap      omega  full diag
   1    -32.7743690 -0.327744E+02  0.717E-05    3.37       0.0  T
   2    -32.7743690 -0.230926E-10  0.402E-05    3.37     507.8  T
   3    -32.7743690 -0.304112E-11  0.235E-05    3.37     869.2  T
     SCC iter.                  ...        0 min,  0.004 sec
     gradient                   ...        0 min,  0.002 sec
 * total energy  :   -32.3780256 Eh     change       -0.3129372E-09 Eh
   gradient norm :     0.1235282 Eh/α   predicted     0.0000000E+00 (-100.00%)
   displ. norm   :     0.3385513 α      lambda       -0.2075399E-01
   maximum displ.:     0.1291698 α      in ANC's #28, #5, #17, ...

........................................................................
.............................. CYCLE    2 ..............................
........................................................................

 iter      E             dE          RMSdq      gap      omega  full diag
   1    -32.8060363 -0.328060E+02  0.336E-01    3.51       0.0  T
   2    -32.8062292 -0.192907E-03  0.206E-01    3.53       1.0  T
   3    -32.8062031  0.261071E-04  0.619E-02    3.55       1.0  T
   4    -32.8062371 -0.339846E-04  0.211E-02    3.53       1.0  T
   5    -32.8062442 -0.715530E-05  0.809E-03    3.54       2.5  T
   6    -32.8062451 -0.897271E-06  0.330E-03    3.54       6.2  T
   7    -32.8062452 -0.177024E-07  0.903E-04    3.54      22.6  T
   8    -32.8062452 -0.310492E-08  0.409E-04    3.54      49.9  T
     SCC iter.                  ...        0 min,  0.009 sec
     gradient                   ...        0 min,  0.002 sec
 * total energy  :   -32.3920747 Eh     change       -0.1404908E-01 Eh
   gradient norm :     0.0541767 Eh/α   predicted    -0.1157640E-01 ( -17.60%)
   displ. norm   :     0.3011830 α      lambda       -0.5942925E-02
   maximum displ.:     0.1839716 α      in ANC's #5, #8, #13, ...

........................................................................
.............................. CYCLE    3 ..............................
........................................................................

 iter      E             dE          RMSdq      gap      omega  full diag
   1    -32.8203492 -0.328203E+02  0.173E-01    3.65       0.0  T
   2    -32.8204444 -0.952473E-04  0.108E-01    3.67       1.0  T
   3    -32.8204425  0.193540E-05  0.426E-02    3.68       1.0  T
   4    -32.8204531 -0.106190E-04  0.777E-03    3.67       2.6  T
   5    -32.8204536 -0.464480E-06  0.461E-03    3.67       4.4  T
   6    -32.8204538 -0.241482E-06  0.227E-03    3.67       9.0  T
   7    -32.8204539 -0.285283E-07  0.759E-04    3.67      26.9  T
   8    -32.8204539 -0.172285E-08  0.333E-04    3.67      61.3  T
     SCC iter.                  ...        0 min,  0.009 sec
     gradient                   ...        0 min,  0.002 sec
 * total energy  :   -32.3956769 Eh     change       -0.3602197E-02 Eh
   gradient norm :     0.0166747 Eh/α   predicted    -0.3245475E-02 (  -9.90%)
   displ. norm   :     0.2429248 α      lambda       -0.1215416E-02
   maximum displ.:     0.1545888 α      in ANC's #5, #8, #13, ...

........................................................................
.............................. CYCLE    4 ..............................
........................................................................

 iter      E             dE          RMSdq      gap      omega  full diag
   1    -32.8196748 -0.328197E+02  0.747E-02    3.70       0.0  T
   2    -32.8196871 -0.123282E-04  0.447E-02    3.70       1.0  T
   3    -32.8196867  0.389961E-06  0.164E-02    3.71       1.2  T
   4    -32.8196879 -0.124678E-05  0.345E-03    3.70       5.9  T
   5    -32.8196881 -0.128671E-06  0.171E-03    3.71      12.0  T
   6    -32.8196881 -0.398528E-07  0.758E-04    3.71      26.9  T
   7    -32.8196881 -0.334127E-08  0.188E-04    3.71     108.8  T
     SCC iter.                  ...        0 min,  0.008 sec
     gradient                   ...        0 min,  0.002 sec
 * total energy  :   -32.3965463 Eh     change       -0.8694075E-03 Eh
   gradient norm :     0.0095401 Eh/α   predicted    -0.6436079E-03 ( -25.97%)
   displ. norm   :     0.2785603 α      lambda       -0.7705561E-03
   maximum displ.:     0.2055522 α      in ANC's #8, #5, #13, ...

........................................................................
.............................. CYCLE    5 ..............................
........................................................................

 iter      E             dE          RMSdq      gap      omega  full diag
   1    -32.8180767 -0.328181E+02  0.693E-02    3.72       0.0  T
   2    -32.8180868 -0.101370E-04  0.409E-02    3.72       1.0  T
   3    -32.8180861  0.736175E-06  0.151E-02    3.72       1.4  T
   4    -32.8180866 -0.533683E-06  0.652E-03    3.72       3.1  T
   5    -32.8180875 -0.810165E-06  0.151E-03    3.72      13.5  T
   6    -32.8180875 -0.269612E-07  0.616E-04    3.72      33.2  T
   7    -32.8180875 -0.601936E-09  0.128E-04    3.72     160.1  T
     SCC iter.                  ...        0 min,  0.009 sec
     gradient                   ...        0 min,  0.002 sec
 * total energy  :   -32.3970541 Eh     change       -0.5078071E-03 Eh
   gradient norm :     0.0085842 Eh/α   predicted    -0.4151791E-03 ( -18.24%)
   displ. norm   :     0.2001558 α      lambda       -0.3747542E-03
   maximum displ.:     0.1590196 α      in ANC's #8, #5, #10, ...

........................................................................
.............................. CYCLE    6 ..............................
........................................................................

 iter      E             dE          RMSdq      gap      omega  full diag
   1    -32.8183546 -0.328184E+02  0.466E-02    3.72       0.0  T
   2    -32.8183569 -0.235791E-05  0.280E-02    3.72       1.0  T
   3    -32.8183550  0.195444E-05  0.128E-02    3.72       1.6  T
   4    -32.8183571 -0.207442E-05  0.421E-03    3.72       4.8  T
   5    -32.8183574 -0.316558E-06  0.713E-04    3.72      28.6  T
   6    -32.8183574 -0.288904E-08  0.354E-04    3.72      57.6  T
     SCC iter.                  ...        0 min,  0.007 sec
     gradient                   ...        0 min,  0.002 sec
 * total energy  :   -32.3973357 Eh     change       -0.2816062E-03 Eh
   gradient norm :     0.0097673 Eh/α   predicted    -0.1950023E-03 ( -30.75%)
   displ. norm   :     0.2533154 α      lambda       -0.4762893E-03
   maximum displ.:     0.1998077 α      in ANC's #8, #9, #5, ...

........................................................................
.............................. CYCLE    7 ..............................
........................................................................

 iter      E             dE          RMSdq      gap      omega  full diag
   1    -32.8198220 -0.328198E+02  0.575E-02    3.72       0.0  T
   2    -32.8198235 -0.142656E-05  0.349E-02    3.72       1.0  T
   3    -32.8198187  0.474788E-05  0.176E-02    3.71       1.2  T
   4    -32.8198241 -0.538983E-05  0.273E-03    3.72       7.5  T
   5    -32.8198242 -0.113066E-06  0.874E-04    3.72      23.4  T
   6    -32.8198242 -0.287679E-08  0.370E-04    3.72      55.2  T
     SCC iter.                  ...        0 min,  0.007 sec
     gradient                   ...        0 min,  0.002 sec
 * total energy  :   -32.3976838 Eh     change       -0.3480910E-03 Eh
   gradient norm :     0.0106954 Eh/α   predicted    -0.2534346E-03 ( -27.19%)
   displ. norm   :     0.2469346 α      lambda       -0.4346731E-03
   maximum displ.:     0.1874942 α      in ANC's #8, #9, #10, ...

........................................................................
.............................. CYCLE    8 ..............................
........................................................................

 iter      E             dE          RMSdq      gap      omega  full diag
   1    -32.8214666 -0.328215E+02  0.550E-02    3.71       0.0  T
   2    -32.8214678 -0.118277E-05  0.330E-02    3.71       1.0  T
   3    -32.8214656  0.215841E-05  0.120E-02    3.71       1.7  T
   4    -32.8214680 -0.237629E-05  0.261E-03    3.71       7.8  T
   5    -32.8214681 -0.114035E-06  0.784E-04    3.71      26.0  T
   6    -32.8214681 -0.400407E-08  0.333E-04    3.71      61.4  T
     SCC iter.                  ...        0 min,  0.007 sec
     gradient                   ...        0 min,  0.002 sec
 * total energy  :   -32.3980092 Eh     change       -0.3254686E-03 Eh
   gradient norm :     0.0096529 Eh/α   predicted    -0.2305919E-03 ( -29.15%)
   displ. norm   :     0.2824736 α      lambda       -0.4152572E-03
   maximum displ.:     0.2150823 α      in ANC's #8, #9, #10, ...

........................................................................
.............................. CYCLE    9 ..............................
........................................................................

 iter      E             dE          RMSdq      gap      omega  full diag
   1    -32.8215994 -0.328216E+02  0.622E-02    3.70       0.0  T
   2    -32.8216009 -0.156594E-05  0.373E-02    3.70       1.0  T
   3    -32.8216009  0.890313E-08  0.410E-03    3.70       5.0  T
   4    -32.8216011 -0.124185E-06  0.115E-03    3.70      17.8  T
   5    -32.8216011 -0.100628E-07  0.550E-04    3.70      37.1  T
   6    -32.8216011  0.263995E-09  0.357E-04    3.70      57.2  T
     SCC iter.                  ...        0 min,  0.007 sec
     gradient                   ...        0 min,  0.002 sec
 * total energy  :   -32.3983099 Eh     change       -0.3006857E-03 Eh
   gradient norm :     0.0079418 Eh/α   predicted    -0.2242028E-03 ( -25.44%)
   displ. norm   :     0.2338749 α      lambda       -0.4373858E-03
   maximum displ.:     0.1402216 α      in ANC's #8, #9, #10, ...

........................................................................
.............................. CYCLE   10 ..............................
........................................................................

 iter      E             dE          RMSdq      gap      omega  full diag
   1    -32.8251647 -0.328252E+02  0.704E-02    3.70       0.0  T
   2    -32.8251733 -0.859728E-05  0.407E-02    3.70       1.0  T
   3    -32.8251718  0.154111E-05  0.152E-02    3.70       1.3  T
   4    -32.8251728 -0.100018E-05  0.804E-03    3.70       2.5  T
   5    -32.8251740 -0.116407E-05  0.134E-03    3.70      15.3  T
   6    -32.8251740 -0.211595E-08  0.708E-04    3.70      28.8  T
   7    -32.8251740 -0.165109E-08  0.114E-04    3.70     178.6  T
     SCC iter.                  ...        0 min,  0.008 sec
     gradient                   ...        0 min,  0.002 sec
 * total energy  :   -32.3984587 Eh     change       -0.1487919E-03 Eh
   gradient norm :     0.0081272 Eh/α   predicted    -0.2306573E-03 (  55.02%)
   displ. norm   :     0.4645569 α      lambda       -0.5817196E-03
   maximum displ.:     0.3723683 α      in ANC's #8, #9, #10, ...

........................................................................
.............................. CYCLE   11 ..............................
........................................................................

 iter      E             dE          RMSdq      gap      omega  full diag
   1    -32.8158180 -0.328158E+02  0.130E-01    3.69       0.0  T
   2    -32.8158317 -0.136184E-04  0.753E-02    3.69       1.0  T
   3    -32.8158300  0.169790E-05  0.193E-02    3.70       1.1  T
   4    -32.8158321 -0.218822E-05  0.962E-03    3.69       2.1  T
   5    -32.8158336 -0.140782E-05  0.314E-03    3.69       6.5  T
   6    -32.8158336 -0.129688E-07  0.962E-04    3.69      21.2  T
   7    -32.8158336 -0.696122E-08  0.243E-04    3.69      84.1  T
     SCC iter.                  ...        0 min,  0.008 sec
     gradient                   ...        0 min,  0.002 sec
 * total energy  :   -32.3982847 Eh     change        0.1739914E-03 Eh
   gradient norm :     0.0173558 Eh/α   predicted    -0.3536384E-03 (-303.25%)
   displ. norm   :     0.2935659 α      lambda       -0.1014187E-02
   maximum displ.:     0.2279995 α      in ANC's #8, #9, #10, ...

........................................................................
.............................. CYCLE   12 ..............................
........................................................................

 iter      E             dE          RMSdq      gap      omega  full diag
   1    -32.8232057 -0.328232E+02  0.870E-02    3.70       0.0  T
   2    -32.8232134 -0.768766E-05  0.502E-02    3.70       1.0  T
   3    -32.8232133  0.796862E-07  0.123E-02    3.70       1.7  T
   4    -32.8232138 -0.467803E-06  0.572E-03    3.70       3.6  T
   5    -32.8232142 -0.459342E-06  0.215E-03    3.70       9.5  T
   6    -32.8232142 -0.110633E-07  0.848E-04    3.70      24.1  T
   7    -32.8232142 -0.460720E-08  0.158E-04    3.70     129.2  T
     SCC iter.                  ...        0 min,  0.008 sec
     gradient                   ...        0 min,  0.002 sec
 * total energy  :   -32.3986736 Eh     change       -0.3888996E-03 Eh
   gradient norm :     0.0028446 Eh/α   predicted    -0.5507935E-03 (  41.63%)
   displ. norm   :     0.0663809 α      lambda       -0.5696295E-04
   maximum displ.:     0.0426152 α      in ANC's #8, #3, #7, ...

........................................................................
.............................. CYCLE   13 ..............................
........................................................................

 iter      E             dE          RMSdq      gap      omega  full diag
   1    -32.8229933 -0.328230E+02  0.182E-02    3.70       0.0  T
   2    -32.8229934 -0.119316E-06  0.108E-02    3.70       1.9  T
   3    -32.8229934  0.400313E-07  0.213E-03    3.70       9.6  T
   4    -32.8229934 -0.530143E-07  0.872E-04    3.70      23.4  T
   5    -32.8229934 -0.109316E-07  0.364E-04    3.70      56.0  T
     SCC iter.                  ...        0 min,  0.006 sec
     gradient                   ...        0 min,  0.002 sec
 * total energy  :   -32.3987219 Eh     change       -0.4827401E-04 Eh
   gradient norm :     0.0022917 Eh/α   predicted    -0.2860861E-04 ( -40.74%)
   displ. norm   :     0.2885381 α      lambda       -0.1820046E-03
   maximum displ.:     0.1826372 α      in ANC's #8, #3, #7, ...

........................................................................
.............................. CYCLE   14 ..............................
........................................................................

 iter      E             dE          RMSdq      gap      omega  full diag
   1    -32.8209719 -0.328210E+02  0.741E-02    3.69       0.0  T
   2    -32.8209735 -0.163028E-05  0.439E-02    3.69       1.0  T
   3    -32.8209728  0.740630E-06  0.859E-03    3.69       2.4  T
   4    -32.8209737 -0.932754E-06  0.350E-03    3.69       5.8  T
   5    -32.8209739 -0.181032E-06  0.138E-03    3.69      14.8  T
   6    -32.8209739 -0.520419E-08  0.509E-04    3.69      40.1  T
   7    -32.8209739 -0.144391E-08  0.140E-04    3.69     145.7  T
     SCC iter.                  ...        0 min,  0.009 sec
     gradient                   ...        0 min,  0.002 sec
 * total energy  :   -32.3987886 Eh     change       -0.6668540E-04 Eh
   gradient norm :     0.0062023 Eh/α   predicted    -0.9858945E-04 (  47.84%)
   displ. norm   :     0.0469377 α      lambda       -0.7019976E-04
   maximum displ.:     0.0393714 α      in ANC's #8, #10, #9, ...

........................................................................
.............................. CYCLE   15 ..............................
........................................................................

 iter      E             dE          RMSdq      gap      omega  full diag
   1    -32.8227432 -0.328227E+02  0.188E-02    3.69       0.0  T
   2    -32.8227436 -0.448346E-06  0.108E-02    3.69       1.9  T
   3    -32.8227435  0.107506E-06  0.391E-03    3.69       5.2  T
   4    -32.8227436 -0.112990E-06  0.181E-03    3.69      11.3  T
   5    -32.8227437 -0.522980E-07  0.495E-04    3.69      41.2  T
   6    -32.8227437 -0.191584E-09  0.128E-04    3.69     160.1  T
     SCC iter.                  ...        0 min,  0.007 sec
     gradient                   ...        0 min,  0.002 sec
 * total energy  :   -32.3988279 Eh     change       -0.3934403E-04 Eh
   gradient norm :     0.0020254 Eh/α   predicted    -0.3517592E-04 ( -10.59%)
   displ. norm   :     0.0652570 α      lambda       -0.2466036E-04
   maximum displ.:     0.0303822 α      in ANC's #3, #8, #7, ...

........................................................................
.............................. CYCLE   16 ..............................
........................................................................

 iter      E             dE          RMSdq      gap      omega  full diag
   1    -32.8231351 -0.328231E+02  0.167E-02    3.69       0.0  T
   2    -32.8231351 -0.595555E-07  0.989E-03    3.69       2.1  T
   3    -32.8231351  0.138253E-07  0.136E-03    3.69      15.0  T
   4    -32.8231351 -0.225857E-07  0.715E-04    3.69      28.5  T
   5    -32.8231351 -0.701002E-08  0.277E-04    3.69      73.7  T
     SCC iter.                  ...        0 min,  0.006 sec
     gradient                   ...        0 min,  0.002 sec
 * total energy  :   -32.3988475 Eh     change       -0.1955195E-04 Eh
   gradient norm :     0.0011711 Eh/α   predicted    -0.1238777E-04 ( -36.64%)
   displ. norm   :     0.1878585 α      lambda       -0.3183582E-04
   maximum displ.:     0.0955475 α      in ANC's #8, #3, #7, ...

........................................................................
.............................. CYCLE   17 ..............................
........................................................................

 iter      E             dE          RMSdq      gap      omega  full diag
   1    -32.8229118 -0.328229E+02  0.447E-02    3.69       0.0  T
   2    -32.8229119 -0.158534E-06  0.268E-02    3.69       1.0  T
   3    -32.8229117  0.192331E-06  0.392E-03    3.69       5.2  T
   4    -32.8229120 -0.276604E-06  0.112E-03    3.69      18.3  T
   5    -32.8229120 -0.531982E-08  0.599E-04    3.69      34.1  T
   6    -32.8229120 -0.103599E-08  0.137E-04    3.69     148.8  T
     SCC iter.                  ...        0 min,  0.007 sec
     gradient                   ...        0 min,  0.002 sec
 * total energy  :   -32.3988678 Eh     change       -0.2034185E-04 Eh
   gradient norm :     0.0013993 Eh/α   predicted    -0.1618398E-04 ( -20.44%)
   displ. norm   :     0.0316442 α      lambda       -0.6813128E-05
   maximum displ.:     0.0174195 α      in ANC's #3, #8, #4, ...

........................................................................
.............................. CYCLE   18 ..............................
........................................................................

 iter      E             dE          RMSdq      gap      omega  full diag
   1    -32.8235008 -0.328235E+02  0.112E-02    3.69       0.0  T
   2    -32.8235009 -0.553864E-07  0.653E-03    3.69       3.1  T
   3    -32.8235009  0.155598E-08  0.101E-03    3.69      20.2  T
   4    -32.8235009 -0.686283E-08  0.579E-04    3.69      35.2  T
   5    -32.8235009 -0.477277E-08  0.234E-04    3.69      87.4  T
     SCC iter.                  ...        0 min,  0.006 sec
     gradient                   ...        0 min,  0.002 sec
 * total energy  :   -32.3988737 Eh     change       -0.5911386E-05 Eh
   gradient norm :     0.0011124 Eh/α   predicted    -0.3405691E-05 ( -42.39%)
   displ. norm   :     0.0425422 α      lambda       -0.6143626E-05
   maximum displ.:     0.0272150 α      in ANC's #2, #4, #3, ...

........................................................................
.............................. CYCLE   19 ..............................
........................................................................

 iter      E             dE          RMSdq      gap      omega  full diag
   1    -32.8234842 -0.328235E+02  0.138E-02    3.69       0.0  T
   2    -32.8234842 -0.179241E-07  0.817E-03    3.69       2.5  T
   3    -32.8234842  0.590856E-08  0.935E-04    3.69      21.8  T
   4    -32.8234842 -0.142983E-07  0.370E-04    3.69      55.1  T
     SCC iter.                  ...        0 min,  0.005 sec
     gradient                   ...        0 min,  0.002 sec
 * total energy  :   -32.3988795 Eh     change       -0.5814938E-05 Eh
   gradient norm :     0.0013413 Eh/α   predicted    -0.3084085E-05 ( -46.96%)
   displ. norm   :     0.0960351 α      lambda       -0.9956906E-05
   maximum displ.:     0.0637696 α      in ANC's #2, #4, #8, ...

........................................................................
.............................. CYCLE   20 ..............................
........................................................................

 iter      E             dE          RMSdq      gap      omega  full diag
   1    -32.8232657 -0.328233E+02  0.300E-02    3.69       0.0  T
   2    -32.8232657 -0.581530E-07  0.177E-02    3.69       1.2  T
   3    -32.8232657  0.172702E-07  0.169E-03    3.69      12.1  T
   4    -32.8232657 -0.467337E-07  0.693E-04    3.69      29.5  T
   5    -32.8232658 -0.245669E-08  0.324E-04    3.69      63.0  T
     SCC iter.                  ...        0 min,  0.014 sec
     gradient                   ...        0 min,  0.005 sec
 * total energy  :   -32.3988877 Eh     change       -0.8107797E-05 Eh
   gradient norm :     0.0013321 Eh/α   predicted    -0.5033003E-05 ( -37.92%)
   displ. norm   :     0.0946566 α      lambda       -0.9050318E-05
   maximum displ.:     0.0672167 α      in ANC's #2, #4, #1, ...
 * RMSD in coord.:     0.5123939 α      energy gain  -0.2086207E-01 Eh

generating ANC from exact Hessian ...
Using Lindh-Hessian (1995)
 Shifting diagonal of input Hessian by   9.078465701973090E-003
 Lowest  eigenvalues of input Hessian
    0.000000    0.000000    0.000000    0.000000    0.000000    0.000000
    0.010000    0.010433    0.011941    0.015618    0.017390    0.018650
    0.018734    0.018902    0.019267    0.019299    0.021262    0.021988
 Highest eigenvalues
    1.267984    1.290387    1.458113    1.817438    1.923033    2.393913
 

........................................................................
.............................. CYCLE   21 ..............................
........................................................................

 iter      E             dE          RMSdq      gap      omega  full diag
   1    -32.8233579 -0.328234E+02  0.301E-02    3.69       0.0  T
   2    -32.8233580 -0.553467E-07  0.178E-02    3.69       1.1  T
   3    -32.8233580 -0.175609E-07  0.697E-04    3.69      29.3  T
   4    -32.8233580 -0.124570E-08  0.405E-04    3.69      50.4  T
     SCC iter.                  ...        0 min,  0.008 sec
     gradient                   ...        0 min,  0.002 sec
 * total energy  :   -32.3988974 Eh     change       -0.9730500E-05 Eh
   gradient norm :     0.0015189 Eh/α   predicted     0.0000000E+00 (-100.00%)
   displ. norm   :     0.0271447 α      lambda       -0.8817924E-05
   maximum displ.:     0.0128162 α      in ANC's #7, #1, #5, ...

........................................................................
.............................. CYCLE   22 ..............................
........................................................................

 iter      E             dE          RMSdq      gap      omega  full diag
   1    -32.8233633 -0.328234E+02  0.945E-03    3.69       0.0  T
   2    -32.8233633 -0.334932E-07  0.564E-03    3.69       3.6  T
   3    -32.8233632  0.130347E-06  0.287E-03    3.69       7.1  T
   4    -32.8233633 -0.151637E-06  0.454E-04    3.69      45.0  T
   5    -32.8233633 -0.172905E-08  0.194E-04    3.69     105.0  T
     SCC iter.                  ...        0 min,  0.010 sec
     gradient                   ...        0 min,  0.002 sec
 * total energy  :   -32.3989062 Eh     change       -0.8822375E-05 Eh
   gradient norm :     0.0005164 Eh/α   predicted    -0.4416829E-05 ( -49.94%)
   displ. norm   :     0.0459920 α      lambda       -0.7458286E-05
   maximum displ.:     0.0231565 α      in ANC's #7, #1, #8, ...

........................................................................
.............................. CYCLE   23 ..............................
........................................................................

 iter      E             dE          RMSdq      gap      omega  full diag
   1    -32.8233087 -0.328233E+02  0.139E-02    3.69       0.0  T
   2    -32.8233087 -0.273567E-07  0.823E-03    3.69       2.5  T
   3    -32.8233087  0.440588E-07  0.169E-03    3.69      12.1  T
   4    -32.8233088 -0.538254E-07  0.417E-04    3.69      48.9  T
   5    -32.8233088 -0.158848E-08  0.186E-04    3.69     109.8  T
     SCC iter.                  ...        0 min,  0.010 sec
     gradient                   ...        0 min,  0.002 sec
 * total energy  :   -32.3989140 Eh     change       -0.7752726E-05 Eh
   gradient norm :     0.0009980 Eh/α   predicted    -0.3740606E-05 ( -51.75%)
   displ. norm   :     0.0968562 α      lambda       -0.1158364E-04
   maximum displ.:     0.0528179 α      in ANC's #7, #1, #8, ...

........................................................................
.............................. CYCLE   24 ..............................
........................................................................

 iter      E             dE          RMSdq      gap      omega  full diag
   1    -32.8231201 -0.328231E+02  0.292E-02    3.69       0.0  T
   2    -32.8231202 -0.720703E-07  0.173E-02    3.69       1.2  T
   3    -32.8231202 -0.115520E-07  0.944E-04    3.69      21.6  T
   4    -32.8231202 -0.366224E-08  0.666E-04    3.69      30.7  T
     SCC iter.                  ...        0 min,  0.011 sec
     gradient                   ...        0 min,  0.002 sec
 * total energy  :   -32.3989249 Eh     change       -0.1091891E-04 Eh
   gradient norm :     0.0014470 Eh/α   predicted    -0.5818033E-05 ( -46.72%)
   displ. norm   :     0.1455110 α      lambda       -0.1539332E-04
   maximum displ.:     0.0790023 α      in ANC's #7, #1, #4, ...

........................................................................
.............................. CYCLE   25 ..............................
........................................................................

 iter      E             dE          RMSdq      gap      omega  full diag
   1    -32.8228018 -0.328228E+02  0.421E-02    3.69       0.0  T
   2    -32.8228019 -0.144480E-06  0.249E-02    3.69       1.0  T
   3    -32.8228019 -0.474765E-08  0.152E-03    3.69      13.4  T
   4    -32.8228020 -0.164837E-07  0.933E-04    3.69      21.9  T
   5    -32.8228020 -0.113535E-07  0.425E-04    3.69      48.0  T
     SCC iter.                  ...        0 min,  0.015 sec
     gradient                   ...        0 min,  0.006 sec
 * total energy  :   -32.3989422 Eh     change       -0.1728606E-04 Eh
   gradient norm :     0.0018027 Eh/α   predicted    -0.7778073E-05 ( -55.00%)
   displ. norm   :     0.3205967 α      lambda       -0.3514430E-04
   maximum displ.:     0.1740501 α      in ANC's #7, #4, #1, ...

........................................................................
.............................. CYCLE   26 ..............................
........................................................................

 iter      E             dE          RMSdq      gap      omega  full diag
   1    -32.8212857 -0.328213E+02  0.959E-02    3.69       0.0  T
   2    -32.8212873 -0.153433E-05  0.566E-02    3.69       1.0  T
   3    -32.8212870  0.249376E-06  0.561E-03    3.68       3.6  T
   4    -32.8212873 -0.304928E-06  0.299E-03    3.69       6.8  T
   5    -32.8212875 -0.146414E-06  0.103E-03    3.69      19.8  T
   6    -32.8212875 -0.282909E-08  0.289E-04    3.69      70.7  T
   7    -32.8212875 -0.387601E-09  0.651E-05    3.69     313.4  T
     SCC iter.                  ...        0 min,  0.026 sec
     gradient                   ...        0 min,  0.002 sec
 * total energy  :   -32.3989535 Eh     change       -0.1131942E-04 Eh
   gradient norm :     0.0059809 Eh/α   predicted    -0.1837612E-04 (  62.34%)
   displ. norm   :     0.0492532 α      lambda       -0.5622936E-04
   maximum displ.:     0.0275684 α      in ANC's #7, #5, #8, ...

........................................................................
.............................. CYCLE   27 ..............................
........................................................................

 iter      E             dE          RMSdq      gap      omega  full diag
   1    -32.8227131 -0.328227E+02  0.170E-02    3.69       0.0  T
   2    -32.8227134 -0.370702E-06  0.962E-03    3.69       2.1  T
   3    -32.8227134 -0.173013E-07  0.229E-03    3.69       8.9  T
   4    -32.8227134 -0.735857E-08  0.491E-04    3.69      41.6  T
   5    -32.8227134 -0.100336E-09  0.307E-04    3.69      66.5  T
     SCC iter.                  ...        0 min,  0.012 sec
     gradient                   ...        0 min,  0.002 sec
 * total energy  :   -32.3989936 Eh     change       -0.4014716E-04 Eh
   gradient norm :     0.0032604 Eh/α   predicted    -0.2818658E-04 ( -29.79%)
   displ. norm   :     0.1105322 α      lambda       -0.6024433E-04
   maximum displ.:     0.0736838 α      in ANC's #4, #7, #1, ...

........................................................................
.............................. CYCLE   28 ..............................
........................................................................

 iter      E             dE          RMSdq      gap      omega  full diag
   1    -32.8237151 -0.328237E+02  0.385E-02    3.69       0.0  T
   2    -32.8237153 -0.160285E-06  0.228E-02    3.69       1.0  T
   3    -32.8237150  0.332376E-06  0.457E-03    3.69       4.5  T
   4    -32.8237153 -0.389787E-06  0.110E-03    3.69      18.5  T
   5    -32.8237154 -0.126494E-07  0.440E-04    3.69      46.4  T
   6    -32.8237154 -0.829701E-10  0.138E-04    3.69     147.5  T
     SCC iter.                  ...        0 min,  0.012 sec
     gradient                   ...        0 min,  0.002 sec
 * total energy  :   -32.3990398 Eh     change       -0.4620270E-04 Eh
   gradient norm :     0.0022626 Eh/α   predicted    -0.3049124E-04 ( -34.01%)
   displ. norm   :     0.2993759 α      lambda       -0.9144727E-04
   maximum displ.:     0.1887977 α      in ANC's #4, #7, #1, ...

........................................................................
.............................. CYCLE   29 ..............................
........................................................................

 iter      E             dE          RMSdq      gap      omega  full diag
   1    -32.8231401 -0.328231E+02  0.987E-02    3.69       0.0  T
   2    -32.8231410 -0.915491E-06  0.584E-02    3.69       1.0  T
   3    -32.8231386  0.243550E-05  0.121E-02    3.69       1.7  T
   4    -32.8231413 -0.277381E-05  0.235E-03    3.69       8.7  T
   5    -32.8231414 -0.640401E-07  0.100E-03    3.69      20.3  T
   6    -32.8231414 -0.569194E-09  0.306E-04    3.69      66.7  T
   7    -32.8231414 -0.634287E-09  0.839E-05    3.69     243.4  T
     SCC iter.                  ...        0 min,  0.009 sec
     gradient                   ...        0 min,  0.002 sec
 * total energy  :   -32.3991119 Eh     change       -0.7205339E-04 Eh
   gradient norm :     0.0037433 Eh/α   predicted    -0.4982218E-04 ( -30.85%)
   displ. norm   :     0.3164245 α      lambda       -0.8758699E-04
   maximum displ.:     0.2002420 α      in ANC's #4, #7, #1, ...

........................................................................
.............................. CYCLE   30 ..............................
........................................................................

 iter      E             dE          RMSdq      gap      omega  full diag
   1    -32.8213420 -0.328213E+02  0.108E-01    3.70       0.0  T
   2    -32.8213439 -0.182803E-05  0.641E-02    3.70       1.0  T
   3    -32.8213392  0.465746E-05  0.168E-02    3.70       1.2  T
   4    -32.8213444 -0.521870E-05  0.321E-03    3.70       6.3  T
   5    -32.8213446 -0.137071E-06  0.121E-03    3.70      16.9  T
   6    -32.8213446 -0.798465E-09  0.438E-04    3.70      46.6  T
   7    -32.8213446 -0.984457E-09  0.108E-04    3.70     188.9  T
     SCC iter.                  ...        0 min,  0.008 sec
     gradient                   ...        0 min,  0.002 sec
 * total energy  :   -32.3991482 Eh     change       -0.3635575E-04 Eh
   gradient norm :     0.0067017 Eh/α   predicted    -0.4818116E-04 (  32.53%)
   displ. norm   :     0.0661661 α      lambda       -0.1128948E-03
   maximum displ.:     0.0312487 α      in ANC's #8, #9, #12, ...

........................................................................
.............................. CYCLE   31 ..............................
........................................................................

 iter      E             dE          RMSdq      gap      omega  full diag
   1    -32.8234501 -0.328235E+02  0.329E-02    3.71       0.0  T
   2    -32.8234515 -0.141324E-05  0.187E-02    3.71       1.1  T
   3    -32.8234511  0.387049E-06  0.717E-03    3.71       2.8  T
   4    -32.8234515 -0.419233E-06  0.351E-03    3.71       5.8  T
   5    -32.8234517 -0.176037E-06  0.894E-04    3.71      22.8  T
   6    -32.8234517 -0.579064E-09  0.280E-04    3.71      72.8  T
     SCC iter.                  ...        0 min,  0.007 sec
     gradient                   ...        0 min,  0.002 sec
 * total energy  :   -32.3991858 Eh     change       -0.3758097E-04 Eh
   gradient norm :     0.0030367 Eh/α   predicted    -0.5669783E-04 (  50.87%)
   displ. norm   :     0.1182489 α      lambda       -0.7536266E-04
   maximum displ.:     0.0661200 α      in ANC's #1, #7, #4, ...

........................................................................
.............................. CYCLE   32 ..............................
........................................................................

 iter      E             dE          RMSdq      gap      omega  full diag
   1    -32.8232963 -0.328233E+02  0.377E-02    3.71       0.0  T
   2    -32.8232966 -0.285189E-06  0.221E-02    3.71       1.0  T
   3    -32.8232957  0.857661E-06  0.734E-03    3.71       2.8  T
   4    -32.8232967 -0.953569E-06  0.110E-03    3.71      18.5  T
   5    -32.8232967 -0.180301E-07  0.429E-04    3.71      47.5  T
   6    -32.8232967 -0.393051E-09  0.167E-04    3.71     122.0  T
     SCC iter.                  ...        0 min,  0.007 sec
     gradient                   ...        0 min,  0.002 sec
 * total energy  :   -32.3992426 Eh     change       -0.5675012E-04 Eh
   gradient norm :     0.0022275 Eh/α   predicted    -0.3822788E-04 ( -32.64%)
   displ. norm   :     0.3115690 α      lambda       -0.9555642E-04
   maximum displ.:     0.1752024 α      in ANC's #1, #4, #7, ...

........................................................................
.............................. CYCLE   33 ..............................
........................................................................

 iter      E             dE          RMSdq      gap      omega  full diag
   1    -32.8217656 -0.328218E+02  0.103E-01    3.71       0.0  T
   2    -32.8217677 -0.202385E-05  0.603E-02    3.72       1.0  T
   3    -32.8217631  0.457896E-05  0.167E-02    3.71       1.2  T
   4    -32.8217681 -0.504804E-05  0.320E-03    3.72       6.4  T
   5    -32.8217683 -0.152636E-06  0.977E-04    3.71      20.9  T
   6    -32.8217683 -0.668251E-09  0.348E-04    3.71      58.6  T
     SCC iter.                  ...        0 min,  0.007 sec
     gradient                   ...        0 min,  0.002 sec
 * total energy  :   -32.3992815 Eh     change       -0.3893142E-04 Eh
   gradient norm :     0.0065791 Eh/α   predicted    -0.5242126E-04 (  34.65%)
   displ. norm   :     0.0602775 α      lambda       -0.7306542E-04
   maximum displ.:     0.0362776 α      in ANC's #4, #8, #5, ...

........................................................................
.............................. CYCLE   34 ..............................
........................................................................

 iter      E             dE          RMSdq      gap      omega  full diag
   1    -32.8239290 -0.328239E+02  0.239E-02    3.72       0.0  T
   2    -32.8239299 -0.932555E-06  0.135E-02    3.72       1.5  T
   3    -32.8239299  0.305379E-07  0.454E-03    3.72       4.5  T
   4    -32.8239299 -0.734156E-07  0.168E-03    3.72      12.2  T
   5    -32.8239300 -0.426243E-07  0.677E-04    3.72      30.2  T
   6    -32.8239300 -0.272878E-08  0.297E-04    3.72      68.7  T
     SCC iter.                  ...        0 min,  0.007 sec
     gradient                   ...        0 min,  0.002 sec
 * total energy  :   -32.3993213 Eh     change       -0.3983937E-04 Eh
   gradient norm :     0.0028984 Eh/α   predicted    -0.3666786E-04 (  -7.96%)
   displ. norm   :     0.1199823 α      lambda       -0.4093165E-04
   maximum displ.:     0.0733407 α      in ANC's #1, #4, #7, ...

........................................................................
.............................. CYCLE   35 ..............................
........................................................................

 iter      E             dE          RMSdq      gap      omega  full diag
   1    -32.8240678 -0.328241E+02  0.400E-02    3.72       0.0  T
   2    -32.8240679 -0.609738E-07  0.237E-02    3.72       1.0  T
   3    -32.8240674  0.521684E-06  0.539E-03    3.72       3.8  T
   4    -32.8240680 -0.588632E-06  0.624E-04    3.72      32.7  T
   5    -32.8240680 -0.129197E-08  0.246E-04    3.72      82.8  T
     SCC iter.                  ...        0 min,  0.006 sec
     gradient                   ...        0 min,  0.002 sec
 * total energy  :   -32.3993572 Eh     change       -0.3588604E-04 Eh
   gradient norm :     0.0018408 Eh/α   predicted    -0.2076581E-04 ( -42.13%)
   displ. norm   :     0.6145294 α      lambda       -0.1112360E-03
   maximum displ.:     0.3704050 α      in ANC's #1, #4, #7, ...

........................................................................
.............................. CYCLE   36 ..............................
........................................................................

 iter      E             dE          RMSdq      gap      omega  full diag
   1    -32.8201509 -0.328202E+02  0.201E-01    3.73       0.0  T
   2    -32.8201569 -0.603733E-05  0.118E-01    3.73       1.0  T
   3    -32.8201455  0.114018E-04  0.264E-02    3.73       1.0  T
   4    -32.8201582 -0.126971E-04  0.595E-03    3.73       3.4  T
   5    -32.8201587 -0.507246E-06  0.180E-03    3.73      11.3  T
   6    -32.8201587 -0.178753E-08  0.649E-04    3.73      31.4  T
   7    -32.8201587 -0.205784E-08  0.177E-04    3.73     115.2  T
     SCC iter.                  ...        0 min,  0.008 sec
     gradient                   ...        0 min,  0.002 sec
 * total energy  :   -32.3993721 Eh     change       -0.1486425E-04 Eh
   gradient norm :     0.0082912 Eh/α   predicted    -0.6502949E-04 ( 337.49%)
   displ. norm   :     0.1410999 α      lambda       -0.1776980E-03
   maximum displ.:     0.0825901 α      in ANC's #4, #1, #7, ...

........................................................................
.............................. CYCLE   37 ..............................
........................................................................

 iter      E             dE          RMSdq      gap      omega  full diag
   1    -32.8235401 -0.328235E+02  0.528E-02    3.73       0.0  T
   2    -32.8235426 -0.248708E-05  0.302E-02    3.73       1.0  T
   3    -32.8235424  0.183283E-06  0.704E-03    3.73       2.9  T
   4    -32.8235426 -0.172896E-06  0.330E-03    3.73       6.2  T
   5    -32.8235428 -0.193502E-06  0.947E-04    3.73      21.5  T
   6    -32.8235428 -0.294609E-08  0.314E-04    3.73      65.0  T
     SCC iter.                  ...        0 min,  0.007 sec
     gradient                   ...        0 min,  0.002 sec
 * total energy  :   -32.3994546 Eh     change       -0.8249711E-04 Eh
   gradient norm :     0.0024437 Eh/α   predicted    -0.9049450E-04 (   9.69%)
   displ. norm   :     0.0673479 α      lambda       -0.2655167E-04
   maximum displ.:     0.0424266 α      in ANC's #1, #7, #2, ...

........................................................................
.............................. CYCLE   38 ..............................
........................................................................

 iter      E             dE          RMSdq      gap      omega  full diag
   1    -32.8242297 -0.328242E+02  0.210E-02    3.73       0.0  T
   2    -32.8242298 -0.675464E-07  0.123E-02    3.73       1.7  T
   3    -32.8242294  0.394874E-06  0.496E-03    3.73       4.1  T
   4    -32.8242298 -0.447167E-06  0.589E-04    3.73      34.7  T
   5    -32.8242298 -0.389254E-08  0.303E-04    3.73      67.4  T
     SCC iter.                  ...        0 min,  0.006 sec
     gradient                   ...        0 min,  0.002 sec
 * total energy  :   -32.3994740 Eh     change       -0.1938474E-04 Eh
   gradient norm :     0.0009309 Eh/α   predicted    -0.1338345E-04 ( -30.96%)
   displ. norm   :     0.2614481 α      lambda       -0.3156826E-04
   maximum displ.:     0.1608343 α      in ANC's #1, #2, #7, ...

........................................................................
.............................. CYCLE   39 ..............................
........................................................................

 iter      E             dE          RMSdq      gap      omega  full diag
   1    -32.8243143 -0.328243E+02  0.815E-02    3.74       0.0  T
   2    -32.8243149 -0.623256E-06  0.481E-02    3.74       1.0  T
   3    -32.8243104  0.447295E-05  0.162E-02    3.74       1.3  T
   4    -32.8243154 -0.497767E-05  0.151E-03    3.74      13.5  T
   5    -32.8243154 -0.182163E-07  0.712E-04    3.74      28.7  T
   6    -32.8243154 -0.392120E-09  0.168E-04    3.74     121.5  T
     SCC iter.                  ...        0 min,  0.007 sec
     gradient                   ...        0 min,  0.002 sec
 * total energy  :   -32.3994993 Eh     change       -0.2535144E-04 Eh
   gradient norm :     0.0022473 Eh/α   predicted    -0.1644953E-04 ( -35.11%)
   displ. norm   :     0.0440709 α      lambda       -0.1083914E-04
   maximum displ.:     0.0229266 α      in ANC's #2, #1, #7, ...

........................................................................
.............................. CYCLE   40 ..............................
........................................................................

 iter      E             dE          RMSdq      gap      omega  full diag
   1    -32.8245918 -0.328246E+02  0.136E-02    3.74       0.0  T
   2    -32.8245918 -0.237991E-07  0.808E-03    3.74       2.5  T
   3    -32.8245917  0.128996E-06  0.278E-03    3.74       7.4  T
   4    -32.8245918 -0.144092E-06  0.444E-04    3.74      46.0  T
   5    -32.8245918 -0.224347E-08  0.169E-04    3.74     121.1  T
     SCC iter.                  ...        0 min,  0.006 sec
     gradient                   ...        0 min,  0.002 sec
 * total energy  :   -32.3995076 Eh     change       -0.8258338E-05 Eh
   gradient norm :     0.0012086 Eh/α   predicted    -0.5406914E-05 ( -34.53%)
   displ. norm   :     0.1522962 α      lambda       -0.1371012E-04
   maximum displ.:     0.0805500 α      in ANC's #1, #2, #7, ...

........................................................................
.............................. CYCLE   41 ..............................
........................................................................

 iter      E             dE          RMSdq      gap      omega  full diag
   1    -32.8243378 -0.328243E+02  0.475E-02    3.75       0.0  T
   2    -32.8243379 -0.134507E-06  0.281E-02    3.75       1.0  T
   3    -32.8243369  0.102043E-05  0.763E-03    3.74       2.7  T
   4    -32.8243380 -0.114208E-05  0.935E-04    3.75      21.8  T
   5    -32.8243380 -0.579722E-08  0.411E-04    3.75      49.7  T
   6    -32.8243380 -0.421814E-09  0.133E-04    3.75     153.9  T
     SCC iter.                  ...        0 min,  0.007 sec
     gradient                   ...        0 min,  0.002 sec
 * total energy  :   -32.3995179 Eh     change       -0.1030752E-04 Eh
   gradient norm :     0.0012134 Eh/α   predicted    -0.6822028E-05 ( -33.82%)
   displ. norm   :     0.0468862 α      lambda       -0.6407876E-05
   maximum displ.:     0.0293560 α      in ANC's #2, #10, #9, ...

........................................................................
.............................. CYCLE   42 ..............................
........................................................................

 iter      E             dE          RMSdq      gap      omega  full diag
   1    -32.8249132 -0.328249E+02  0.117E-02    3.75       0.0  T
   2    -32.8249132 -0.142896E-07  0.696E-03    3.75       2.9  T
   3    -32.8249131  0.132454E-06  0.283E-03    3.75       7.2  T
   4    -32.8249132 -0.148337E-06  0.262E-04    3.75      77.9  T
   5    -32.8249132 -0.397606E-09  0.147E-04    3.75     139.2  T
     SCC iter.                  ...        0 min,  0.006 sec
     gradient                   ...        0 min,  0.002 sec
 * total energy  :   -32.3995242 Eh     change       -0.6350891E-05 Eh
   gradient norm :     0.0015604 Eh/α   predicted    -0.3231425E-05 ( -49.12%)
   displ. norm   :     0.0740070 α      lambda       -0.8704572E-05
   maximum displ.:     0.0399912 α      in ANC's #2, #9, #10, ...
 * RMSD in coord.:     0.5549846 α      energy gain  -0.6365912E-03 Eh

generating ANC from exact Hessian ...
Using Lindh-Hessian (1995)
 Shifting diagonal of input Hessian by   9.080123118121973E-003
 Lowest  eigenvalues of input Hessian
    0.000000    0.000000    0.000000    0.000000    0.000000    0.000000
    0.010000    0.010422    0.012041    0.015731    0.017422    0.018682
    0.018880    0.019151    0.019284    0.019309    0.021418    0.022102
 Highest eigenvalues
    1.267201    1.289961    1.460713    1.818768    1.929093    2.395069
 

........................................................................
.............................. CYCLE   43 ..............................
........................................................................

 iter      E             dE          RMSdq      gap      omega  full diag
   1    -32.8248970 -0.328249E+02  0.214E-02    3.75       0.0  T
   2    -32.8248970 -0.664990E-07  0.127E-02    3.75       1.6  T
   3    -32.8248968  0.223131E-06  0.360E-03    3.75       5.7  T
   4    -32.8248971 -0.252260E-06  0.665E-04    3.75      30.7  T
   5    -32.8248971 -0.523908E-08  0.271E-04    3.75      75.3  T
     SCC iter.                  ...        0 min,  0.006 sec
     gradient                   ...        0 min,  0.002 sec
 * total energy  :   -32.3995299 Eh     change       -0.5652385E-05 Eh
   gradient norm :     0.0007654 Eh/α   predicted     0.0000000E+00 (-100.00%)
   displ. norm   :     0.0170853 α      lambda       -0.5311611E-06
   maximum displ.:     0.0103172 α      in ANC's #1, #5, #7, ...

........................................................................
.............................. CYCLE   44 ..............................
........................................................................

 iter      E             dE          RMSdq      gap      omega  full diag
   1    -32.8247659 -0.328248E+02  0.688E-03    3.75       0.0  T
   2    -32.8247659 -0.454930E-08  0.408E-03    3.75       5.0  T
   3    -32.8247659  0.198982E-07  0.110E-03    3.75      18.5  T
   4    -32.8247659 -0.227057E-07  0.140E-04    3.75     145.7  T
   5    -32.8247659 -0.110376E-09  0.680E-05    3.75     300.0  T
     SCC iter.                  ...        0 min,  0.006 sec
     gradient                   ...        0 min,  0.002 sec
 * total energy  :   -32.3995328 Eh     change       -0.2857864E-05 Eh
   gradient norm :     0.0002975 Eh/α   predicted    -0.1446493E-05 ( -49.39%)
   displ. norm   :     0.0375775 α      lambda       -0.3751666E-05
   maximum displ.:     0.0239626 α      in ANC's #1, #5, #7, ...

   *** GEOMETRY OPTIMIZATION CONVERGED AFTER 44 ITERATIONS ***

------------------------------------------------------------------------
 total energy gain   :        -0.0215072 Eh      -13.4960 kcal/mol
 total RMSD          :         0.8153999 a0        0.4315 Å
 total power (kW/mol):        -1.2833428 (step)  -96.0215 (real)
------------------------------------------------------------------------

 ANCopt (total)                0 d,  0 h,  0 min,  0.588 sec
 optimizer setup                ...        0 min,  0.000 sec (  0.020%)
 model hessian                  ...        0 min,  0.048 sec (  8.239%)
 ANC generation                 ...        0 min,  0.005 sec (  0.781%)
 coordinate transformation      ...        0 min,  0.000 sec (  0.062%)
 single point calculation       ...        0 min,  0.508 sec ( 86.326%)
 optimization log               ...        0 min,  0.007 sec (  1.145%)
 hessian update                 ...        0 min,  0.012 sec (  2.040%)
 rational function              ...        0 min,  0.004 sec (  0.739%)

================
 final structure:
================
24
 xtb: 6.7.1 (edcfbbe)
C            3.32467375982349        1.01440939720515       -0.03392707151513
C            2.26316188823506       -0.03877533587058       -0.02059210400168
C            2.51001185407265       -1.34339676267966       -0.01092775666387
C            0.86523588106915        0.48894108329033       -0.05941494389571
O            0.60344464396600        1.62817939748518       -0.36693279411726
O           -0.02257706991131       -0.44311125076689        0.27856567456301
C           -1.44504805252984       -0.16518604768320        0.28006796666112
C           -1.90981907631874        0.20924642060529       -1.12704499527558
C           -1.76834319840427        0.94444958589205        1.28014606879239
C           -2.07943770278932       -1.48491649976588        0.72127878153722
H            3.08006796459822        1.76832860586746       -0.77928673532732
H            3.36175446455071        1.51436859228478        0.93362711267174
H            4.29908949608725        0.58483837995695       -0.24793716443497
H            1.71546655675018       -2.06835401619788       -0.00941560895041
H            3.51843652332109       -1.72324937919793       -0.00774437778146
H           -2.98979593093562        0.32715596312328       -1.13544320510952
H           -1.45088201349542        1.14282847183838       -1.44050236095965
H           -1.63390791144222       -0.57229280960637       -1.83209394401653
H           -1.37469507946516        0.68828618938969        2.26164312613618
H           -1.32692291882309        1.88375865101052        0.95902542689536
H           -2.84540968512121        1.06705842351056        1.35299952897364
H           -1.72214960814068       -1.75730758512530        1.71090906604519
H           -3.16064501756402       -1.38780148926172        0.74810988298102
H           -1.81170976753278       -2.27745998530399        0.02734642679212
 
 Bond Distances (Angstroems)
 ---------------------------
C1-C2=1.4954         C1-H11=1.0880        C1-H12=1.0897        C1-H13=1.0862        C2-C1=1.4954         C2-C3=1.3278         
C2-C4=1.4947         C3-C2=1.3278         C3-H14=1.0756        C3-H15=1.0776        C4-C2=1.4947         C4-O5=1.2087         
C4-O6=1.3309         O5-C4=1.2087         O6-C4=1.3309         O6-C7=1.4494         C7-O6=1.4494         C7-C8=1.5285         
C7-C9=1.5284         C7-C10=1.5293        C8-C7=1.5285         C8-H16=1.0864        C8-H17=1.0865        C8-H18=1.0881        
C9-C7=1.5284         C9-H19=1.0881        C9-H20=1.0864        C9-H21=1.0865        C10-C7=1.5293        C10-H22=1.0868       
C10-H23=1.0859       C10-H24=1.0869       H11-C1=1.0880        H12-C1=1.0897        H13-C1=1.0862        H14-C3=1.0756        
H15-C3=1.0776        H16-C8=1.0864        H17-C8=1.0865        H18-C8=1.0881        H19-C9=1.0881        H20-C9=1.0864        
H21-C9=1.0865        H22-C10=1.0868       H23-C10=1.0859       H24-C10=1.0869       
 C  H  Rav=1.0856 sigma=0.0038  Rmin=1.0756  Rmax=1.0897    14
 C  C  Rav=1.4840 sigma=0.0715  Rmin=1.3278  Rmax=1.5293     6
 O  C  Rav=1.3296 sigma=0.0983  Rmin=1.2087  Rmax=1.4494     3
 
 selected bond angles (degree)
 --------------------
H11-C1-C2=109.54               H12-C1-C2=109.84               H12-C1-H11=107.34              H13-C1-C2=111.10               
H13-C1-H11=109.92              H13-C1-H12=109.02              C3-C2-C1=124.06                C4-C2-C1=114.52                
C4-C2-C3=121.40                H14-C3-C2=121.66               H15-C3-C2=121.36               H15-C3-H14=116.98              
O5-C4-C2=122.82                O6-C4-C2=111.72                O6-C4-O5=125.47                C7-O6-C4=121.38                
C8-C7-O6=110.15                C9-C7-O6=110.33                C9-C7-C8=111.11                C10-C7-O6=104.00               
C10-C7-C8=110.54               C10-C7-C9=110.49               H16-C8-C7=109.63               H17-C8-C7=110.34               
H17-C8-H16=108.93              H18-C8-C7=110.09               H18-C8-H16=108.97              H18-C8-H17=108.85              
H19-C9-C7=110.05               H20-C9-C7=110.39               H20-C9-H19=108.86              H21-C9-C7=109.60               
H21-C9-H19=108.95              H21-C9-H20=108.97              H22-C10-C7=110.04              H23-C10-C7=110.06              
H23-C10-H22=109.10             H24-C10-C7=110.05              H24-C10-H22=108.52             H24-C10-H23=109.04             
 
 selected dihedral angles (degree)
 ---------------------------------
C3-C2-C1-H11=133.79           C3-C2-C1-H12=251.45           C3-C2-C1-H13= 12.15           C4-C2-C1-H11=315.50           
C4-C2-C1-H12= 73.16           C4-C2-C1-H13=193.86           H14-C3-C2-C1=180.50           H14-C3-C2-C4=358.67           
H15-C3-C2-C1=  0.28           H15-C3-C2-C4=178.45           O5-C4-C2-C1= 15.38            O5-C4-C2-C3=197.04            
O6-C4-C2-C1=195.25            O6-C4-C2-C3= 16.91            C7-O6-C4-C2=181.47            C7-O6-C4-O5=  1.33            
C8-C7-O6-C4= 61.55            C9-C7-O6-C4=298.51            C10-C7-O6-C4=180.01           H16-C8-C7-O6=174.87           
H16-C8-C7-C9=297.45           H16-C8-C7-C10= 60.50          H17-C8-C7-O6=294.85           H17-C8-C7-C9= 57.42           
H17-C8-C7-C10=180.47          H18-C8-C7-O6= 55.01           H18-C8-C7-C9=177.59           H18-C8-C7-C10=300.64          
H19-C9-C7-O6=306.05           H19-C9-C7-C8=183.58           H19-C9-C7-C10= 60.50          H20-C9-C7-O6= 66.23           
H20-C9-C7-C8=303.75           H20-C9-C7-C10=180.68          H21-C9-C7-O6=186.26           H21-C9-C7-C8= 63.78           
H21-C9-C7-C10=300.71          H22-C10-C7-O6= 60.23          H22-C10-C7-C8=178.43          H22-C10-C7-C9=301.84          
H23-C10-C7-O6=180.49          H23-C10-C7-C8=298.69          H23-C10-C7-C9= 62.10          H24-C10-C7-O6=300.69          
H24-C10-C7-C8= 58.89          H24-C10-C7-C9=182.30          
           -------------------------------------------------
          |                Final Singlepoint                |
           -------------------------------------------------

          ...................................................
          :                      SETUP                      :
          :.................................................:
          :  # basis functions                  54          :
          :  # atomic orbitals                  54          :
          :  # shells                           34          :
          :  # electrons                        58          :
          :  max. iterations                   250          :
          :  Hamiltonian                  GFN2-xTB          :
          :  restarted?                      false          :
          :  GBSA solvation                  false          :
          :  PC potential                    false          :
          :  electronic temp.          300.0000000     K    :
          :  accuracy                    1.0000000          :
          :  -> integral cutoff          0.2500000E+02      :
          :  -> integral neglect         0.1000000E-07      :
          :  -> SCF convergence          0.1000000E-05 Eh   :
          :  -> wf. convergence          0.1000000E-03 e    :
          :  Broyden damping             0.4000000          :
          :  net charge                          0          :
          :  unpaired electrons                  0          :
          ...................................................

 iter      E             dE          RMSdq      gap      omega  full diag
   1    -32.8247659 -0.328248E+02  0.213E-05    3.75       0.0  T
   2    -32.8247659 -0.206768E-11  0.115E-05    3.75    1776.3  T
   3    -32.8247659 -0.362377E-12  0.740E-06    3.75    2756.8  T

   *** convergence criteria satisfied after 3 iterations ***

         #    Occupation            Energy/Eh            Energy/eV
      -------------------------------------------------------------
         1        2.0000           -0.7302510             -19.8711
       ...           ...                  ...                  ...
        23        2.0000           -0.4602082             -12.5229
        24        2.0000           -0.4551359             -12.3849
        25        2.0000           -0.4507664             -12.2660
        26        2.0000           -0.4400342             -11.9739
        27        2.0000           -0.4303591             -11.7107
        28        2.0000           -0.4117846             -11.2052
        29        2.0000           -0.3981814             -10.8351 (HOMO)
        30                         -0.2602871              -7.0828 (LUMO)
        31                         -0.1591264              -4.3300
        32                         -0.0173336              -0.4717
        33                          0.0797011               2.1688
        34                          0.0900927               2.4515
       ...                                ...                  ...
        54                          0.7094761              19.3058
      -------------------------------------------------------------
                  HL-Gap            0.1378943 Eh            3.7523 eV
             Fermi-level           -0.3292343 Eh           -8.9589 eV

 SCC (total)                   0 d,  0 h,  0 min,  0.008 sec
 SCC setup                      ...        0 min,  0.001 sec ( 14.907%)
 Dispersion                     ...        0 min,  0.000 sec (  2.892%)
 classical contributions        ...        0 min,  0.000 sec (  0.668%)
 integral evaluation            ...        0 min,  0.000 sec (  5.553%)
 iterations                     ...        0 min,  0.004 sec ( 49.371%)
 molecular gradient             ...        0 min,  0.002 sec ( 22.621%)
 printout                       ...        0 min,  0.000 sec (  3.682%)

         :::::::::::::::::::::::::::::::::::::::::::::::::::::
         ::                     SUMMARY                     ::
         :::::::::::::::::::::::::::::::::::::::::::::::::::::
         :: total energy             -32.399532755357 Eh    ::
         :: gradient norm              0.000297718065 Eh/a0 ::
         :: HOMO-LUMO gap              3.752294497242 eV    ::
         ::.................................................::
         :: SCC energy               -32.824651488905 Eh    ::
         :: -> isotropic ES            0.050013537450 Eh    ::
         :: -> anisotropic ES          0.003187436359 Eh    ::
         :: -> anisotropic XC          0.012029438267 Eh    ::
         :: -> dispersion             -0.017289253349 Eh    ::
         :: repulsion energy           0.425118733548 Eh    ::
         :: add. restraining           0.000000000000 Eh    ::
         :: total charge               0.000000000000 e     ::
         :::::::::::::::::::::::::::::::::::::::::::::::::::::

           -------------------------------------------------
          |                Property Printout                |
           -------------------------------------------------

    * Orbital Energies and Occupations

         #    Occupation            Energy/Eh            Energy/eV
      -------------------------------------------------------------
         1        2.0000           -0.7302510             -19.8711
       ...           ...                  ...                  ...
        17        2.0000           -0.4870000             -13.2519
        18        2.0000           -0.4850399             -13.1986
        19        2.0000           -0.4751349             -12.9291
        20        2.0000           -0.4716448             -12.8341
        21        2.0000           -0.4670484             -12.7090
        22        2.0000           -0.4619324             -12.5698
        23        2.0000           -0.4602082             -12.5229
        24        2.0000           -0.4551359             -12.3849
        25        2.0000           -0.4507664             -12.2660
        26        2.0000           -0.4400342             -11.9739
        27        2.0000           -0.4303591             -11.7107
        28        2.0000           -0.4117846             -11.2052
        29        2.0000           -0.3981814             -10.8351 (HOMO)
        30                         -0.2602871              -7.0828 (LUMO)
        31                         -0.1591264              -4.3300
        32                         -0.0173336              -0.4717
        33                          0.0797011               2.1688
        34                          0.0900927               2.4515
        35                          0.1053069               2.8655
        36                          0.1153746               3.1395
        37                          0.1212740               3.3000
        38                          0.1465913               3.9890
        39                          0.1790081               4.8711
        40                          0.1863743               5.0715
       ...                                ...                  ...
        54                          0.7094761              19.3058
      -------------------------------------------------------------
                  HL-Gap            0.1378943 Eh            3.7523 eV
             Fermi-level           -0.3292343 Eh           -8.9589 eV

     #   Z          covCN         q      C6AA      α(0)
     1   6 C        3.759    -0.110    22.654     6.786
     2   6 C        2.938    -0.009    28.238     8.715
     3   6 C        2.844    -0.083    30.081     8.989
     4   6 C        2.709     0.357    20.944     7.491
     5   8 O        0.856    -0.425    22.179     6.314
     6   8 O        1.703    -0.277    18.594     5.822
     7   6 C        3.781     0.155    18.114     6.063
     8   6 C        3.756    -0.118    22.814     6.810
     9   6 C        3.756    -0.118    22.819     6.811
    10   6 C        3.757    -0.118    22.815     6.810
    11   1 H        0.925     0.070     2.089     2.260
    12   1 H        0.925     0.058     2.224     2.332
    13   1 H        0.925     0.049     2.337     2.391
    14   1 H        0.926     0.059     2.211     2.325
    15   1 H        0.926     0.051     2.303     2.373
    16   1 H        0.925     0.044     2.392     2.419
    17   1 H        0.925     0.066     2.128     2.281
    18   1 H        0.925     0.043     2.411     2.428
    19   1 H        0.925     0.043     2.407     2.426
    20   1 H        0.925     0.067     2.114     2.274
    21   1 H        0.925     0.044     2.398     2.422
    22   1 H        0.925     0.052     2.292     2.367
    23   1 H        0.925     0.048     2.341     2.392
    24   1 H        0.925     0.051     2.304     2.373

 Mol. C6AA /au·bohr⁶  :       4721.890425
 Mol. C8AA /au·bohr⁸  :     103377.501341
 Mol. α(0) /au        :        103.675327


Wiberg/Mayer (AO) data.
largest (>0.10) Wiberg bond orders for each atom

 ---------------------------------------------------------------------------
     #   Z sym  total        # sym  WBO       # sym  WBO       # sym  WBO
 ---------------------------------------------------------------------------
     1   6 C    3.994 --     2 C    1.029    13 H    0.984    11 H    0.969
                            12 H    0.965
     2   6 C    3.986 --     3 C    1.886     1 C    1.029     4 C    0.982
     3   6 C    3.989 --     2 C    1.886    15 H    0.974    14 H    0.973
     4   6 C    3.918 --     5 O    1.715     6 O    1.145     2 C    0.982
     5   8 O    2.024 --     4 C    1.715     6 O    0.174
     6   8 O    2.311 --     4 C    1.145     7 C    0.899     5 O    0.174
     7   6 C    3.921 --    10 C    0.995     8 C    0.994     9 C    0.994
                             6 O    0.899
     8   6 C    3.993 --     7 C    0.994    18 H    0.985    16 H    0.984
                            17 H    0.980
     9   6 C    3.993 --     7 C    0.994    19 H    0.985    21 H    0.984
                            20 H    0.980
    10   6 C    3.993 --     7 C    0.995    24 H    0.985    22 H    0.985
                            23 H    0.984
    11   1 H    0.995 --     1 C    0.969
    12   1 H    0.997 --     1 C    0.965
    13   1 H    0.997 --     1 C    0.984
    14   1 H    0.997 --     3 C    0.973
    15   1 H    0.997 --     3 C    0.974
    16   1 H    0.997 --     8 C    0.984
    17   1 H    0.996 --     8 C    0.980
    18   1 H    0.998 --     8 C    0.985
    19   1 H    0.998 --     9 C    0.985
    20   1 H    0.995 --     9 C    0.980
    21   1 H    0.998 --     9 C    0.984
    22   1 H    0.997 --    10 C    0.985
    23   1 H    0.997 --    10 C    0.984
    24   1 H    0.997 --    10 C    0.985
 ---------------------------------------------------------------------------

Topologies differ in total number of bonds
Writing topology from bond orders to xtbtopo.mol

molecular dipole:
                 x           y           z       tot (Debye)
 q only:       -0.167      -0.676       0.214
   full:       -0.156      -0.771       0.244       2.093
molecular quadrupole (traceless):
                xx          xy          yy          xz          yz          zz
 q only:        7.601      -0.207      -5.207      -0.332       1.212      -2.395
  q+dip:        7.901      -1.013      -5.588      -0.026       1.950      -2.313
   full:        7.551      -0.693      -6.527      -0.029       2.182      -1.024

           -------------------------------------------------
          |                Geometry Summary                 |
           -------------------------------------------------

      molecular mass/u    :      142.1958675
   center of mass at/Å    :        0.1974584       0.0959054       0.0950357
  moments of inertia/u·Å² :        0.2063100E+03   0.6011649E+03   0.6891546E+03
rotational constants/cm⁻¹ :        0.8171019E-01   0.2804161E-01   0.2446132E-01

 * 20 selected distances

     #   Z          #   Z                                           value/Å
     2   6 C        3   6 C                                       1.3278048
     4   6 C        5   8 O                                       1.2087043
     4   6 C        6   8 O                                       1.3308511
     7   6 C        8   6 C                                       1.5284564
     7   6 C        9   6 C                                       1.5283873
     7   6 C       10   6 C                                       1.5293156 (max)
     1   6 C       11   1 H                                       1.0880200
     1   6 C       12   1 H                                       1.0897227
     1   6 C       13   1 H                                       1.0861942
     3   6 C       14   1 H                                       1.0755779 (min)
     3   6 C       15   1 H                                       1.0775986
     8   6 C       16   1 H                                       1.0864269
     8   6 C       17   1 H                                       1.0864872
     8   6 C       18   1 H                                       1.0881290
     9   6 C       19   1 H                                       1.0880787
     9   6 C       20   1 H                                       1.0864033
     9   6 C       21   1 H                                       1.0864681
    10   6 C       22   1 H                                       1.0868395
    10   6 C       23   1 H                                       1.0858917
    10   6 C       24   1 H                                       1.0868973

 * 3 distinct bonds (by element types)

   Z      Z             #   av. dist./Å        max./Å        min./Å
   1 H    6 C          14     1.0856239     1.0897227     1.0755779
   6 C    6 C           4     1.4784910     1.5293156     1.3278048
   6 C    8 O           2     1.2697777     1.3308511     1.2087043


optimized geometry written to: xtbopt.xyz


           -------------------------------------------------
          | TOTAL ENERGY              -32.399532755357 Eh   |
          | GRADIENT NORM               0.000297718065 Eh/α |
          | HOMO-LUMO GAP               3.752294497242 eV   |
           -------------------------------------------------

------------------------------------------------------------------------
 * finished run on 2025/12/01 at 14:19:25.940     
------------------------------------------------------------------------
 total:
 * wall-time:     0 d,  0 h,  0 min,  0.630 sec
 *  cpu-time:     0 d,  0 h,  0 min, 14.225 sec
 * ratio c/w:    22.585 speedup
 SCF:
 * wall-time:     0 d,  0 h,  0 min,  0.026 sec
 *  cpu-time:     0 d,  0 h,  0 min,  0.566 sec
 * ratio c/w:    21.844 speedup
 ANC optimizer:
 * wall-time:     0 d,  0 h,  0 min,  0.597 sec
 *  cpu-time:     0 d,  0 h,  0 min, 13.538 sec
 * ratio c/w:    22.687 speedup

normal termination of xtb
