      -----------------------------------------------------------      
     |                   =====================                   |     
     |                           x T B                           |     
     |                   =====================                   |     
     |                         S. Grimme                         |     
     |          Mulliken Center for Theoretical Chemistry        |     
     |                    University of Bonn                     |     
      -----------------------------------------------------------      

   * xtb version 6.7.1 (edcfbbe) compiled by 'albert@albert-system' on 2024-07-22

   xtb is free software: you can redistribute it and/or modify it under
   the terms of the GNU Lesser General Public License as published by
   the Free Software Foundation, either version 3 of the License, or
   (at your option) any later version.
   
   xtb is distributed in the hope that it will be useful,
   but WITHOUT ANY WARRANTY; without even the implied warranty of
   MERCHANTABILITY or FITNESS FOR A PARTICULAR PURPOSE.  See the
   GNU Lesser General Public License for more details.
   
   Cite this work as:
   * C. Bannwarth, E. Caldeweyher, S. Ehlert, A. Hansen, P. Pracht,
     J. Seibert, S. Spicher, S. Grimme, WIREs Comput. Mol. Sci., 2020, 11,
     e01493. DOI: 10.1002/wcms.1493
   
   for GFN2-xTB:
   * C. Bannwarth, S. Ehlert and S. Grimme., J. Chem. Theory Comput., 2019,
     15, 1652-1671. DOI: 10.1021/acs.jctc.8b01176
   for GFN1-xTB:
   * S. Grimme, C. Bannwarth, P. Shushkov, J. Chem. Theory Comput., 2017,
     13, 1989-2009. DOI: 10.1021/acs.jctc.7b00118
   for GFN0-xTB:
   * P. Pracht, E. Caldeweyher, S. Ehlert, S. Grimme, ChemRxiv, 2019, preprint.
     DOI: 10.26434/chemrxiv.8326202.v1
   for GFN-FF:
   * S. Spicher and S. Grimme, Angew. Chem. Int. Ed., 2020, 59, 15665-15673.
     DOI: 10.1002/anie.202004239
   
   for ALPB and GBSA implicit solvation:
   * S. Ehlert, M. Stahn, S. Spicher, S. Grimme, J. Chem. Theory Comput.,
     2021, 17, 4250-4261. DOI: 10.1021/acs.jctc.1c00471
   
   for ddCOSMO and CPCM-X implicit solvation:
   * M. Stahn, S. Ehlert, S. Grimme, J. Phys. Chem. A,
     2023, XX, XXXX-XXXX. DOI: 10.1021/acs.jpca.3c04382
   
   for DFT-D4:
   * E. Caldeweyher, C. Bannwarth and S. Grimme, J. Chem. Phys., 2017,
     147, 034112. DOI: 10.1063/1.4993215
   * E. Caldeweyher, S. Ehlert, A. Hansen, H. Neugebauer, S. Spicher,
     C. Bannwarth and S. Grimme, J. Chem. Phys., 2019, 150, 154122.
     DOI: 10.1063/1.5090222
   * E. Caldeweyher, J.-M. Mewes, S. Ehlert and S. Grimme, Phys. Chem. Chem. Phys.
     2020, 22, 8499-8512. DOI: 10.1039/D0CP00502A
   
   for sTDA-xTB:
   * S. Grimme and C. Bannwarth, J. Chem. Phys., 2016, 145, 054103.
     DOI: 10.1063/1.4959605
   
   in the mass-spec context:
   * V. Asgeirsson, C. Bauer and S. Grimme, Chem. Sci., 2017, 8, 4879.
     DOI: 10.1039/c7sc00601b
   * J. Koopman and S. Grimme, ACS Omega 2019, 4, 12, 15120-15133.
     DOI: 10.1021/acsomega.9b02011
   
   for metadynamics refer to:
   * S. Grimme, J. Chem. Theory Comput., 2019, 155, 2847-2862
     DOI: 10.1021/acs.jctc.9b00143
   
   for SPH calculations refer to:
   * S. Spicher and S. Grimme, J. Chem. Theory Comput., 2021, 17, 1701-1714
     DOI: 10.1021/acs.jctc.0c01306
   
   for ONIOM refer to:
   * C. Plett, A. Katbashev, S. Ehlert, S. Grimme, M. Bursch,
     Phys. Chem. Chem. Phys., 2023, 25, 17860-17868. DOI: 10.1039/D3CP02178E
   
   for DIPRO refer to:
   * J. Kohn, N. Gildemeister, S. Grimme, D. Fazzi, A. Hansen,
     J. Chem. Phys., 2023, just accepted.
   
   for PTB refer to:
   * S. Grimme, M. Mueller, A. Hansen, J. Chem. Phys., 2023, 158, 124111.
     DOI: 10.1063/5.0137838
   
   with help from (in alphabetical order)
   P. Atkinson, C. Bannwarth, F. Bohle, G. Brandenburg, E. Caldeweyher
   M. Checinski, S. Dohm, S. Ehlert, S. Ehrlich, I. Gerasimov, C. Hölzer
   A. Katbashev, J. Kohn, J. Koopman, C. Lavigne, S. Lehtola, F. März, M. Müller,
   F. Musil, H. Neugebauer, J. Pisarek, C. Plett, P. Pracht, F. Pultar,
   J. Seibert, P. Shushkov, S. Spicher, M. Stahn, M. Steiner, T. Strunk,
   J. Stückrath, T. Rose, and J. Unsleber
   
 * started run on 2025/12/01 at 14:19:27.400     
   ID    Z sym.   atoms
    1    6 C      1, 2, 4, 6-8
    2    8 O      3, 5
    3    1 H      9-18

           -------------------------------------------------
          |                Calculation Setup                |
           -------------------------------------------------

          program call               : xtb pipeline_data/3_conformer_xyz/acrylates/rdkit/SUPCQIBBMFXVTL-UHFFFAOYSA-N_conf219.xyz --opt --gfn 2-xTB --iterations 250
          coordinate file            : pipeline_data/3_conformer_xyz/acrylates/rdkit/SUPCQIBBMFXVTL-UHFFFAOYSA-N_conf219.xyz
          omp threads                :                    24

########################################################################
[WARNING] Please study the warnings concerning your input carefully
-1- readin_getIntValue: could not parse '2-xTB'
########################################################################

           -------------------------------------------------
          |                 G F N 2 - x T B                 |
           -------------------------------------------------

        Reference                      10.1021/acs.jctc.8b01176
      * Hamiltonian:
        H0-scaling (s, p, d)           1.850000    2.230000    2.230000
        zeta-weighting                 0.500000
      * Dispersion:
        s8                             2.700000
        a1                             0.520000
        a2                             5.000000
        s9                             5.000000
      * Repulsion:
        kExp                           1.500000    1.000000
        rExp                           1.000000
      * Coulomb:
        alpha                          2.000000
        third order                    shell-resolved
        anisotropic                    true
        a3                             3.000000
        a5                             4.000000
        cn-shift                       1.200000
        cn-exp                         4.000000
        max-rad                        5.000000

q/qsh data taken from xtbrestart
CAMM data taken from xtbrestart

          ...................................................
          :                      SETUP                      :
          :.................................................:
          :  # basis functions                  42          :
          :  # atomic orbitals                  42          :
          :  # shells                           26          :
          :  # electrons                        46          :
          :  max. iterations                   250          :
          :  Hamiltonian                  GFN2-xTB          :
          :  restarted?                       true          :
          :  GBSA solvation                  false          :
          :  PC potential                    false          :
          :  electronic temp.          300.0000000     K    :
          :  accuracy                    1.0000000          :
          :  -> integral cutoff          0.2500000E+02      :
          :  -> integral neglect         0.1000000E-07      :
          :  -> SCF convergence          0.1000000E-05 Eh   :
          :  -> wf. convergence          0.1000000E-03 e    :
          :  Broyden damping             0.4000000          :
          :  net charge                          0          :
          :  unpaired electrons                  0          :
          ...................................................

 iter      E             dE          RMSdq      gap      omega  full diag
   1    -26.3344844 -0.263345E+02  0.406E+00    3.41       0.0  T
   2    -26.3374192 -0.293483E-02  0.241E+00    3.29       1.0  T
   3    -26.3380887 -0.669480E-03  0.215E-01    3.37       1.0  T
   4    -26.3381942 -0.105523E-03  0.119E-01    3.32       1.0  T
   5    -26.3381760  0.181776E-04  0.786E-02    3.35       1.0  T
   6    -26.3382199 -0.438774E-04  0.232E-02    3.34       1.0  T
   7    -26.3382269 -0.699319E-05  0.929E-03    3.34       2.5  T
   8    -26.3382273 -0.386691E-06  0.365E-03    3.34       6.5  T
   9    -26.3382273 -0.383703E-07  0.140E-03    3.34      16.8  T
  10    -26.3382273 -0.408761E-08  0.428E-04    3.34      55.1  T
  11    -26.3382273 -0.316923E-09  0.157E-04    3.34     150.5  T

   *** convergence criteria satisfied after 11 iterations ***

         #    Occupation            Energy/Eh            Energy/eV
      -------------------------------------------------------------
         1        2.0000           -0.7319629             -19.9177
       ...           ...                  ...                  ...
        17        2.0000           -0.4704822             -12.8025
        18        2.0000           -0.4641082             -12.6290
        19        2.0000           -0.4552686             -12.3885
        20        2.0000           -0.4428069             -12.0494
        21        2.0000           -0.4322314             -11.7616
        22        2.0000           -0.4177450             -11.3674
        23        2.0000           -0.4032957             -10.9742 (HOMO)
        24                         -0.2807283              -7.6390 (LUMO)
        25                         -0.1701790              -4.6308
        26                         -0.0221436              -0.6026
        27                          0.0875809               2.3832
        28                          0.1043366               2.8391
       ...                                ...                  ...
        42                          0.5948671              16.1872
      -------------------------------------------------------------
                  HL-Gap            0.1225674 Eh            3.3352 eV
             Fermi-level           -0.3420120 Eh           -9.3066 eV

 SCC (total)                   0 d,  0 h,  0 min,  0.016 sec
 SCC setup                      ...        0 min,  0.000 sec (  1.562%)
 Dispersion                     ...        0 min,  0.000 sec (  1.140%)
 classical contributions        ...        0 min,  0.000 sec (  0.350%)
 integral evaluation            ...        0 min,  0.001 sec (  3.197%)
 iterations                     ...        0 min,  0.013 sec ( 80.443%)
 molecular gradient             ...        0 min,  0.002 sec ( 12.437%)
 printout                       ...        0 min,  0.000 sec (  0.702%)

         :::::::::::::::::::::::::::::::::::::::::::::::::::::
         ::                     SUMMARY                     ::
         :::::::::::::::::::::::::::::::::::::::::::::::::::::
         :: total energy             -26.039559335254 Eh    ::
         :: gradient norm              0.141302866822 Eh/a0 ::
         :: HOMO-LUMO gap              3.335228815597 eV    ::
         ::.................................................::
         :: SCC energy               -26.338209928272 Eh    ::
         :: -> isotropic ES            0.050019717518 Eh    ::
         :: -> anisotropic ES          0.000969091910 Eh    ::
         :: -> anisotropic XC          0.008709739887 Eh    ::
         :: -> dispersion             -0.010932359816 Eh    ::
         :: repulsion energy           0.298650593018 Eh    ::
         :: add. restraining           0.000000000000 Eh    ::
         :: total charge               0.000000000000 e     ::
         :::::::::::::::::::::::::::::::::::::::::::::::::::::

      ----------------------------------------------------------- 
     |                   =====================                   |
     |                        A N C O P T                        |
     |                   =====================                   |
     |               Approximate Normal Coordinate               |
     |                Rational Function Optimizer                |
      ----------------------------------------------------------- 
      ----------------------------------------------------------- 
     |                   =====================                   |
     |                        A N C O P T                        |
     |                   =====================                   |
     |               Approximate Normal Coordinate               |
     |                Rational Function Optimizer                |
      ----------------------------------------------------------- 

          ...................................................
          :                      SETUP                      :
          :.................................................:
          :   optimization level            normal          :
          :   max. optcycles                   200          :
          :   ANC micro-cycles                  20          :
          :   degrees of freedom                48          :
          :.................................................:
          :   RF solver                   davidson          :
          :   write xtbopt.log                true          :
          :   linear?                        false          :
          :   energy convergence         0.5000000E-05 Eh   :
          :   grad. convergence          0.1000000E-02 Eh/α :
          :   maxmium RF displ.          1.0000000          :
          :   Hlow (freq-cutoff)         0.1000000E-01      :
          :   Hmax (freq-cutoff)         5.0000000          :
          :   S6 in model hess.         20.0000000          :
          ...................................................

generating ANC from exact Hessian ...
Using Lindh-Hessian (1995)
 Shifting diagonal of input Hessian by   8.442340594696209E-003
 Lowest  eigenvalues of input Hessian
    0.000000    0.000000    0.000000    0.000000    0.000000    0.000000
    0.010000    0.010515    0.013156    0.016081    0.017446    0.019380
    0.019870    0.027147    0.029841    0.040887    0.046718    0.052400
 Highest eigenvalues
    1.228379    1.322239    1.538376    1.770271    1.918930    2.121560
 

........................................................................
.............................. CYCLE    1 ..............................
........................................................................

 iter      E             dE          RMSdq      gap      omega  full diag
   1    -26.3382273 -0.263382E+02  0.318E-05    3.34       0.0  T
   2    -26.3382273 -0.692779E-12  0.205E-05    3.34    1150.3  T
   3    -26.3382273  0.205702E-11  0.144E-05    3.34    1638.5  T
     SCC iter.                  ...        0 min,  0.002 sec
     gradient                   ...        0 min,  0.001 sec
 * total energy  :   -26.0395593 Eh     change       -0.2867395E-10 Eh
   gradient norm :     0.1413035 Eh/α   predicted     0.0000000E+00 (-100.00%)
   displ. norm   :     0.3522438 α      lambda       -0.2259625E-01
   maximum displ.:     0.1508547 α      in ANC's #19, #10, #8, ...

........................................................................
.............................. CYCLE    2 ..............................
........................................................................

 iter      E             dE          RMSdq      gap      omega  full diag
   1    -26.3717349 -0.263717E+02  0.401E-01    3.52       0.0  T
   2    -26.3720244 -0.289557E-03  0.238E-01    3.58       1.0  T
   3    -26.3720185  0.594803E-05  0.715E-02    3.58       1.0  T
   4    -26.3720281 -0.959107E-05  0.245E-02    3.58       1.0  T
   5    -26.3720363 -0.823312E-05  0.104E-02    3.58       2.3  T
   6    -26.3720373 -0.102525E-05  0.426E-03    3.58       5.5  T
   7    -26.3720374 -0.805363E-07  0.127E-03    3.58      18.5  T
   8    -26.3720374 -0.531649E-08  0.595E-04    3.58      39.6  T
   9    -26.3720374 -0.796035E-09  0.145E-04    3.58     162.7  T
     SCC iter.                  ...        0 min,  0.007 sec
     gradient                   ...        0 min,  0.001 sec
 * total energy  :   -26.0555982 Eh     change       -0.1603887E-01 Eh
   gradient norm :     0.0662272 Eh/α   predicted    -0.1269994E-01 ( -20.82%)
   displ. norm   :     0.3282807 α      lambda       -0.8607433E-02
   maximum displ.:     0.1520055 α      in ANC's #10, #19, #8, ...

........................................................................
.............................. CYCLE    3 ..............................
........................................................................

 iter      E             dE          RMSdq      gap      omega  full diag
   1    -26.3891533 -0.263892E+02  0.306E-01    3.72       0.0  T
   2    -26.3893599 -0.206571E-03  0.180E-01    3.78       1.0  T
   3    -26.3893528  0.704117E-05  0.643E-02    3.77       1.0  T
   4    -26.3893535 -0.633586E-06  0.321E-02    3.78       1.0  T
   5    -26.3893693 -0.158393E-04  0.707E-03    3.77       3.3  T
   6    -26.3893696 -0.243580E-06  0.258E-03    3.77       9.1  T
   7    -26.3893696 -0.154537E-07  0.912E-04    3.77      25.8  T
   8    -26.3893696 -0.229637E-08  0.440E-04    3.77      53.6  T
     SCC iter.                  ...        0 min,  0.006 sec
     gradient                   ...        0 min,  0.001 sec
 * total energy  :   -26.0604791 Eh     change       -0.4880882E-02 Eh
   gradient norm :     0.0180822 Eh/α   predicted    -0.4767526E-02 (  -2.32%)
   displ. norm   :     0.1964574 α      lambda       -0.1106205E-02
   maximum displ.:     0.1102054 α      in ANC's #3, #8, #10, ...

........................................................................
.............................. CYCLE    4 ..............................
........................................................................

 iter      E             dE          RMSdq      gap      omega  full diag
   1    -26.3883230 -0.263883E+02  0.124E-01    3.78       0.0  T
   2    -26.3883320 -0.898394E-05  0.742E-02    3.78       1.0  T
   3    -26.3883295  0.249137E-05  0.169E-02    3.78       1.4  T
   4    -26.3883314 -0.181705E-05  0.986E-03    3.78       2.4  T
   5    -26.3883328 -0.148093E-05  0.193E-03    3.78      12.2  T
   6    -26.3883328 -0.440542E-08  0.876E-04    3.78      26.9  T
   7    -26.3883328 -0.137421E-08  0.215E-04    3.78     109.7  T
     SCC iter.                  ...        0 min,  0.005 sec
     gradient                   ...        0 min,  0.001 sec
 * total energy  :   -26.0612224 Eh     change       -0.7432897E-03 Eh
   gradient norm :     0.0105071 Eh/α   predicted    -0.5744518E-03 ( -22.71%)
   displ. norm   :     0.2546913 α      lambda       -0.7566111E-03
   maximum displ.:     0.1571309 α      in ANC's #3, #1, #2, ...

........................................................................
.............................. CYCLE    5 ..............................
........................................................................

 iter      E             dE          RMSdq      gap      omega  full diag
   1    -26.3874775 -0.263875E+02  0.119E-01    3.79       0.0  T
   2    -26.3874920 -0.145098E-04  0.702E-02    3.78       1.0  T
   3    -26.3874915  0.516544E-06  0.176E-02    3.79       1.3  T
   4    -26.3874922 -0.689062E-06  0.727E-03    3.78       3.2  T
   5    -26.3874929 -0.677650E-06  0.245E-03    3.78       9.6  T
   6    -26.3874929 -0.315902E-07  0.128E-03    3.78      18.4  T
   7    -26.3874929 -0.539494E-08  0.325E-04    3.78      72.5  T
   8    -26.3874929 -0.327301E-09  0.146E-04    3.78     161.5  T
     SCC iter.                  ...        0 min,  0.006 sec
     gradient                   ...        0 min,  0.001 sec
 * total energy  :   -26.0617060 Eh     change       -0.4836104E-03 Eh
   gradient norm :     0.0083082 Eh/α   predicted    -0.4028471E-03 ( -16.70%)
   displ. norm   :     0.2329657 α      lambda       -0.4534626E-03
   maximum displ.:     0.1272175 α      in ANC's #3, #1, #8, ...

........................................................................
.............................. CYCLE    6 ..............................
........................................................................

 iter      E             dE          RMSdq      gap      omega  full diag
   1    -26.3877927 -0.263878E+02  0.118E-01    3.79       0.0  T
   2    -26.3878024 -0.968946E-05  0.693E-02    3.78       1.0  T
   3    -26.3878023  0.697280E-07  0.134E-02    3.79       1.8  T
   4    -26.3878031 -0.784163E-06  0.345E-03    3.79       6.8  T
   5    -26.3878032 -0.652601E-07  0.178E-03    3.79      13.2  T
   6    -26.3878032 -0.316368E-08  0.563E-04    3.79      41.9  T
   7    -26.3878032 -0.568605E-09  0.274E-04    3.79      86.2  T
     SCC iter.                  ...        0 min,  0.005 sec
     gradient                   ...        0 min,  0.001 sec
 * total energy  :   -26.0620252 Eh     change       -0.3191924E-03 Eh
   gradient norm :     0.0099213 Eh/α   predicted    -0.2390332E-03 ( -25.11%)
   displ. norm   :     0.2281554 α      lambda       -0.3707330E-03
   maximum displ.:     0.1352574 α      in ANC's #1, #3, #2, ...

........................................................................
.............................. CYCLE    7 ..............................
........................................................................

 iter      E             dE          RMSdq      gap      omega  full diag
   1    -26.3889794 -0.263890E+02  0.117E-01    3.80       0.0  T
   2    -26.3889818 -0.234574E-05  0.688E-02    3.80       1.0  T
   3    -26.3889815  0.309315E-06  0.831E-03    3.80       2.8  T
   4    -26.3889821 -0.661477E-06  0.456E-03    3.80       5.2  T
   5    -26.3889823 -0.213913E-06  0.204E-03    3.80      11.6  T
   6    -26.3889824 -0.101179E-07  0.770E-04    3.80      30.6  T
   7    -26.3889824 -0.250750E-08  0.246E-04    3.80      95.8  T
     SCC iter.                  ...        0 min,  0.005 sec
     gradient                   ...        0 min,  0.001 sec
 * total energy  :   -26.0622770 Eh     change       -0.2518048E-03 Eh
   gradient norm :     0.0089746 Eh/α   predicted    -0.1950119E-03 ( -22.55%)
   displ. norm   :     0.1681606 α      lambda       -0.1951161E-03
   maximum displ.:     0.1147034 α      in ANC's #1, #5, #2, ...

........................................................................
.............................. CYCLE    8 ..............................
........................................................................

 iter      E             dE          RMSdq      gap      omega  full diag
   1    -26.3901617 -0.263902E+02  0.899E-02    3.81       0.0  T
   2    -26.3901634 -0.167631E-05  0.526E-02    3.82       1.0  T
   3    -26.3901627  0.625832E-06  0.863E-03    3.81       2.7  T
   4    -26.3901635 -0.792711E-06  0.401E-03    3.82       5.9  T
   5    -26.3901637 -0.194783E-06  0.146E-03    3.82      16.1  T
   6    -26.3901637 -0.419781E-08  0.726E-04    3.82      32.5  T
   7    -26.3901637 -0.218581E-08  0.154E-04    3.82     153.3  T
     SCC iter.                  ...        0 min,  0.005 sec
     gradient                   ...        0 min,  0.001 sec
 * total energy  :   -26.0624065 Eh     change       -0.1295140E-03 Eh
   gradient norm :     0.0052330 Eh/α   predicted    -0.1003194E-03 ( -22.54%)
   displ. norm   :     0.1645516 α      lambda       -0.1318642E-03
   maximum displ.:     0.1190644 α      in ANC's #1, #5, #4, ...

........................................................................
.............................. CYCLE    9 ..............................
........................................................................

 iter      E             dE          RMSdq      gap      omega  full diag
   1    -26.3897776 -0.263898E+02  0.962E-02    3.82       0.0  T
   2    -26.3897784 -0.854065E-06  0.568E-02    3.82       1.0  T
   3    -26.3897778  0.591015E-06  0.782E-03    3.82       3.0  T
   4    -26.3897787 -0.892486E-06  0.298E-03    3.82       7.9  T
   5    -26.3897788 -0.656500E-07  0.163E-03    3.82      14.4  T
   6    -26.3897788 -0.698937E-08  0.435E-04    3.82      54.2  T
   7    -26.3897788 -0.782460E-09  0.132E-04    3.82     178.3  T
     SCC iter.                  ...        0 min,  0.006 sec
     gradient                   ...        0 min,  0.001 sec
 * total energy  :   -26.0624839 Eh     change       -0.7737903E-04 Eh
   gradient norm :     0.0062200 Eh/α   predicted    -0.6771588E-04 ( -12.49%)
   displ. norm   :     0.1025927 α      lambda       -0.8916862E-04
   maximum displ.:     0.0796098 α      in ANC's #1, #4, #6, ...

........................................................................
.............................. CYCLE   10 ..............................
........................................................................

 iter      E             dE          RMSdq      gap      omega  full diag
   1    -26.3909895 -0.263910E+02  0.476E-02    3.84       0.0  T
   2    -26.3909937 -0.414068E-05  0.270E-02    3.84       1.0  T
   3    -26.3909934  0.275086E-06  0.991E-03    3.84       2.4  T
   4    -26.3909934 -0.732049E-07  0.517E-03    3.84       4.6  T
   5    -26.3909939 -0.423971E-06  0.818E-04    3.84      28.8  T
   6    -26.3909939 -0.222601E-08  0.395E-04    3.84      59.7  T
     SCC iter.                  ...        0 min,  0.005 sec
     gradient                   ...        0 min,  0.001 sec
 * total energy  :   -26.0625382 Eh     change       -0.5428438E-04 Eh
   gradient norm :     0.0033594 Eh/α   predicted    -0.4505324E-04 ( -17.01%)
   displ. norm   :     0.1068446 α      lambda       -0.4659870E-04
   maximum displ.:     0.0806361 α      in ANC's #1, #4, #6, ...

........................................................................
.............................. CYCLE   11 ..............................
........................................................................

 iter      E             dE          RMSdq      gap      omega  full diag
   1    -26.3904712 -0.263905E+02  0.557E-02    3.85       0.0  T
   2    -26.3904715 -0.292829E-06  0.326E-02    3.85       1.0  T
   3    -26.3904712  0.274417E-06  0.509E-03    3.85       4.6  T
   4    -26.3904716 -0.390119E-06  0.186E-03    3.85      12.7  T
   5    -26.3904716 -0.272529E-07  0.947E-04    3.85      24.9  T
   6    -26.3904716 -0.178258E-08  0.257E-04    3.85      91.7  T
     SCC iter.                  ...        0 min,  0.005 sec
     gradient                   ...        0 min,  0.001 sec
 * total energy  :   -26.0625696 Eh     change       -0.3145144E-04 Eh
   gradient norm :     0.0032271 Eh/α   predicted    -0.2356610E-04 ( -25.07%)
   displ. norm   :     0.0827374 α      lambda       -0.3129197E-04
   maximum displ.:     0.0606773 α      in ANC's #1, #4, #6, ...

........................................................................
.............................. CYCLE   12 ..............................
........................................................................

 iter      E             dE          RMSdq      gap      omega  full diag
   1    -26.3906382 -0.263906E+02  0.356E-02    3.85       0.0  T
   2    -26.3906384 -0.167188E-06  0.209E-02    3.85       1.1  T
   3    -26.3906383  0.119980E-06  0.340E-03    3.85       6.9  T
   4    -26.3906384 -0.167083E-06  0.112E-03    3.85      21.0  T
   5    -26.3906384 -0.115128E-07  0.599E-04    3.85      39.4  T
   6    -26.3906385 -0.118499E-08  0.167E-04    3.85     141.4  T
     SCC iter.                  ...        0 min,  0.005 sec
     gradient                   ...        0 min,  0.001 sec
 * total energy  :   -26.0625910 Eh     change       -0.2136083E-04 Eh
   gradient norm :     0.0025009 Eh/α   predicted    -0.1575194E-04 ( -26.26%)
   displ. norm   :     0.0630540 α      lambda       -0.1554575E-04
   maximum displ.:     0.0478134 α      in ANC's #1, #4, #6, ...

........................................................................
.............................. CYCLE   13 ..............................
........................................................................

 iter      E             dE          RMSdq      gap      omega  full diag
   1    -26.3905561 -0.263906E+02  0.260E-02    3.86       0.0  T
   2    -26.3905563 -0.199464E-06  0.152E-02    3.86       1.5  T
   3    -26.3905560  0.282860E-06  0.483E-03    3.86       4.9  T
   4    -26.3905563 -0.315338E-06  0.146E-03    3.86      16.1  T
   5    -26.3905563 -0.289607E-07  0.476E-04    3.86      49.5  T
   6    -26.3905563 -0.524331E-09  0.240E-04    3.86      98.2  T
     SCC iter.                  ...        0 min,  0.005 sec
     gradient                   ...        0 min,  0.001 sec
 * total energy  :   -26.0626016 Eh     change       -0.1062100E-04 Eh
   gradient norm :     0.0015278 Eh/α   predicted    -0.7802682E-05 ( -26.54%)
   displ. norm   :     0.0666238 α      lambda       -0.7626345E-05
   maximum displ.:     0.0473751 α      in ANC's #1, #4, #6, ...

........................................................................
.............................. CYCLE   14 ..............................
........................................................................

 iter      E             dE          RMSdq      gap      omega  full diag
   1    -26.3907709 -0.263908E+02  0.243E-02    3.86       0.0  T
   2    -26.3907713 -0.483761E-06  0.142E-02    3.86       1.7  T
   3    -26.3907710  0.364449E-06  0.647E-03    3.86       3.6  T
   4    -26.3907714 -0.402722E-06  0.223E-03    3.86      10.6  T
   5    -26.3907714 -0.732280E-07  0.519E-04    3.86      45.4  T
   6    -26.3907715 -0.972111E-09  0.275E-04    3.86      85.6  T
     SCC iter.                  ...        0 min,  0.005 sec
     gradient                   ...        0 min,  0.001 sec
 * total energy  :   -26.0626073 Eh     change       -0.5717993E-05 Eh
   gradient norm :     0.0008901 Eh/α   predicted    -0.3820529E-05 ( -33.18%)
   displ. norm   :     0.0239844 α      lambda       -0.2831136E-05
   maximum displ.:     0.0136379 α      in ANC's #4, #3, #1, ...

........................................................................
.............................. CYCLE   15 ..............................
........................................................................

 iter      E             dE          RMSdq      gap      omega  full diag
   1    -26.3907531 -0.263908E+02  0.877E-03    3.86       0.0  T
   2    -26.3907531 -0.133082E-07  0.531E-03    3.86       4.4  T
   3    -26.3907530  0.742116E-07  0.225E-03    3.86      10.5  T
   4    -26.3907531 -0.828530E-07  0.287E-04    3.86      82.3  T
   5    -26.3907531 -0.573127E-09  0.117E-04    3.86     202.2  T
     SCC iter.                  ...        0 min,  0.004 sec
     gradient                   ...        0 min,  0.001 sec
 * total energy  :   -26.0626102 Eh     change       -0.2863768E-05 Eh
   gradient norm :     0.0010101 Eh/α   predicted    -0.1417152E-05 ( -50.51%)
   displ. norm   :     0.0424732 α      lambda       -0.4335422E-05
   maximum displ.:     0.0294723 α      in ANC's #4, #3, #2, ...

........................................................................
.............................. CYCLE   16 ..............................
........................................................................

 iter      E             dE          RMSdq      gap      omega  full diag
   1    -26.3909272 -0.263909E+02  0.148E-02    3.86       0.0  T
   2    -26.3909273 -0.299833E-07  0.880E-03    3.86       2.7  T
   3    -26.3909273  0.559518E-08  0.915E-04    3.86      25.8  T
   4    -26.3909273 -0.842439E-08  0.359E-04    3.86      65.7  T
     SCC iter.                  ...        0 min,  0.003 sec
     gradient                   ...        0 min,  0.001 sec
 * total energy  :   -26.0626140 Eh     change       -0.3826744E-05 Eh
   gradient norm :     0.0009217 Eh/α   predicted    -0.2169001E-05 ( -43.32%)
   displ. norm   :     0.0460379 α      lambda       -0.2722978E-05
   maximum displ.:     0.0277108 α      in ANC's #4, #2, #1, ...

   *** GEOMETRY OPTIMIZATION CONVERGED AFTER 16 ITERATIONS ***

------------------------------------------------------------------------
 total energy gain   :        -0.0230547 Eh      -14.4670 kcal/mol
 total RMSD          :         0.4068508 a0        0.2153 Å
 total power (kW/mol):        -3.7831259 (step) -487.2727 (real)
------------------------------------------------------------------------

 ANCopt (total)                0 d,  0 h,  0 min,  0.124 sec
 optimizer setup                ...        0 min,  0.000 sec (  0.085%)
 model hessian                  ...        0 min,  0.003 sec (  2.803%)
 ANC generation                 ...        0 min,  0.000 sec (  0.372%)
 coordinate transformation      ...        0 min,  0.000 sec (  0.094%)
 single point calculation       ...        0 min,  0.114 sec ( 91.589%)
 optimization log               ...        0 min,  0.002 sec (  1.701%)
 hessian update                 ...        0 min,  0.001 sec (  0.972%)
 rational function              ...        0 min,  0.002 sec (  1.843%)

================
 final structure:
================
18
 xtb: 6.7.1 (edcfbbe)
C            2.76492439308256       -0.27440522571101        0.48440363600951
C            1.94444415476672        0.92948630035449        0.04218400871484
O            0.56751158794004        0.78140092456962        0.38732757612103
C           -0.18735650903803        0.04756240280218       -0.44072378611344
O            0.23464574688413       -0.47086607684379       -1.44601772238272
C           -1.60537686366080       -0.04809908418860        0.00717197156212
C           -2.42261162227716       -1.05474736595299       -0.73731926960754
C           -2.07963140316991        0.72692863980684        0.97614485332961
H            2.63857103399383       -0.44368927339397        1.55104433107471
H            2.44162901390485       -1.16100435196388       -0.05535404650530
H            3.81540005002813       -0.09682004686314        0.27313917434030
H            2.02652402608684        1.06413303752496       -1.04144947917764
H            2.26826112128148        1.83671659538774        0.55688093154676
H           -3.47683080990537       -0.95770973995954       -0.49422202189546
H           -2.08958109692085       -2.06108775265219       -0.48465024475538
H           -2.27704419882838       -0.92630325213367       -1.80783729807273
H           -1.45477396038576        1.44158007411566        1.48185334150613
H           -3.10870566378236        0.66692519510099        1.28846904430553
 
 Bond Distances (Angstroems)
 ---------------------------
C1-C2=1.5225         C1-H9=1.0874         C1-H10=1.0872        C1-H11=1.0861        C2-C1=1.5225         C2-O3=1.4272         
C2-H12=1.0950        C2-H13=1.0922        O3-C2=1.4272         O3-C4=1.3394         C4-O3=1.3394         C4-O5=1.2073         
C4-C6=1.4901         O5-C4=1.2073         C6-C4=1.4901         C6-C7=1.4952         C6-C8=1.3283         C7-C6=1.4952         
C7-H14=1.0862        C7-H15=1.0897        C7-H16=1.0880        C8-C6=1.3283         C8-H17=1.0756        C8-H18=1.0771        
H9-C1=1.0874         H10-C1=1.0872        H11-C1=1.0861        H12-C2=1.0950        H13-C2=1.0922        H14-C7=1.0862        
H15-C7=1.0897        H16-C7=1.0880        H17-C8=1.0756        H18-C8=1.0771        
 C  H  Rav=1.0864 sigma=0.0057  Rmin=1.0756  Rmax=1.0950    10
 C  C  Rav=1.4590 sigma=0.0765  Rmin=1.3283  Rmax=1.5225     4
 O  C  Rav=1.3246 sigma=0.0904  Rmin=1.2073  Rmax=1.4272     3
 
 selected bond angles (degree)
 --------------------
H9-C1-C2=110.21                H10-C1-C2=109.90               H10-C1-H9=109.00               H11-C1-C2=109.60               
H11-C1-H9=109.19               H11-C1-H10=108.93              O3-C2-C1=111.57                H12-C2-C1=110.14               
H12-C2-O3=108.93               H13-C2-C1=111.11               H13-C2-O3=104.97               H13-C2-H12=110.00              
C4-O3-C2=116.81                O5-C4-O3=123.58                C6-C4-O3=112.68                C6-C4-O5=123.74                
C7-C6-C4=114.44                C8-C6-C4=121.44                C8-C6-C7=124.12                H14-C7-C6=111.03               
H15-C7-C6=109.83               H15-C7-H14=109.10              H16-C7-C6=109.71               H16-C7-H14=109.85              
H16-C7-H15=107.23              H17-C8-C6=121.55               H18-C8-C6=121.34               H18-C8-H17=117.11              
 
 selected dihedral angles (degree)
 ---------------------------------
O3-C2-C1-H9=304.35            O3-C2-C1-H10= 64.49           O3-C2-C1-H11=184.17           H12-C2-C1-H9=183.26           
H12-C2-C1-H10=303.40          H12-C2-C1-H11= 63.07          H13-C2-C1-H9= 61.11           H13-C2-C1-H10=181.25          
H13-C2-C1-H11=300.93          C4-O3-C2-C1=278.02            C4-O3-C2-H12= 39.81           C4-O3-C2-H13=157.58           
O5-C4-O3-C2=359.38            C6-C4-O3-C2=179.92            C7-C6-C4-O3=190.76            C7-C6-C4-O5= 11.30            
C8-C6-C4-O3= 11.81            C8-C6-C4-O5=192.35            H14-C7-C6-C4=190.09           H14-C7-C6-C8=  9.01           
H15-C7-C6-C4= 69.34           H15-C7-C6-C8=248.26           H16-C7-C6-C4=311.71           H16-C7-C6-C8=130.62           
H17-C8-C6-C4=359.13           H17-C8-C6-C7=180.29           H18-C8-C6-C4=179.06           H18-C8-C6-C7=  0.21           
           -------------------------------------------------
          |                Final Singlepoint                |
           -------------------------------------------------

          ...................................................
          :                      SETUP                      :
          :.................................................:
          :  # basis functions                  42          :
          :  # atomic orbitals                  42          :
          :  # shells                           26          :
          :  # electrons                        46          :
          :  max. iterations                   250          :
          :  Hamiltonian                  GFN2-xTB          :
          :  restarted?                      false          :
          :  GBSA solvation                  false          :
          :  PC potential                    false          :
          :  electronic temp.          300.0000000     K    :
          :  accuracy                    1.0000000          :
          :  -> integral cutoff          0.2500000E+02      :
          :  -> integral neglect         0.1000000E-07      :
          :  -> SCF convergence          0.1000000E-05 Eh   :
          :  -> wf. convergence          0.1000000E-03 e    :
          :  Broyden damping             0.4000000          :
          :  net charge                          0          :
          :  unpaired electrons                  0          :
          ...................................................

 iter      E             dE          RMSdq      gap      omega  full diag
   1    -26.3909273 -0.263909E+02  0.164E-04    3.86       0.0  T
   2    -26.3909273 -0.205276E-10  0.126E-04    3.86     187.6  T
   3    -26.3909273 -0.181085E-09  0.580E-05    3.86     406.6  T

   *** convergence criteria satisfied after 3 iterations ***

         #    Occupation            Energy/Eh            Energy/eV
      -------------------------------------------------------------
         1        2.0000           -0.7377948             -20.0764
       ...           ...                  ...                  ...
        17        2.0000           -0.4736598             -12.8889
        18        2.0000           -0.4647897             -12.6476
        19        2.0000           -0.4555738             -12.3968
        20        2.0000           -0.4478571             -12.1868
        21        2.0000           -0.4428283             -12.0500
        22        2.0000           -0.4160307             -11.3208
        23        2.0000           -0.4082737             -11.1097 (HOMO)
        24                         -0.2663589              -7.2480 (LUMO)
        25                         -0.1615676              -4.3965
        26                          0.0074698               0.2033
        27                          0.1012148               2.7542
        28                          0.1117158               3.0399
       ...                                ...                  ...
        42                          0.7017240              19.0949
      -------------------------------------------------------------
                  HL-Gap            0.1419148 Eh            3.8617 eV
             Fermi-level           -0.3373163 Eh           -9.1788 eV

 SCC (total)                   0 d,  0 h,  0 min,  0.009 sec
 SCC setup                      ...        0 min,  0.001 sec (  9.223%)
 Dispersion                     ...        0 min,  0.000 sec (  2.175%)
 classical contributions        ...        0 min,  0.000 sec (  0.383%)
 integral evaluation            ...        0 min,  0.000 sec (  3.814%)
 iterations                     ...        0 min,  0.006 sec ( 65.872%)
 molecular gradient             ...        0 min,  0.001 sec ( 13.574%)
 printout                       ...        0 min,  0.000 sec (  4.666%)

         :::::::::::::::::::::::::::::::::::::::::::::::::::::
         ::                     SUMMARY                     ::
         :::::::::::::::::::::::::::::::::::::::::::::::::::::
         :: total energy             -26.062614001924 Eh    ::
         :: gradient norm              0.000920469526 Eh/a0 ::
         :: HOMO-LUMO gap              3.861699325586 eV    ::
         ::.................................................::
         :: SCC energy               -26.390900510677 Eh    ::
         :: -> isotropic ES            0.046455111660 Eh    ::
         :: -> anisotropic ES          0.001924883779 Eh    ::
         :: -> anisotropic XC          0.008247682772 Eh    ::
         :: -> dispersion             -0.011059117978 Eh    ::
         :: repulsion energy           0.328286508752 Eh    ::
         :: add. restraining           0.000000000000 Eh    ::
         :: total charge               0.000000000000 e     ::
         :::::::::::::::::::::::::::::::::::::::::::::::::::::

           -------------------------------------------------
          |                Property Printout                |
           -------------------------------------------------

    * Orbital Energies and Occupations

         #    Occupation            Energy/Eh            Energy/eV
      -------------------------------------------------------------
         1        2.0000           -0.7377948             -20.0764
       ...           ...                  ...                  ...
        11        2.0000           -0.5376751             -14.6309
        12        2.0000           -0.5153076             -14.0222
        13        2.0000           -0.5095628             -13.8659
        14        2.0000           -0.4977671             -13.5449
        15        2.0000           -0.4871043             -13.2548
        16        2.0000           -0.4851556             -13.2018
        17        2.0000           -0.4736598             -12.8889
        18        2.0000           -0.4647897             -12.6476
        19        2.0000           -0.4555738             -12.3968
        20        2.0000           -0.4478571             -12.1868
        21        2.0000           -0.4428283             -12.0500
        22        2.0000           -0.4160307             -11.3208
        23        2.0000           -0.4082737             -11.1097 (HOMO)
        24                         -0.2663589              -7.2480 (LUMO)
        25                         -0.1615676              -4.3965
        26                          0.0074698               0.2033
        27                          0.1012148               2.7542
        28                          0.1117158               3.0399
        29                          0.1165025               3.1702
        30                          0.1424238               3.8755
        31                          0.1553752               4.2280
        32                          0.1725648               4.6957
        33                          0.1813532               4.9349
        34                          0.1883858               5.1262
       ...                                ...                  ...
        42                          0.7017240              19.0949
      -------------------------------------------------------------
                  HL-Gap            0.1419148 Eh            3.8617 eV
             Fermi-level           -0.3373163 Eh           -9.1788 eV

     #   Z          covCN         q      C6AA      α(0)
     1   6 C        3.750    -0.114    22.737     6.800
     2   6 C        3.700     0.081    19.382     6.296
     3   8 O        1.704    -0.270    18.480     5.804
     4   6 C        2.726     0.352    21.017     7.505
     5   8 O        0.856    -0.415    21.993     6.288
     6   6 C        2.937    -0.008    28.224     8.713
     7   6 C        3.759    -0.110    22.661     6.787
     8   6 C        2.844    -0.082    30.054     8.985
     9   1 H        0.925     0.051     2.308     2.376
    10   1 H        0.925     0.061     2.185     2.311
    11   1 H        0.925     0.049     2.332     2.388
    12   1 H        0.924     0.057     2.239     2.340
    13   1 H        0.924     0.053     2.282     2.363
    14   1 H        0.925     0.050     2.318     2.381
    15   1 H        0.925     0.060     2.195     2.317
    16   1 H        0.925     0.069     2.091     2.262
    17   1 H        0.926     0.061     2.184     2.311
    18   1 H        0.926     0.055     2.261     2.351

 Mol. C6AA /au·bohr⁶  :       2821.550524
 Mol. C8AA /au·bohr⁸  :      62195.442549
 Mol. α(0) /au        :         80.576517


Wiberg/Mayer (AO) data.
largest (>0.10) Wiberg bond orders for each atom

 ---------------------------------------------------------------------------
     #   Z sym  total        # sym  WBO       # sym  WBO       # sym  WBO
 ---------------------------------------------------------------------------
     1   6 C    3.992 --     2 C    1.012     9 H    0.986    10 H    0.985
                            11 H    0.984
     2   6 C    3.928 --     1 C    1.012    13 H    0.973    12 H    0.969
                             3 O    0.941
     3   8 O    2.303 --     4 C    1.124     2 C    0.941     5 O    0.170
     4   6 C    3.917 --     5 O    1.728     3 O    1.124     6 C    0.991
     5   8 O    2.031 --     4 C    1.728     3 O    0.170
     6   6 C    3.987 --     8 C    1.881     7 C    1.029     4 C    0.991
     7   6 C    3.994 --     6 C    1.029    14 H    0.984    16 H    0.969
                            15 H    0.965
     8   6 C    3.989 --     6 C    1.881    18 H    0.974    17 H    0.973
     9   1 H    0.997 --     1 C    0.986
    10   1 H    0.996 --     1 C    0.985
    11   1 H    0.997 --     1 C    0.984
    12   1 H    0.997 --     2 C    0.969
    13   1 H    0.997 --     2 C    0.973
    14   1 H    0.997 --     7 C    0.984
    15   1 H    0.996 --     7 C    0.965
    16   1 H    0.995 --     7 C    0.969
    17   1 H    0.996 --     8 C    0.973
    18   1 H    0.997 --     8 C    0.974
 ---------------------------------------------------------------------------

Topologies differ in total number of bonds
Writing topology from bond orders to xtbtopo.mol

molecular dipole:
                 x           y           z       tot (Debye)
 q only:       -0.062       0.212       0.626
   full:       -0.066       0.291       0.694       1.920
molecular quadrupole (traceless):
                xx          xy          yy          xz          yz          zz
 q only:        7.353       2.253      -1.504       1.157      -0.862      -5.849
  q+dip:        6.860       2.494      -1.073       0.611      -0.832      -5.787
   full:        6.842       2.281      -0.638       1.141      -1.978      -6.205

           -------------------------------------------------
          |                Geometry Summary                 |
           -------------------------------------------------

      molecular mass/u    :      114.1426327
   center of mass at/Å    :       -0.0474898       0.0722803      -0.1022806
  moments of inertia/u·Å² :        0.1213428E+03   0.3980699E+03   0.4713811E+03
rotational constants/cm⁻¹ :        0.1389257E+00   0.4234842E-01   0.3576222E-01

 * 15 selected distances

     #   Z          #   Z                                           value/Å
     1   6 C        2   6 C                                       1.5225312 (max)
     2   6 C        3   8 O                                       1.4272340
     3   8 O        4   6 C                                       1.3394082
     4   6 C        5   8 O                                       1.2072573
     6   6 C        8   6 C                                       1.3283426
     1   6 C        9   1 H                                       1.0873568
     1   6 C       10   1 H                                       1.0871598
     1   6 C       11   1 H                                       1.0861255
     2   6 C       12   1 H                                       1.0950473
     2   6 C       13   1 H                                       1.0921709
     7   6 C       14   1 H                                       1.0862278
     7   6 C       15   1 H                                       1.0897120
     7   6 C       16   1 H                                       1.0879783
     8   6 C       17   1 H                                       1.0755997 (min)
     8   6 C       18   1 H                                       1.0770984

 * 3 distinct bonds (by element types)

   Z      Z             #   av. dist./Å        max./Å        min./Å
   1 H    6 C          10     1.0864477     1.0950473     1.0755997
   6 C    6 C           2     1.4254369     1.5225312     1.3283426
   6 C    8 O           3     1.3246332     1.4272340     1.2072573


optimized geometry written to: xtbopt.xyz


           -------------------------------------------------
          | TOTAL ENERGY              -26.062614001924 Eh   |
          | GRADIENT NORM               0.000920469526 Eh/α |
          | HOMO-LUMO GAP               3.861699325586 eV   |
           -------------------------------------------------

------------------------------------------------------------------------
 * finished run on 2025/12/01 at 14:19:27.566     
------------------------------------------------------------------------
 total:
 * wall-time:     0 d,  0 h,  0 min,  0.165 sec
 *  cpu-time:     0 d,  0 h,  0 min,  3.685 sec
 * ratio c/w:    22.277 speedup
 SCF:
 * wall-time:     0 d,  0 h,  0 min,  0.016 sec
 *  cpu-time:     0 d,  0 h,  0 min,  0.350 sec
 * ratio c/w:    21.734 speedup
 ANC optimizer:
 * wall-time:     0 d,  0 h,  0 min,  0.134 sec
 *  cpu-time:     0 d,  0 h,  0 min,  3.041 sec
 * ratio c/w:    22.644 speedup

normal termination of xtb
