      -----------------------------------------------------------      
     |                   =====================                   |     
     |                           x T B                           |     
     |                   =====================                   |     
     |                         S. Grimme                         |     
     |          Mulliken Center for Theoretical Chemistry        |     
     |                    University of Bonn                     |     
      -----------------------------------------------------------      

   * xtb version 6.7.1 (edcfbbe) compiled by 'albert@albert-system' on 2024-07-22

   xtb is free software: you can redistribute it and/or modify it under
   the terms of the GNU Lesser General Public License as published by
   the Free Software Foundation, either version 3 of the License, or
   (at your option) any later version.
   
   xtb is distributed in the hope that it will be useful,
   but WITHOUT ANY WARRANTY; without even the implied warranty of
   MERCHANTABILITY or FITNESS FOR A PARTICULAR PURPOSE.  See the
   GNU Lesser General Public License for more details.
   
   Cite this work as:
   * C. Bannwarth, E. Caldeweyher, S. Ehlert, A. Hansen, P. Pracht,
     J. Seibert, S. Spicher, S. Grimme, WIREs Comput. Mol. Sci., 2020, 11,
     e01493. DOI: 10.1002/wcms.1493
   
   for GFN2-xTB:
   * C. Bannwarth, S. Ehlert and S. Grimme., J. Chem. Theory Comput., 2019,
     15, 1652-1671. DOI: 10.1021/acs.jctc.8b01176
   for GFN1-xTB:
   * S. Grimme, C. Bannwarth, P. Shushkov, J. Chem. Theory Comput., 2017,
     13, 1989-2009. DOI: 10.1021/acs.jctc.7b00118
   for GFN0-xTB:
   * P. Pracht, E. Caldeweyher, S. Ehlert, S. Grimme, ChemRxiv, 2019, preprint.
     DOI: 10.26434/chemrxiv.8326202.v1
   for GFN-FF:
   * S. Spicher and S. Grimme, Angew. Chem. Int. Ed., 2020, 59, 15665-15673.
     DOI: 10.1002/anie.202004239
   
   for ALPB and GBSA implicit solvation:
   * S. Ehlert, M. Stahn, S. Spicher, S. Grimme, J. Chem. Theory Comput.,
     2021, 17, 4250-4261. DOI: 10.1021/acs.jctc.1c00471
   
   for ddCOSMO and CPCM-X implicit solvation:
   * M. Stahn, S. Ehlert, S. Grimme, J. Phys. Chem. A,
     2023, XX, XXXX-XXXX. DOI: 10.1021/acs.jpca.3c04382
   
   for DFT-D4:
   * E. Caldeweyher, C. Bannwarth and S. Grimme, J. Chem. Phys., 2017,
     147, 034112. DOI: 10.1063/1.4993215
   * E. Caldeweyher, S. Ehlert, A. Hansen, H. Neugebauer, S. Spicher,
     C. Bannwarth and S. Grimme, J. Chem. Phys., 2019, 150, 154122.
     DOI: 10.1063/1.5090222
   * E. Caldeweyher, J.-M. Mewes, S. Ehlert and S. Grimme, Phys. Chem. Chem. Phys.
     2020, 22, 8499-8512. DOI: 10.1039/D0CP00502A
   
   for sTDA-xTB:
   * S. Grimme and C. Bannwarth, J. Chem. Phys., 2016, 145, 054103.
     DOI: 10.1063/1.4959605
   
   in the mass-spec context:
   * V. Asgeirsson, C. Bauer and S. Grimme, Chem. Sci., 2017, 8, 4879.
     DOI: 10.1039/c7sc00601b
   * J. Koopman and S. Grimme, ACS Omega 2019, 4, 12, 15120-15133.
     DOI: 10.1021/acsomega.9b02011
   
   for metadynamics refer to:
   * S. Grimme, J. Chem. Theory Comput., 2019, 155, 2847-2862
     DOI: 10.1021/acs.jctc.9b00143
   
   for SPH calculations refer to:
   * S. Spicher and S. Grimme, J. Chem. Theory Comput., 2021, 17, 1701-1714
     DOI: 10.1021/acs.jctc.0c01306
   
   for ONIOM refer to:
   * C. Plett, A. Katbashev, S. Ehlert, S. Grimme, M. Bursch,
     Phys. Chem. Chem. Phys., 2023, 25, 17860-17868. DOI: 10.1039/D3CP02178E
   
   for DIPRO refer to:
   * J. Kohn, N. Gildemeister, S. Grimme, D. Fazzi, A. Hansen,
     J. Chem. Phys., 2023, just accepted.
   
   for PTB refer to:
   * S. Grimme, M. Mueller, A. Hansen, J. Chem. Phys., 2023, 158, 124111.
     DOI: 10.1063/5.0137838
   
   with help from (in alphabetical order)
   P. Atkinson, C. Bannwarth, F. Bohle, G. Brandenburg, E. Caldeweyher
   M. Checinski, S. Dohm, S. Ehlert, S. Ehrlich, I. Gerasimov, C. Hölzer
   A. Katbashev, J. Kohn, J. Koopman, C. Lavigne, S. Lehtola, F. März, M. Müller,
   F. Musil, H. Neugebauer, J. Pisarek, C. Plett, P. Pracht, F. Pultar,
   J. Seibert, P. Shushkov, S. Spicher, M. Stahn, M. Steiner, T. Strunk,
   J. Stückrath, T. Rose, and J. Unsleber
   
 * started run on 2025/12/01 at 14:19:27.574     
   ID    Z sym.   atoms
    1    6 C      1, 2, 4, 6-8
    2    8 O      3, 5
    3    1 H      9-18

           -------------------------------------------------
          |                Calculation Setup                |
           -------------------------------------------------

          program call               : xtb pipeline_data/3_conformer_xyz/acrylates/rdkit/SUPCQIBBMFXVTL-UHFFFAOYSA-N_conf86.xyz --opt --gfn 2-xTB --iterations 250
          coordinate file            : pipeline_data/3_conformer_xyz/acrylates/rdkit/SUPCQIBBMFXVTL-UHFFFAOYSA-N_conf86.xyz
          omp threads                :                    24

########################################################################
[WARNING] Please study the warnings concerning your input carefully
-1- readin_getIntValue: could not parse '2-xTB'
########################################################################

           -------------------------------------------------
          |                 G F N 2 - x T B                 |
           -------------------------------------------------

        Reference                      10.1021/acs.jctc.8b01176
      * Hamiltonian:
        H0-scaling (s, p, d)           1.850000    2.230000    2.230000
        zeta-weighting                 0.500000
      * Dispersion:
        s8                             2.700000
        a1                             0.520000
        a2                             5.000000
        s9                             5.000000
      * Repulsion:
        kExp                           1.500000    1.000000
        rExp                           1.000000
      * Coulomb:
        alpha                          2.000000
        third order                    shell-resolved
        anisotropic                    true
        a3                             3.000000
        a5                             4.000000
        cn-shift                       1.200000
        cn-exp                         4.000000
        max-rad                        5.000000

q/qsh data taken from xtbrestart
CAMM data taken from xtbrestart

          ...................................................
          :                      SETUP                      :
          :.................................................:
          :  # basis functions                  42          :
          :  # atomic orbitals                  42          :
          :  # shells                           26          :
          :  # electrons                        46          :
          :  max. iterations                   250          :
          :  Hamiltonian                  GFN2-xTB          :
          :  restarted?                       true          :
          :  GBSA solvation                  false          :
          :  PC potential                    false          :
          :  electronic temp.          300.0000000     K    :
          :  accuracy                    1.0000000          :
          :  -> integral cutoff          0.2500000E+02      :
          :  -> integral neglect         0.1000000E-07      :
          :  -> SCF convergence          0.1000000E-05 Eh   :
          :  -> wf. convergence          0.1000000E-03 e    :
          :  Broyden damping             0.4000000          :
          :  net charge                          0          :
          :  unpaired electrons                  0          :
          ...................................................

 iter      E             dE          RMSdq      gap      omega  full diag
   1    -26.3329953 -0.263330E+02  0.396E+00    3.61       0.0  T
   2    -26.3378164 -0.482114E-02  0.238E+00    3.37       1.0  T
   3    -26.3369795  0.836894E-03  0.473E-01    3.57       1.0  T
   4    -26.3386757 -0.169621E-02  0.220E-01    3.41       1.0  T
   5    -26.3390320 -0.356235E-03  0.105E-01    3.45       1.0  T
   6    -26.3390518 -0.198008E-04  0.439E-02    3.46       1.0  T
   7    -26.3390676 -0.158003E-04  0.997E-03    3.45       2.4  T
   8    -26.3390677 -0.164542E-06  0.447E-03    3.45       5.3  T
   9    -26.3390678 -0.461209E-07  0.124E-03    3.45      19.1  T
  10    -26.3390678 -0.185735E-08  0.508E-04    3.45      46.4  T
  11    -26.3390678 -0.412975E-09  0.111E-04    3.45     211.7  T

   *** convergence criteria satisfied after 11 iterations ***

         #    Occupation            Energy/Eh            Energy/eV
      -------------------------------------------------------------
         1        2.0000           -0.7286834             -19.8285
       ...           ...                  ...                  ...
        17        2.0000           -0.4692644             -12.7693
        18        2.0000           -0.4674769             -12.7207
        19        2.0000           -0.4598234             -12.5124
        20        2.0000           -0.4516977             -12.2913
        21        2.0000           -0.4276020             -11.6356
        22        2.0000           -0.4202456             -11.4355
        23        2.0000           -0.4099917             -11.1564 (HOMO)
        24                         -0.2831384              -7.7046 (LUMO)
        25                         -0.1692586              -4.6058
        26                         -0.0222029              -0.6042
        27                          0.0969447               2.6380
        28                          0.1011922               2.7536
       ...                                ...                  ...
        42                          0.6225844              16.9414
      -------------------------------------------------------------
                  HL-Gap            0.1268533 Eh            3.4519 eV
             Fermi-level           -0.3465651 Eh           -9.4305 eV

 SCC (total)                   0 d,  0 h,  0 min,  0.015 sec
 SCC setup                      ...        0 min,  0.000 sec (  1.496%)
 Dispersion                     ...        0 min,  0.000 sec (  1.780%)
 classical contributions        ...        0 min,  0.000 sec (  0.365%)
 integral evaluation            ...        0 min,  0.001 sec (  3.780%)
 iterations                     ...        0 min,  0.012 sec ( 80.539%)
 molecular gradient             ...        0 min,  0.002 sec ( 10.983%)
 printout                       ...        0 min,  0.000 sec (  0.888%)

         :::::::::::::::::::::::::::::::::::::::::::::::::::::
         ::                     SUMMARY                     ::
         :::::::::::::::::::::::::::::::::::::::::::::::::::::
         :: total energy             -26.043275397272 Eh    ::
         :: gradient norm              0.136504090001 Eh/a0 ::
         :: HOMO-LUMO gap              3.451852805086 eV    ::
         ::.................................................::
         :: SCC energy               -26.339068243170 Eh    ::
         :: -> isotropic ES            0.049425873198 Eh    ::
         :: -> anisotropic ES          0.001058856894 Eh    ::
         :: -> anisotropic XC          0.008869418533 Eh    ::
         :: -> dispersion             -0.010568511114 Eh    ::
         :: repulsion energy           0.295792845898 Eh    ::
         :: add. restraining           0.000000000000 Eh    ::
         :: total charge              -0.000000000000 e     ::
         :::::::::::::::::::::::::::::::::::::::::::::::::::::

      ----------------------------------------------------------- 
     |                   =====================                   |
     |                        A N C O P T                        |
     |                   =====================                   |
     |               Approximate Normal Coordinate               |
     |                Rational Function Optimizer                |
      ----------------------------------------------------------- 
      ----------------------------------------------------------- 
     |                   =====================                   |
     |                        A N C O P T                        |
     |                   =====================                   |
     |               Approximate Normal Coordinate               |
     |                Rational Function Optimizer                |
      ----------------------------------------------------------- 

          ...................................................
          :                      SETUP                      :
          :.................................................:
          :   optimization level            normal          :
          :   max. optcycles                   200          :
          :   ANC micro-cycles                  20          :
          :   degrees of freedom                48          :
          :.................................................:
          :   RF solver                   davidson          :
          :   write xtbopt.log                true          :
          :   linear?                        false          :
          :   energy convergence         0.5000000E-05 Eh   :
          :   grad. convergence          0.1000000E-02 Eh/α :
          :   maxmium RF displ.          1.0000000          :
          :   Hlow (freq-cutoff)         0.1000000E-01      :
          :   Hmax (freq-cutoff)         5.0000000          :
          :   S6 in model hess.         20.0000000          :
          ...................................................

generating ANC from exact Hessian ...
Using Lindh-Hessian (1995)
 Shifting diagonal of input Hessian by   8.470668807736517E-003
 Lowest  eigenvalues of input Hessian
    0.000000    0.000000    0.000000    0.000000    0.000000    0.000000
    0.010000    0.011085    0.012145    0.016943    0.018255    0.020538
    0.022380    0.026159    0.027709    0.034555    0.040381    0.050303
 Highest eigenvalues
    1.230737    1.290810    1.517295    1.794174    1.877442    2.106143
 

........................................................................
.............................. CYCLE    1 ..............................
........................................................................

 iter      E             dE          RMSdq      gap      omega  full diag
   1    -26.3390678 -0.263391E+02  0.281E-05    3.45       0.0  T
   2    -26.3390678 -0.101963E-11  0.177E-05    3.45    1331.6  T
   3    -26.3390678 -0.198952E-12  0.697E-06    3.45    3379.9  T
     SCC iter.                  ...        0 min,  0.002 sec
     gradient                   ...        0 min,  0.001 sec
 * total energy  :   -26.0432754 Eh     change       -0.2296829E-10 Eh
   gradient norm :     0.1365050 Eh/α   predicted     0.0000000E+00 (-100.00%)
   displ. norm   :     0.3234091 α      lambda       -0.1964609E-01
   maximum displ.:     0.1738711 α      in ANC's #7, #9, #16, ...

........................................................................
.............................. CYCLE    2 ..............................
........................................................................

 iter      E             dE          RMSdq      gap      omega  full diag
   1    -26.3724314 -0.263724E+02  0.313E-01    3.63       0.0  T
   2    -26.3727743 -0.342893E-03  0.194E-01    3.68       1.0  T
   3    -26.3727750 -0.624023E-06  0.871E-02    3.69       1.0  T
   4    -26.3727906 -0.156334E-04  0.275E-02    3.68       1.0  T
   5    -26.3727991 -0.847790E-05  0.123E-02    3.68       1.9  T
   6    -26.3728007 -0.158744E-05  0.488E-03    3.69       4.8  T
   7    -26.3728007 -0.694225E-07  0.147E-03    3.68      16.0  T
   8    -26.3728007 -0.571122E-08  0.663E-04    3.68      35.6  T
   9    -26.3728007 -0.907320E-09  0.144E-04    3.68     164.1  T
     SCC iter.                  ...        0 min,  0.007 sec
     gradient                   ...        0 min,  0.001 sec
 * total energy  :   -26.0568502 Eh     change       -0.1357475E-01 Eh
   gradient norm :     0.0556461 Eh/α   predicted    -0.1085049E-01 ( -20.07%)
   displ. norm   :     0.3249999 α      lambda       -0.6162140E-02
   maximum displ.:     0.2383026 α      in ANC's #7, #9, #11, ...

........................................................................
.............................. CYCLE    3 ..............................
........................................................................

 iter      E             dE          RMSdq      gap      omega  full diag
   1    -26.3888355 -0.263888E+02  0.220E-01    3.80       0.0  T
   2    -26.3889736 -0.138054E-03  0.134E-01    3.83       1.0  T
   3    -26.3889698  0.377065E-05  0.571E-02    3.83       1.0  T
   4    -26.3889773 -0.749742E-05  0.234E-02    3.84       1.0  T
   5    -26.3889839 -0.655821E-05  0.820E-03    3.83       2.9  T
   6    -26.3889845 -0.620599E-06  0.308E-03    3.83       7.7  T
   7    -26.3889845 -0.245048E-07  0.100E-03    3.83      23.5  T
   8    -26.3889845 -0.243750E-08  0.461E-04    3.83      51.1  T
   9    -26.3889845 -0.425885E-09  0.106E-04    3.83     222.8  T
     SCC iter.                  ...        0 min,  0.007 sec
     gradient                   ...        0 min,  0.001 sec
 * total energy  :   -26.0603524 Eh     change       -0.3502244E-02 Eh
   gradient norm :     0.0191207 Eh/α   predicted    -0.3406503E-02 (  -2.73%)
   displ. norm   :     0.2014265 α      lambda       -0.1019534E-02
   maximum displ.:     0.1533662 α      in ANC's #7, #3, #9, ...

........................................................................
.............................. CYCLE    4 ..............................
........................................................................

 iter      E             dE          RMSdq      gap      omega  full diag
   1    -26.3884669 -0.263885E+02  0.950E-02    3.85       0.0  T
   2    -26.3884804 -0.135295E-04  0.577E-02    3.84       1.0  T
   3    -26.3884800  0.460666E-06  0.184E-02    3.84       1.3  T
   4    -26.3884802 -0.182291E-06  0.810E-03    3.84       2.9  T
   5    -26.3884810 -0.864941E-06  0.193E-03    3.84      12.2  T
   6    -26.3884810 -0.262549E-07  0.890E-04    3.84      26.5  T
   7    -26.3884810 -0.166173E-08  0.259E-04    3.84      90.9  T
     SCC iter.                  ...        0 min,  0.005 sec
     gradient                   ...        0 min,  0.001 sec
 * total energy  :   -26.0610019 Eh     change       -0.6494861E-03 Eh
   gradient norm :     0.0097203 Eh/α   predicted    -0.5304531E-03 ( -18.33%)
   displ. norm   :     0.1981126 α      lambda       -0.5069477E-03
   maximum displ.:     0.1249819 α      in ANC's #7, #4, #3, ...

........................................................................
.............................. CYCLE    5 ..............................
........................................................................

 iter      E             dE          RMSdq      gap      omega  full diag
   1    -26.3875923 -0.263876E+02  0.732E-02    3.84       0.0  T
   2    -26.3876045 -0.121968E-04  0.434E-02    3.83       1.0  T
   3    -26.3876046 -0.179451E-07  0.171E-02    3.83       1.4  T
   4    -26.3876046 -0.457579E-07  0.516E-03    3.83       4.6  T
   5    -26.3876050 -0.358884E-06  0.155E-03    3.83      15.2  T
   6    -26.3876050 -0.182565E-07  0.713E-04    3.83      33.1  T
   7    -26.3876050 -0.106037E-08  0.215E-04    3.83     109.8  T
     SCC iter.                  ...        0 min,  0.005 sec
     gradient                   ...        0 min,  0.001 sec
 * total energy  :   -26.0612770 Eh     change       -0.2751309E-03 Eh
   gradient norm :     0.0054427 Eh/α   predicted    -0.2634224E-03 (  -4.26%)
   displ. norm   :     0.1115983 α      lambda       -0.1805714E-03
   maximum displ.:     0.0675285 α      in ANC's #4, #3, #5, ...

........................................................................
.............................. CYCLE    6 ..............................
........................................................................

 iter      E             dE          RMSdq      gap      omega  full diag
   1    -26.3883636 -0.263884E+02  0.391E-02    3.84       0.0  T
   2    -26.3883643 -0.717074E-06  0.237E-02    3.84       1.0  T
   3    -26.3883624  0.184766E-05  0.135E-02    3.83       1.7  T
   4    -26.3883646 -0.219848E-05  0.259E-03    3.84       9.1  T
   5    -26.3883647 -0.649262E-07  0.726E-04    3.84      32.5  T
   6    -26.3883647 -0.139274E-08  0.339E-04    3.84      69.6  T
     SCC iter.                  ...        0 min,  0.005 sec
     gradient                   ...        0 min,  0.001 sec
 * total energy  :   -26.0614069 Eh     change       -0.1298616E-03 Eh
   gradient norm :     0.0048520 Eh/α   predicted    -0.9141152E-04 ( -29.61%)
   displ. norm   :     0.1595281 α      lambda       -0.1723602E-03
   maximum displ.:     0.1180846 α      in ANC's #4, #3, #5, ...

........................................................................
.............................. CYCLE    7 ..............................
........................................................................

 iter      E             dE          RMSdq      gap      omega  full diag
   1    -26.3891473 -0.263891E+02  0.478E-02    3.84       0.0  T
   2    -26.3891477 -0.463128E-06  0.290E-02    3.84       1.0  T
   3    -26.3891444  0.332454E-05  0.171E-02    3.83       1.4  T
   4    -26.3891483 -0.384230E-05  0.150E-03    3.84      15.7  T
   5    -26.3891483 -0.123122E-07  0.656E-04    3.84      36.0  T
   6    -26.3891483 -0.433769E-09  0.207E-04    3.84     114.0  T
     SCC iter.                  ...        0 min,  0.005 sec
     gradient                   ...        0 min,  0.001 sec
 * total energy  :   -26.0615313 Eh     change       -0.1244332E-03 Eh
   gradient norm :     0.0049196 Eh/α   predicted    -0.8837358E-04 ( -28.98%)
   displ. norm   :     0.1885787 α      lambda       -0.1437808E-03
   maximum displ.:     0.1510427 α      in ANC's #4, #3, #5, ...

........................................................................
.............................. CYCLE    8 ..............................
........................................................................

 iter      E             dE          RMSdq      gap      omega  full diag
   1    -26.3891905 -0.263892E+02  0.502E-02    3.83       0.0  T
   2    -26.3891916 -0.106591E-05  0.301E-02    3.84       1.0  T
   3    -26.3891898  0.174415E-05  0.131E-02    3.83       1.8  T
   4    -26.3891917 -0.191080E-05  0.299E-03    3.84       7.9  T
   5    -26.3891918 -0.123422E-06  0.609E-04    3.84      38.7  T
   6    -26.3891919 -0.142727E-08  0.291E-04    3.84      80.9  T
     SCC iter.                  ...        0 min,  0.005 sec
     gradient                   ...        0 min,  0.001 sec
 * total energy  :   -26.0616356 Eh     change       -0.1042996E-03 Eh
   gradient norm :     0.0046063 Eh/α   predicted    -0.7444688E-04 ( -28.62%)
   displ. norm   :     0.1841984 α      lambda       -0.1282957E-03
   maximum displ.:     0.1601148 α      in ANC's #4, #3, #5, ...

........................................................................
.............................. CYCLE    9 ..............................
........................................................................

 iter      E             dE          RMSdq      gap      omega  full diag
   1    -26.3893964 -0.263894E+02  0.522E-02    3.84       0.0  T
   2    -26.3893977 -0.130736E-05  0.308E-02    3.84       1.0  T
   3    -26.3893975  0.211221E-06  0.695E-03    3.84       3.4  T
   4    -26.3893977 -0.254284E-06  0.242E-03    3.84       9.7  T
   5    -26.3893978 -0.756211E-07  0.852E-04    3.84      27.7  T
   6    -26.3893978 -0.489883E-08  0.360E-04    3.84      65.4  T
     SCC iter.                  ...        0 min,  0.005 sec
     gradient                   ...        0 min,  0.001 sec
 * total energy  :   -26.0617244 Eh     change       -0.8878976E-04 Eh
   gradient norm :     0.0033208 Eh/α   predicted    -0.6632473E-04 ( -25.30%)
   displ. norm   :     0.1183183 α      lambda       -0.7466774E-04
   maximum displ.:     0.1056516 α      in ANC's #4, #2, #8, ...

........................................................................
.............................. CYCLE   10 ..............................
........................................................................

 iter      E             dE          RMSdq      gap      omega  full diag
   1    -26.3896502 -0.263897E+02  0.387E-02    3.84       0.0  T
   2    -26.3896504 -0.205974E-06  0.229E-02    3.84       1.0  T
   3    -26.3896499  0.511456E-06  0.636E-03    3.84       3.7  T
   4    -26.3896504 -0.566298E-06  0.142E-03    3.84      16.6  T
   5    -26.3896505 -0.205447E-07  0.464E-04    3.84      50.8  T
   6    -26.3896505 -0.260581E-09  0.204E-04    3.84     115.6  T
     SCC iter.                  ...        0 min,  0.005 sec
     gradient                   ...        0 min,  0.001 sec
 * total energy  :   -26.0617797 Eh     change       -0.5532592E-04 Eh
   gradient norm :     0.0024181 Eh/α   predicted    -0.3785616E-04 ( -31.58%)
   displ. norm   :     0.1299884 α      lambda       -0.6537309E-04
   maximum displ.:     0.1154800 α      in ANC's #4, #2, #3, ...

........................................................................
.............................. CYCLE   11 ..............................
........................................................................

 iter      E             dE          RMSdq      gap      omega  full diag
   1    -26.3896623 -0.263897E+02  0.501E-02    3.84       0.0  T
   2    -26.3896624 -0.146220E-06  0.299E-02    3.84       1.0  T
   3    -26.3896615  0.888251E-06  0.831E-03    3.84       2.8  T
   4    -26.3896625 -0.100053E-05  0.100E-03    3.84      23.6  T
   5    -26.3896625 -0.325570E-08  0.508E-04    3.84      46.4  T
   6    -26.3896625 -0.190649E-09  0.138E-04    3.84     170.9  T
     SCC iter.                  ...        0 min,  0.005 sec
     gradient                   ...        0 min,  0.001 sec
 * total energy  :   -26.0618269 Eh     change       -0.4722218E-04 Eh
   gradient norm :     0.0025062 Eh/α   predicted    -0.3324062E-04 ( -29.61%)
   displ. norm   :     0.1289330 α      lambda       -0.5103521E-04
   maximum displ.:     0.1111727 α      in ANC's #4, #2, #3, ...

........................................................................
.............................. CYCLE   12 ..............................
........................................................................

 iter      E             dE          RMSdq      gap      omega  full diag
   1    -26.3896369 -0.263896E+02  0.494E-02    3.84       0.0  T
   2    -26.3896370 -0.180651E-06  0.294E-02    3.84       1.0  T
   3    -26.3896368  0.223877E-06  0.463E-03    3.84       5.1  T
   4    -26.3896371 -0.267997E-06  0.131E-03    3.84      18.1  T
   5    -26.3896371 -0.173436E-07  0.557E-04    3.84      42.3  T
   6    -26.3896371 -0.522210E-09  0.188E-04    3.84     125.2  T
     SCC iter.                  ...        0 min,  0.005 sec
     gradient                   ...        0 min,  0.001 sec
 * total energy  :   -26.0618637 Eh     change       -0.3674346E-04 Eh
   gradient norm :     0.0024591 Eh/α   predicted    -0.2594167E-04 ( -29.40%)
   displ. norm   :     0.1211801 α      lambda       -0.3779538E-04
   maximum displ.:     0.1042377 α      in ANC's #4, #2, #3, ...

........................................................................
.............................. CYCLE   13 ..............................
........................................................................

 iter      E             dE          RMSdq      gap      omega  full diag
   1    -26.3894372 -0.263894E+02  0.474E-02    3.84       0.0  T
   2    -26.3894374 -0.229995E-06  0.282E-02    3.84       1.0  T
   3    -26.3894373  0.136839E-06  0.373E-03    3.84       6.3  T
   4    -26.3894375 -0.167014E-06  0.170E-03    3.84      13.9  T
   5    -26.3894375 -0.310918E-07  0.584E-04    3.84      40.3  T
   6    -26.3894375 -0.259760E-09  0.229E-04    3.84     103.0  T
     SCC iter.                  ...        0 min,  0.005 sec
     gradient                   ...        0 min,  0.001 sec
 * total energy  :   -26.0618885 Eh     change       -0.2484413E-04 Eh
   gradient norm :     0.0017855 Eh/α   predicted    -0.1917439E-04 ( -22.82%)
   displ. norm   :     0.1339737 α      lambda       -0.3233074E-04
   maximum displ.:     0.0964726 α      in ANC's #4, #3, #5, ...

........................................................................
.............................. CYCLE   14 ..............................
........................................................................

 iter      E             dE          RMSdq      gap      omega  full diag
   1    -26.3914214 -0.263914E+02  0.580E-02    3.84       0.0  T
   2    -26.3914224 -0.103188E-05  0.340E-02    3.84       1.0  T
   3    -26.3914214  0.100935E-05  0.998E-03    3.84       2.4  T
   4    -26.3914226 -0.114886E-05  0.326E-03    3.84       7.2  T
   5    -26.3914227 -0.109789E-06  0.104E-03    3.84      22.6  T
   6    -26.3914227 -0.476810E-09  0.351E-04    3.84      67.1  T
   7    -26.3914227 -0.464009E-09  0.106E-04    3.84     222.6  T
     SCC iter.                  ...        0 min,  0.005 sec
     gradient                   ...        0 min,  0.001 sec
 * total energy  :   -26.0618702 Eh     change        0.1835971E-04 Eh
   gradient norm :     0.0053628 Eh/α   predicted    -0.1629507E-04 (-188.75%)
   displ. norm   :     0.0473423 α      lambda       -0.5411998E-04
   maximum displ.:     0.0349181 α      in ANC's #4, #3, #5, ...

........................................................................
.............................. CYCLE   15 ..............................
........................................................................

 iter      E             dE          RMSdq      gap      omega  full diag
   1    -26.3902748 -0.263903E+02  0.194E-02    3.84       0.0  T
   2    -26.3902753 -0.448701E-06  0.109E-02    3.84       2.2  T
   3    -26.3902751  0.177068E-06  0.538E-03    3.84       4.4  T
   4    -26.3902753 -0.202706E-06  0.194E-03    3.84      12.1  T
   5    -26.3902753 -0.428456E-07  0.477E-04    3.84      49.4  T
   6    -26.3902753 -0.142364E-09  0.178E-04    3.84     132.8  T
     SCC iter.                  ...        0 min,  0.005 sec
     gradient                   ...        0 min,  0.002 sec
 * total energy  :   -26.0619040 Eh     change       -0.3379065E-04 Eh
   gradient norm :     0.0020785 Eh/α   predicted    -0.2712081E-04 ( -19.74%)
   displ. norm   :     0.0592915 α      lambda       -0.1871229E-04
   maximum displ.:     0.0412355 α      in ANC's #4, #3, #2, ...

........................................................................
.............................. CYCLE   16 ..............................
........................................................................

 iter      E             dE          RMSdq      gap      omega  full diag
   1    -26.3903675 -0.263904E+02  0.260E-02    3.84       0.0  T
   2    -26.3903676 -0.154682E-06  0.153E-02    3.84       1.5  T
   3    -26.3903676  0.119532E-07  0.184E-03    3.84      12.8  T
   4    -26.3903676 -0.164008E-07  0.107E-03    3.84      21.9  T
   5    -26.3903676 -0.143404E-07  0.353E-04    3.84      66.7  T
   6    -26.3903676 -0.173088E-09  0.123E-04    3.84     192.0  T
     SCC iter.                  ...        0 min,  0.005 sec
     gradient                   ...        0 min,  0.001 sec
 * total energy  :   -26.0619127 Eh     change       -0.8757448E-05 Eh
   gradient norm :     0.0007819 Eh/α   predicted    -0.9391231E-05 (   7.24%)
   displ. norm   :     0.0528760 α      lambda       -0.8346764E-05
   maximum displ.:     0.0420044 α      in ANC's #4, #2, #1, ...

........................................................................
.............................. CYCLE   17 ..............................
........................................................................

 iter      E             dE          RMSdq      gap      omega  full diag
   1    -26.3895279 -0.263895E+02  0.175E-02    3.84       0.0  T
   2    -26.3895281 -0.175722E-06  0.101E-02    3.85       2.3  T
   3    -26.3895280  0.603636E-07  0.307E-03    3.84       7.7  T
   4    -26.3895281 -0.638822E-07  0.117E-03    3.85      20.1  T
   5    -26.3895281 -0.184474E-07  0.338E-04    3.85      69.7  T
   6    -26.3895281 -0.375014E-09  0.135E-04    3.85     174.4  T
     SCC iter.                  ...        0 min,  0.005 sec
     gradient                   ...        0 min,  0.001 sec
 * total energy  :   -26.0619183 Eh     change       -0.5573635E-05 Eh
   gradient norm :     0.0016931 Eh/α   predicted    -0.4178969E-05 ( -25.02%)
   displ. norm   :     0.0489033 α      lambda       -0.8548504E-05
   maximum displ.:     0.0304671 α      in ANC's #4, #1, #2, ...

........................................................................
.............................. CYCLE   18 ..............................
........................................................................

 iter      E             dE          RMSdq      gap      omega  full diag
   1    -26.3897900 -0.263898E+02  0.162E-02    3.85       0.0  T
   2    -26.3897900 -0.140187E-07  0.960E-03    3.85       2.5  T
   3    -26.3897900  0.445953E-07  0.191E-03    3.85      12.3  T
   4    -26.3897900 -0.525213E-07  0.362E-04    3.85      65.1  T
   5    -26.3897900 -0.568825E-09  0.161E-04    3.85     146.7  T
     SCC iter.                  ...        0 min,  0.004 sec
     gradient                   ...        0 min,  0.001 sec
 * total energy  :   -26.0619295 Eh     change       -0.1116726E-04 Eh
   gradient norm :     0.0013010 Eh/α   predicted    -0.4278966E-05 ( -61.68%)
   displ. norm   :     0.2529641 α      lambda       -0.3708878E-04
   maximum displ.:     0.1425891 α      in ANC's #4, #1, #2, ...

........................................................................
.............................. CYCLE   19 ..............................
........................................................................

 iter      E             dE          RMSdq      gap      omega  full diag
   1    -26.3897797 -0.263898E+02  0.844E-02    3.85       0.0  T
   2    -26.3897803 -0.526219E-06  0.500E-02    3.85       1.0  T
   3    -26.3897791  0.116306E-05  0.979E-03    3.85       2.4  T
   4    -26.3897805 -0.134821E-05  0.202E-03    3.85      11.7  T
   5    -26.3897805 -0.308400E-07  0.864E-04    3.85      27.3  T
   6    -26.3897805 -0.390685E-09  0.176E-04    3.85     133.6  T
     SCC iter.                  ...        0 min,  0.005 sec
     gradient                   ...        0 min,  0.002 sec
 * total energy  :   -26.0619587 Eh     change       -0.2918922E-04 Eh
   gradient norm :     0.0031172 Eh/α   predicted    -0.1907346E-04 ( -34.66%)
   displ. norm   :     0.0909775 α      lambda       -0.2956796E-04
   maximum displ.:     0.0549350 α      in ANC's #2, #1, #5, ...

........................................................................
.............................. CYCLE   20 ..............................
........................................................................

 iter      E             dE          RMSdq      gap      omega  full diag
   1    -26.3904156 -0.263904E+02  0.310E-02    3.85       0.0  T
   2    -26.3904158 -0.222247E-06  0.182E-02    3.85       1.3  T
   3    -26.3904158 -0.228932E-08  0.183E-03    3.85      12.8  T
   4    -26.3904158 -0.113501E-07  0.845E-04    3.85      27.9  T
   5    -26.3904158 -0.722554E-08  0.427E-04    3.85      55.2  T
     SCC iter.                  ...        0 min,  0.004 sec
     gradient                   ...        0 min,  0.001 sec
 * total energy  :   -26.0619762 Eh     change       -0.1759678E-04 Eh
   gradient norm :     0.0014030 Eh/α   predicted    -0.1490765E-04 ( -15.28%)
   displ. norm   :     0.1697161 α      lambda       -0.1534072E-04
   maximum displ.:     0.0962098 α      in ANC's #1, #4, #5, ...
 * RMSD in coord.:     0.4403432 α      energy gain  -0.1870085E-01 Eh

generating ANC from exact Hessian ...
Using Lindh-Hessian (1995)
 Shifting diagonal of input Hessian by   8.386841146052813E-003
 Lowest  eigenvalues of input Hessian
    0.000000    0.000000    0.000000    0.000000    0.000000    0.000000
    0.010000    0.011170    0.012298    0.017448    0.019016    0.021212
    0.021991    0.027179    0.028358    0.036189    0.042968    0.054386
 Highest eigenvalues
    1.272242    1.278920    1.469096    1.830806    1.922323    2.378117
 

........................................................................
.............................. CYCLE   21 ..............................
........................................................................

 iter      E             dE          RMSdq      gap      omega  full diag
   1    -26.3897477 -0.263897E+02  0.550E-02    3.85       0.0  T
   2    -26.3897480 -0.263250E-06  0.325E-02    3.85       1.0  T
   3    -26.3897475  0.506663E-06  0.645E-03    3.85       3.7  T
   4    -26.3897480 -0.578667E-06  0.139E-03    3.85      17.0  T
   5    -26.3897481 -0.173552E-07  0.543E-04    3.85      43.4  T
   6    -26.3897481 -0.168964E-09  0.132E-04    3.85     179.2  T
     SCC iter.                  ...        0 min,  0.005 sec
     gradient                   ...        0 min,  0.001 sec
 * total energy  :   -26.0619859 Eh     change       -0.9635039E-05 Eh
   gradient norm :     0.0017343 Eh/α   predicted     0.0000000E+00 (-100.00%)
   displ. norm   :     0.0137459 α      lambda       -0.8018711E-05
   maximum displ.:     0.0050208 α      in ANC's #8, #3, #4, ...

........................................................................
.............................. CYCLE   22 ..............................
........................................................................

 iter      E             dE          RMSdq      gap      omega  full diag
   1    -26.3905137 -0.263905E+02  0.110E-02    3.85       0.0  T
   2    -26.3905138 -0.112828E-06  0.626E-03    3.85       3.8  T
   3    -26.3905138 -0.188219E-08  0.163E-03    3.85      14.5  T
   4    -26.3905138 -0.351666E-08  0.642E-04    3.85      36.7  T
   5    -26.3905138 -0.463319E-08  0.308E-04    3.85      76.4  T
     SCC iter.                  ...        0 min,  0.004 sec
     gradient                   ...        0 min,  0.001 sec
 * total energy  :   -26.0619911 Eh     change       -0.5174101E-05 Eh
   gradient norm :     0.0004878 Eh/α   predicted    -0.4010948E-05 ( -22.48%)
   displ. norm   :     0.0115078 α      lambda       -0.1713417E-05
   maximum displ.:     0.0076267 α      in ANC's #9, #5, #3, ...

........................................................................
.............................. CYCLE   23 ..............................
........................................................................

 iter      E             dE          RMSdq      gap      omega  full diag
   1    -26.3904998 -0.263905E+02  0.800E-03    3.85       0.0  T
   2    -26.3904998 -0.507824E-08  0.476E-03    3.85       4.9  T
   3    -26.3904998 -0.196936E-08  0.340E-04    3.85      69.3  T
   4    -26.3904998 -0.496964E-09  0.224E-04    3.85     105.0  T
     SCC iter.                  ...        0 min,  0.003 sec
     gradient                   ...        0 min,  0.001 sec
 * total energy  :   -26.0619925 Eh     change       -0.1468726E-05 Eh
   gradient norm :     0.0004209 Eh/α   predicted    -0.8553849E-06 ( -41.76%)
   displ. norm   :     0.0222300 α      lambda       -0.2150794E-05
   maximum displ.:     0.0111476 α      in ANC's #5, #9, #3, ...

   *** GEOMETRY OPTIMIZATION CONVERGED AFTER 23 ITERATIONS ***

------------------------------------------------------------------------
 total energy gain   :        -0.0187171 Eh      -11.7452 kcal/mol
 total RMSD          :         0.4417038 a0        0.2337 Å
 total power (kW/mol):        -2.1366005 (step) -277.0097 (real)
------------------------------------------------------------------------

 ANCopt (total)                0 d,  0 h,  0 min,  0.177 sec
 optimizer setup                ...        0 min,  0.000 sec (  0.062%)
 model hessian                  ...        0 min,  0.006 sec (  3.490%)
 ANC generation                 ...        0 min,  0.001 sec (  0.804%)
 coordinate transformation      ...        0 min,  0.000 sec (  0.090%)
 single point calculation       ...        0 min,  0.160 sec ( 90.280%)
 optimization log               ...        0 min,  0.003 sec (  1.743%)
 hessian update                 ...        0 min,  0.002 sec (  1.335%)
 rational function              ...        0 min,  0.003 sec (  1.651%)

================
 final structure:
================
18
 xtb: 6.7.1 (edcfbbe)
C            2.98179849658653       -0.88035712177701        0.18481374783250
C            2.00050998367653        0.27100918522073        0.29609737972859
O            0.67993014312727       -0.24308488582197        0.12454151153889
C           -0.30772222366607        0.66021128813808        0.12378125462777
O           -0.11663232106330        1.84443879401231        0.26578478518581
C           -1.65291540873111        0.05183218007586       -0.07083671319985
C           -2.79180737620252        1.00745865756254        0.08832950857625
C           -1.79481859672594       -1.23368491213418       -0.37410844649971
H            3.99409416855067       -0.51125239134891        0.32034318226300
H            2.77027550211250       -1.62679810354490        0.94541806891052
H            2.90130100841027       -1.34835731022529       -0.79267892655189
H            2.06565440538873        0.75717469426431        1.27643511205922
H            2.18653378379114        1.03190469773522       -0.47059361935794
H           -3.73241681645609        0.54274559242742       -0.19138357034408
H           -2.61957154851107        1.88907905801514       -0.52545525311788
H           -2.85060111055526        1.34299211076401        1.12277974372019
H           -0.94521204016242       -1.88484027740601       -0.47937523483654
H           -2.76839904956990       -1.67047025595742       -0.52291653053489
 
 Bond Distances (Angstroems)
 ---------------------------
C1-C2=1.5169         C1-H9=1.0860         C1-H10=1.0865        C1-H11=1.0867        C2-C1=1.5169         C2-O3=1.4275         
C2-H12=1.0962        C2-H13=1.0961        O3-C2=1.4275         O3-C4=1.3384         C4-O3=1.3384         C4-O5=1.2079         
C4-C6=1.4891         O5-C4=1.2079         C6-C4=1.4891         C6-C7=1.4952         C6-C8=1.3284         C7-C6=1.4952         
C7-H14=1.0858        C7-H15=1.0880        C7-H16=1.0891        C8-C6=1.3284         C8-H17=1.0756        C8-H18=1.0774        
H9-C1=1.0860         H10-C1=1.0865        H11-C1=1.0867        H12-C2=1.0962        H13-C2=1.0961        H14-C7=1.0858        
H15-C7=1.0880        H16-C7=1.0891        H17-C8=1.0756        H18-C8=1.0774        
 C  H  Rav=1.0867 sigma=0.0063  Rmin=1.0756  Rmax=1.0962    10
 C  C  Rav=1.4574 sigma=0.0752  Rmin=1.3284  Rmax=1.5169     4
 O  C  Rav=1.3246 sigma=0.0902  Rmin=1.2079  Rmax=1.4275     3
 
 selected bond angles (degree)
 --------------------
H9-C1-C2=109.63                H10-C1-C2=110.13               H10-C1-H9=109.12               H11-C1-C2=110.18               
H11-C1-H9=109.13               H11-C1-H10=108.63              O3-C2-C1=108.44                H12-C2-C1=111.33               
H12-C2-O3=108.79               H13-C2-C1=111.46               H13-C2-O3=108.84               H13-C2-H12=107.91              
C4-O3-C2=116.08                O5-C4-O3=123.01                C6-C4-O3=113.01                C6-C4-O5=123.97                
C7-C6-C4=114.40                C8-C6-C4=121.45                C8-C6-C7=124.15                H14-C7-C6=111.03               
H15-C7-C6=109.71               H15-C7-H14=109.79              H16-C7-C6=109.82               H16-C7-H14=109.26              
H16-C7-H15=107.14              H17-C8-C6=121.59               H18-C8-C6=121.36               H18-C8-H17=117.05              
 
 selected dihedral angles (degree)
 ---------------------------------
O3-C2-C1-H9=180.44            O3-C2-C1-H10=300.51           O3-C2-C1-H11= 60.33           H12-C2-C1-H9=300.09           
H12-C2-C1-H10= 60.17          H12-C2-C1-H11=179.98          H13-C2-C1-H9= 60.65           H13-C2-C1-H10=180.72          
H13-C2-C1-H11=300.54          C4-O3-C2-C1=183.43            C4-O3-C2-H12= 62.20           C4-O3-C2-H13=304.84           
O5-C4-O3-C2=359.59            C6-C4-O3-C2=179.52            C7-C6-C4-O3=172.94            C7-C6-C4-O5=352.87            
C8-C6-C4-O3=352.26            C8-C6-C4-O5=172.19            H14-C7-C6-C4=172.53           H14-C7-C6-C8=353.23           
H15-C7-C6-C4= 50.99           H15-C7-C6-C8=231.69           H16-C7-C6-C4=293.48           H16-C7-C6-C8=114.18           
H17-C8-C6-C4=  0.70           H17-C8-C6-C7=179.96           H18-C8-C6-C4=180.53           H18-C8-C6-C7=359.79           
           -------------------------------------------------
          |                Final Singlepoint                |
           -------------------------------------------------

          ...................................................
          :                      SETUP                      :
          :.................................................:
          :  # basis functions                  42          :
          :  # atomic orbitals                  42          :
          :  # shells                           26          :
          :  # electrons                        46          :
          :  max. iterations                   250          :
          :  Hamiltonian                  GFN2-xTB          :
          :  restarted?                      false          :
          :  GBSA solvation                  false          :
          :  PC potential                    false          :
          :  electronic temp.          300.0000000     K    :
          :  accuracy                    1.0000000          :
          :  -> integral cutoff          0.2500000E+02      :
          :  -> integral neglect         0.1000000E-07      :
          :  -> SCF convergence          0.1000000E-05 Eh   :
          :  -> wf. convergence          0.1000000E-03 e    :
          :  Broyden damping             0.4000000          :
          :  net charge                          0          :
          :  unpaired electrons                  0          :
          ...................................................

 iter      E             dE          RMSdq      gap      omega  full diag
   1    -26.3904998 -0.263905E+02  0.113E-04    3.85       0.0  T
   2    -26.3904998 -0.877520E-11  0.831E-05    3.85     283.6  T
   3    -26.3904998 -0.383906E-10  0.520E-05    3.85     453.2  T

   *** convergence criteria satisfied after 3 iterations ***

         #    Occupation            Energy/Eh            Energy/eV
      -------------------------------------------------------------
         1        2.0000           -0.7375785             -20.0705
       ...           ...                  ...                  ...
        17        2.0000           -0.4724274             -12.8554
        18        2.0000           -0.4690713             -12.7641
        19        2.0000           -0.4643867             -12.6366
        20        2.0000           -0.4539563             -12.3528
        21        2.0000           -0.4370515             -11.8928
        22        2.0000           -0.4157501             -11.3131
        23        2.0000           -0.4083632             -11.1121 (HOMO)
        24                         -0.2667457              -7.2585 (LUMO)
        25                         -0.1601375              -4.3576
        26                          0.0062195               0.1692
        27                          0.0983655               2.6767
        28                          0.1136544               3.0927
       ...                                ...                  ...
        42                          0.7003712              19.0581
      -------------------------------------------------------------
                  HL-Gap            0.1416174 Eh            3.8536 eV
             Fermi-level           -0.3375545 Eh           -9.1853 eV

 SCC (total)                   0 d,  0 h,  0 min,  0.006 sec
 SCC setup                      ...        0 min,  0.001 sec ( 16.842%)
 Dispersion                     ...        0 min,  0.000 sec (  3.470%)
 classical contributions        ...        0 min,  0.000 sec (  0.586%)
 integral evaluation            ...        0 min,  0.000 sec (  6.048%)
 iterations                     ...        0 min,  0.003 sec ( 47.129%)
 molecular gradient             ...        0 min,  0.001 sec ( 21.207%)
 printout                       ...        0 min,  0.000 sec (  4.329%)

         :::::::::::::::::::::::::::::::::::::::::::::::::::::
         ::                     SUMMARY                     ::
         :::::::::::::::::::::::::::::::::::::::::::::::::::::
         :: total energy             -26.061992525209 Eh    ::
         :: gradient norm              0.000421275231 Eh/a0 ::
         :: HOMO-LUMO gap              3.853606096747 eV    ::
         ::.................................................::
         :: SCC energy               -26.390494264175 Eh    ::
         :: -> isotropic ES            0.046756023996 Eh    ::
         :: -> anisotropic ES          0.001917452221 Eh    ::
         :: -> anisotropic XC          0.008152218108 Eh    ::
         :: -> dispersion             -0.010768437151 Eh    ::
         :: repulsion energy           0.328501738965 Eh    ::
         :: add. restraining           0.000000000000 Eh    ::
         :: total charge               0.000000000000 e     ::
         :::::::::::::::::::::::::::::::::::::::::::::::::::::

           -------------------------------------------------
          |                Property Printout                |
           -------------------------------------------------

    * Orbital Energies and Occupations

         #    Occupation            Energy/Eh            Energy/eV
      -------------------------------------------------------------
         1        2.0000           -0.7375785             -20.0705
       ...           ...                  ...                  ...
        11        2.0000           -0.5346187             -14.5477
        12        2.0000           -0.5233259             -14.2404
        13        2.0000           -0.5042231             -13.7206
        14        2.0000           -0.4930686             -13.4171
        15        2.0000           -0.4885405             -13.2939
        16        2.0000           -0.4819302             -13.1140
        17        2.0000           -0.4724274             -12.8554
        18        2.0000           -0.4690713             -12.7641
        19        2.0000           -0.4643867             -12.6366
        20        2.0000           -0.4539563             -12.3528
        21        2.0000           -0.4370515             -11.8928
        22        2.0000           -0.4157501             -11.3131
        23        2.0000           -0.4083632             -11.1121 (HOMO)
        24                         -0.2667457              -7.2585 (LUMO)
        25                         -0.1601375              -4.3576
        26                          0.0062195               0.1692
        27                          0.0983655               2.6767
        28                          0.1136544               3.0927
        29                          0.1196247               3.2552
        30                          0.1438777               3.9151
        31                          0.1449989               3.9456
        32                          0.1704151               4.6372
        33                          0.1809145               4.9229
        34                          0.1871231               5.0919
       ...                                ...                  ...
        42                          0.7003712              19.0581
      -------------------------------------------------------------
                  HL-Gap            0.1416174 Eh            3.8536 eV
             Fermi-level           -0.3375545 Eh           -9.1853 eV

     #   Z          covCN         q      C6AA      α(0)
     1   6 C        3.751    -0.115    22.772     6.805
     2   6 C        3.704     0.086    19.293     6.280
     3   8 O        1.704    -0.268    18.447     5.799
     4   6 C        2.730     0.349    21.066     7.514
     5   8 O        0.856    -0.418    22.037     6.294
     6   6 C        2.937    -0.008    28.207     8.710
     7   6 C        3.759    -0.110    22.661     6.787
     8   6 C        2.844    -0.082    30.055     8.985
     9   1 H        0.925     0.052     2.292     2.367
    10   1 H        0.925     0.058     2.223     2.332
    11   1 H        0.925     0.057     2.232     2.336
    12   1 H        0.924     0.050     2.322     2.383
    13   1 H        0.924     0.052     2.301     2.372
    14   1 H        0.925     0.050     2.317     2.381
    15   1 H        0.925     0.068     2.104     2.268
    16   1 H        0.925     0.062     2.174     2.306
    17   1 H        0.926     0.062     2.175     2.306
    18   1 H        0.926     0.055     2.261     2.352

 Mol. C6AA /au·bohr⁶  :       2821.632252
 Mol. C8AA /au·bohr⁸  :      62194.661204
 Mol. α(0) /au        :         80.577237


Wiberg/Mayer (AO) data.
largest (>0.10) Wiberg bond orders for each atom

 ---------------------------------------------------------------------------
     #   Z sym  total        # sym  WBO       # sym  WBO       # sym  WBO
 ---------------------------------------------------------------------------
     1   6 C    3.992 --     2 C    1.019    11 H    0.985    10 H    0.985
                             9 H    0.984
     2   6 C    3.929 --     1 C    1.019    13 H    0.968    12 H    0.968
                             3 O    0.939
     3   8 O    2.302 --     4 C    1.125     2 C    0.939     5 O    0.171
     4   6 C    3.917 --     5 O    1.725     3 O    1.125     6 C    0.992
     5   8 O    2.027 --     4 C    1.725     3 O    0.171
     6   6 C    3.986 --     8 C    1.879     7 C    1.030     4 C    0.992
     7   6 C    3.994 --     6 C    1.030    14 H    0.985    15 H    0.968
                            16 H    0.965
     8   6 C    3.989 --     6 C    1.879    18 H    0.974    17 H    0.973
     9   1 H    0.996 --     1 C    0.984
    10   1 H    0.997 --     1 C    0.985
    11   1 H    0.997 --     1 C    0.985
    12   1 H    0.998 --     2 C    0.968
    13   1 H    0.997 --     2 C    0.968
    14   1 H    0.997 --     7 C    0.985
    15   1 H    0.995 --     7 C    0.968
    16   1 H    0.996 --     7 C    0.965
    17   1 H    0.996 --     8 C    0.973
    18   1 H    0.997 --     8 C    0.974
 ---------------------------------------------------------------------------

Topologies differ in total number of bonds
Writing topology from bond orders to xtbtopo.mol

molecular dipole:
                 x           y           z       tot (Debye)
 q only:        0.100      -0.823      -0.083
   full:        0.107      -0.864      -0.079       2.221
molecular quadrupole (traceless):
                xx          xy          yy          xz          yz          zz
 q only:        9.129      -0.908      -6.664       0.745      -0.423      -2.465
  q+dip:        8.270       0.352      -7.181       0.691      -0.335      -1.089
   full:        8.353       0.029      -8.098       0.588      -0.708      -0.255

           -------------------------------------------------
          |                Geometry Summary                 |
           -------------------------------------------------

      molecular mass/u    :      114.1426327
   center of mass at/Å    :       -0.0768707       0.1984137       0.0868437
  moments of inertia/u·Å² :        0.1149548E+03   0.4223392E+03   0.5270508E+03
rotational constants/cm⁻¹ :        0.1466457E+00   0.3991492E-01   0.3198483E-01

 * 15 selected distances

     #   Z          #   Z                                           value/Å
     1   6 C        2   6 C                                       1.5168902 (max)
     2   6 C        3   8 O                                       1.4274648
     3   8 O        4   6 C                                       1.3384327
     4   6 C        5   8 O                                       1.2079219
     6   6 C        8   6 C                                       1.3284069
     1   6 C        9   1 H                                       1.0859785
     1   6 C       10   1 H                                       1.0864784
     1   6 C       11   1 H                                       1.0867365
     2   6 C       12   1 H                                       1.0962039
     2   6 C       13   1 H                                       1.0960758
     7   6 C       14   1 H                                       1.0857919
     7   6 C       15   1 H                                       1.0879576
     7   6 C       16   1 H                                       1.0890945
     8   6 C       17   1 H                                       1.0756003 (min)
     8   6 C       18   1 H                                       1.0773970

 * 3 distinct bonds (by element types)

   Z      Z             #   av. dist./Å        max./Å        min./Å
   1 H    6 C          10     1.0867314     1.0962039     1.0756003
   6 C    6 C           2     1.4226485     1.5168902     1.3284069
   6 C    8 O           3     1.3246065     1.4274648     1.2079219


optimized geometry written to: xtbopt.xyz


           -------------------------------------------------
          | TOTAL ENERGY              -26.061992525209 Eh   |
          | GRADIENT NORM               0.000421275231 Eh/α |
          | HOMO-LUMO GAP               3.853606096747 eV   |
           -------------------------------------------------

------------------------------------------------------------------------
 * finished run on 2025/12/01 at 14:19:27.782     
------------------------------------------------------------------------
 total:
 * wall-time:     0 d,  0 h,  0 min,  0.208 sec
 *  cpu-time:     0 d,  0 h,  0 min,  4.679 sec
 * ratio c/w:    22.493 speedup
 SCF:
 * wall-time:     0 d,  0 h,  0 min,  0.015 sec
 *  cpu-time:     0 d,  0 h,  0 min,  0.335 sec
 * ratio c/w:    22.380 speedup
 ANC optimizer:
 * wall-time:     0 d,  0 h,  0 min,  0.184 sec
 *  cpu-time:     0 d,  0 h,  0 min,  4.185 sec
 * ratio c/w:    22.709 speedup

normal termination of xtb
