      -----------------------------------------------------------      
     |                   =====================                   |     
     |                           x T B                           |     
     |                   =====================                   |     
     |                         S. Grimme                         |     
     |          Mulliken Center for Theoretical Chemistry        |     
     |                    University of Bonn                     |     
      -----------------------------------------------------------      

   * xtb version 6.7.1 (edcfbbe) compiled by 'albert@albert-system' on 2024-07-22

   xtb is free software: you can redistribute it and/or modify it under
   the terms of the GNU Lesser General Public License as published by
   the Free Software Foundation, either version 3 of the License, or
   (at your option) any later version.
   
   xtb is distributed in the hope that it will be useful,
   but WITHOUT ANY WARRANTY; without even the implied warranty of
   MERCHANTABILITY or FITNESS FOR A PARTICULAR PURPOSE.  See the
   GNU Lesser General Public License for more details.
   
   Cite this work as:
   * C. Bannwarth, E. Caldeweyher, S. Ehlert, A. Hansen, P. Pracht,
     J. Seibert, S. Spicher, S. Grimme, WIREs Comput. Mol. Sci., 2020, 11,
     e01493. DOI: 10.1002/wcms.1493
   
   for GFN2-xTB:
   * C. Bannwarth, S. Ehlert and S. Grimme., J. Chem. Theory Comput., 2019,
     15, 1652-1671. DOI: 10.1021/acs.jctc.8b01176
   for GFN1-xTB:
   * S. Grimme, C. Bannwarth, P. Shushkov, J. Chem. Theory Comput., 2017,
     13, 1989-2009. DOI: 10.1021/acs.jctc.7b00118
   for GFN0-xTB:
   * P. Pracht, E. Caldeweyher, S. Ehlert, S. Grimme, ChemRxiv, 2019, preprint.
     DOI: 10.26434/chemrxiv.8326202.v1
   for GFN-FF:
   * S. Spicher and S. Grimme, Angew. Chem. Int. Ed., 2020, 59, 15665-15673.
     DOI: 10.1002/anie.202004239
   
   for ALPB and GBSA implicit solvation:
   * S. Ehlert, M. Stahn, S. Spicher, S. Grimme, J. Chem. Theory Comput.,
     2021, 17, 4250-4261. DOI: 10.1021/acs.jctc.1c00471
   
   for ddCOSMO and CPCM-X implicit solvation:
   * M. Stahn, S. Ehlert, S. Grimme, J. Phys. Chem. A,
     2023, XX, XXXX-XXXX. DOI: 10.1021/acs.jpca.3c04382
   
   for DFT-D4:
   * E. Caldeweyher, C. Bannwarth and S. Grimme, J. Chem. Phys., 2017,
     147, 034112. DOI: 10.1063/1.4993215
   * E. Caldeweyher, S. Ehlert, A. Hansen, H. Neugebauer, S. Spicher,
     C. Bannwarth and S. Grimme, J. Chem. Phys., 2019, 150, 154122.
     DOI: 10.1063/1.5090222
   * E. Caldeweyher, J.-M. Mewes, S. Ehlert and S. Grimme, Phys. Chem. Chem. Phys.
     2020, 22, 8499-8512. DOI: 10.1039/D0CP00502A
   
   for sTDA-xTB:
   * S. Grimme and C. Bannwarth, J. Chem. Phys., 2016, 145, 054103.
     DOI: 10.1063/1.4959605
   
   in the mass-spec context:
   * V. Asgeirsson, C. Bauer and S. Grimme, Chem. Sci., 2017, 8, 4879.
     DOI: 10.1039/c7sc00601b
   * J. Koopman and S. Grimme, ACS Omega 2019, 4, 12, 15120-15133.
     DOI: 10.1021/acsomega.9b02011
   
   for metadynamics refer to:
   * S. Grimme, J. Chem. Theory Comput., 2019, 155, 2847-2862
     DOI: 10.1021/acs.jctc.9b00143
   
   for SPH calculations refer to:
   * S. Spicher and S. Grimme, J. Chem. Theory Comput., 2021, 17, 1701-1714
     DOI: 10.1021/acs.jctc.0c01306
   
   for ONIOM refer to:
   * C. Plett, A. Katbashev, S. Ehlert, S. Grimme, M. Bursch,
     Phys. Chem. Chem. Phys., 2023, 25, 17860-17868. DOI: 10.1039/D3CP02178E
   
   for DIPRO refer to:
   * J. Kohn, N. Gildemeister, S. Grimme, D. Fazzi, A. Hansen,
     J. Chem. Phys., 2023, just accepted.
   
   for PTB refer to:
   * S. Grimme, M. Mueller, A. Hansen, J. Chem. Phys., 2023, 158, 124111.
     DOI: 10.1063/5.0137838
   
   with help from (in alphabetical order)
   P. Atkinson, C. Bannwarth, F. Bohle, G. Brandenburg, E. Caldeweyher
   M. Checinski, S. Dohm, S. Ehlert, S. Ehrlich, I. Gerasimov, C. Hölzer
   A. Katbashev, J. Kohn, J. Koopman, C. Lavigne, S. Lehtola, F. März, M. Müller,
   F. Musil, H. Neugebauer, J. Pisarek, C. Plett, P. Pracht, F. Pultar,
   J. Seibert, P. Shushkov, S. Spicher, M. Stahn, M. Steiner, T. Strunk,
   J. Stückrath, T. Rose, and J. Unsleber
   
 * started run on 2025/12/01 at 14:19:27.098     
   ID    Z sym.   atoms
    1    6 C      1, 2, 4, 6-8
    2    8 O      3, 5
    3    1 H      9-18

           -------------------------------------------------
          |                Calculation Setup                |
           -------------------------------------------------

          program call               : xtb pipeline_data/3_conformer_xyz/acrylates/rdkit/SUPCQIBBMFXVTL-UHFFFAOYSA-N_conf72.xyz --opt --gfn 2-xTB --iterations 250
          coordinate file            : pipeline_data/3_conformer_xyz/acrylates/rdkit/SUPCQIBBMFXVTL-UHFFFAOYSA-N_conf72.xyz
          omp threads                :                    24

########################################################################
[WARNING] Please study the warnings concerning your input carefully
-1- readin_getIntValue: could not parse '2-xTB'
########################################################################

           -------------------------------------------------
          |                 G F N 2 - x T B                 |
           -------------------------------------------------

        Reference                      10.1021/acs.jctc.8b01176
      * Hamiltonian:
        H0-scaling (s, p, d)           1.850000    2.230000    2.230000
        zeta-weighting                 0.500000
      * Dispersion:
        s8                             2.700000
        a1                             0.520000
        a2                             5.000000
        s9                             5.000000
      * Repulsion:
        kExp                           1.500000    1.000000
        rExp                           1.000000
      * Coulomb:
        alpha                          2.000000
        third order                    shell-resolved
        anisotropic                    true
        a3                             3.000000
        a5                             4.000000
        cn-shift                       1.200000
        cn-exp                         4.000000
        max-rad                        5.000000

q/qsh data taken from xtbrestart
CAMM data taken from xtbrestart

          ...................................................
          :                      SETUP                      :
          :.................................................:
          :  # basis functions                  42          :
          :  # atomic orbitals                  42          :
          :  # shells                           26          :
          :  # electrons                        46          :
          :  max. iterations                   250          :
          :  Hamiltonian                  GFN2-xTB          :
          :  restarted?                       true          :
          :  GBSA solvation                  false          :
          :  PC potential                    false          :
          :  electronic temp.          300.0000000     K    :
          :  accuracy                    1.0000000          :
          :  -> integral cutoff          0.2500000E+02      :
          :  -> integral neglect         0.1000000E-07      :
          :  -> SCF convergence          0.1000000E-05 Eh   :
          :  -> wf. convergence          0.1000000E-03 e    :
          :  Broyden damping             0.4000000          :
          :  net charge                          0          :
          :  unpaired electrons                  0          :
          ...................................................

 iter      E             dE          RMSdq      gap      omega  full diag
   1    -26.3317378 -0.263317E+02  0.557E+00    3.56       0.0  T
   2    -26.3359775 -0.423964E-02  0.333E+00    3.42       1.0  T
   3    -26.3371578 -0.118031E-02  0.276E-01    3.50       1.0  T
   4    -26.3372824 -0.124589E-03  0.150E-01    3.44       1.0  T
   5    -26.3372623  0.200784E-04  0.943E-02    3.48       1.0  T
   6    -26.3373158 -0.534748E-04  0.251E-02    3.46       1.0  T
   7    -26.3373228 -0.702390E-05  0.941E-03    3.46       2.5  T
   8    -26.3373231 -0.265810E-06  0.408E-03    3.46       5.8  T
   9    -26.3373231 -0.467968E-07  0.110E-03    3.46      21.5  T
  10    -26.3373231 -0.149015E-08  0.343E-04    3.46      68.8  T
  11    -26.3373231 -0.321819E-09  0.133E-04    3.46     176.7  T

   *** convergence criteria satisfied after 11 iterations ***

         #    Occupation            Energy/Eh            Energy/eV
      -------------------------------------------------------------
         1        2.0000           -0.7281401             -19.8137
       ...           ...                  ...                  ...
        17        2.0000           -0.4672921             -12.7157
        18        2.0000           -0.4638802             -12.6228
        19        2.0000           -0.4604447             -12.5293
        20        2.0000           -0.4512244             -12.2784
        21        2.0000           -0.4300231             -11.7015
        22        2.0000           -0.4212728             -11.4634
        23        2.0000           -0.4100791             -11.1588 (HOMO)
        24                         -0.2828167              -7.6958 (LUMO)
        25                         -0.1670543              -4.5458
        26                         -0.0220397              -0.5997
        27                          0.0904290               2.4607
        28                          0.1043711               2.8401
       ...                                ...                  ...
        42                          0.6381668              17.3654
      -------------------------------------------------------------
                  HL-Gap            0.1272625 Eh            3.4630 eV
             Fermi-level           -0.3464479 Eh           -9.4273 eV

 SCC (total)                   0 d,  0 h,  0 min,  0.017 sec
 SCC setup                      ...        0 min,  0.000 sec (  2.263%)
 Dispersion                     ...        0 min,  0.000 sec (  1.973%)
 classical contributions        ...        0 min,  0.000 sec (  0.642%)
 integral evaluation            ...        0 min,  0.002 sec (  9.914%)
 iterations                     ...        0 min,  0.011 sec ( 63.354%)
 molecular gradient             ...        0 min,  0.004 sec ( 21.014%)
 printout                       ...        0 min,  0.000 sec (  0.555%)

         :::::::::::::::::::::::::::::::::::::::::::::::::::::
         ::                     SUMMARY                     ::
         :::::::::::::::::::::::::::::::::::::::::::::::::::::
         :: total energy             -26.044001942328 Eh    ::
         :: gradient norm              0.131514519994 Eh/a0 ::
         :: HOMO-LUMO gap              3.462987971156 eV    ::
         ::.................................................::
         :: SCC energy               -26.337320435217 Eh    ::
         :: -> isotropic ES            0.049596047131 Eh    ::
         :: -> anisotropic ES          0.000931605705 Eh    ::
         :: -> anisotropic XC          0.009360286692 Eh    ::
         :: -> dispersion             -0.010604721854 Eh    ::
         :: repulsion energy           0.293318492889 Eh    ::
         :: add. restraining           0.000000000000 Eh    ::
         :: total charge              -0.000000000000 e     ::
         :::::::::::::::::::::::::::::::::::::::::::::::::::::

      ----------------------------------------------------------- 
     |                   =====================                   |
     |                        A N C O P T                        |
     |                   =====================                   |
     |               Approximate Normal Coordinate               |
     |                Rational Function Optimizer                |
      ----------------------------------------------------------- 
      ----------------------------------------------------------- 
     |                   =====================                   |
     |                        A N C O P T                        |
     |                   =====================                   |
     |               Approximate Normal Coordinate               |
     |                Rational Function Optimizer                |
      ----------------------------------------------------------- 

          ...................................................
          :                      SETUP                      :
          :.................................................:
          :   optimization level            normal          :
          :   max. optcycles                   200          :
          :   ANC micro-cycles                  20          :
          :   degrees of freedom                48          :
          :.................................................:
          :   RF solver                   davidson          :
          :   write xtbopt.log                true          :
          :   linear?                        false          :
          :   energy convergence         0.5000000E-05 Eh   :
          :   grad. convergence          0.1000000E-02 Eh/α :
          :   maxmium RF displ.          1.0000000          :
          :   Hlow (freq-cutoff)         0.1000000E-01      :
          :   Hmax (freq-cutoff)         5.0000000          :
          :   S6 in model hess.         20.0000000          :
          ...................................................

generating ANC from exact Hessian ...
Using Lindh-Hessian (1995)
 Shifting diagonal of input Hessian by   8.500058755899716E-003
 Lowest  eigenvalues of input Hessian
    0.000000    0.000000    0.000000    0.000000    0.000000    0.000000
    0.010000    0.011038    0.012217    0.016448    0.017882    0.020335
    0.021706    0.026684    0.027702    0.034472    0.039415    0.050378
 Highest eigenvalues
    1.229275    1.265717    1.484917    1.799355    1.890365    2.131193
 

........................................................................
.............................. CYCLE    1 ..............................
........................................................................

 iter      E             dE          RMSdq      gap      omega  full diag
   1    -26.3373231 -0.263373E+02  0.311E-05    3.46       0.0  T
   2    -26.3373231 -0.891731E-12  0.199E-05    3.46    1183.1  T
   3    -26.3373231  0.106581E-13  0.807E-06    3.46    2920.9  T
     SCC iter.                  ...        0 min,  0.003 sec
     gradient                   ...        0 min,  0.001 sec
 * total energy  :   -26.0440019 Eh     change       -0.3302247E-10 Eh
   gradient norm :     0.1315158 Eh/α   predicted     0.0000000E+00 (-100.00%)
   displ. norm   :     0.3191671 α      lambda       -0.1990255E-01
   maximum displ.:     0.1790383 α      in ANC's #9, #20, #21, ...

........................................................................
.............................. CYCLE    2 ..............................
........................................................................

 iter      E             dE          RMSdq      gap      omega  full diag
   1    -26.3726950 -0.263727E+02  0.369E-01    3.62       0.0  T
   2    -26.3730015 -0.306478E-03  0.223E-01    3.67       1.0  T
   3    -26.3729650  0.365048E-04  0.965E-02    3.67       1.0  T
   4    -26.3730001 -0.350501E-04  0.449E-02    3.68       1.0  T
   5    -26.3730273 -0.272386E-04  0.898E-03    3.67       2.6  T
   6    -26.3730279 -0.622006E-06  0.440E-03    3.67       5.4  T
   7    -26.3730280 -0.344629E-07  0.115E-03    3.67      20.5  T
   8    -26.3730280 -0.364328E-08  0.463E-04    3.67      50.9  T
   9    -26.3730280 -0.528811E-09  0.993E-05    3.67     237.3  T
     SCC iter.                  ...        0 min,  0.007 sec
     gradient                   ...        0 min,  0.001 sec
 * total energy  :   -26.0575210 Eh     change       -0.1351902E-01 Eh
   gradient norm :     0.0539417 Eh/α   predicted    -0.1096499E-01 ( -18.89%)
   displ. norm   :     0.2818455 α      lambda       -0.5579738E-02
   maximum displ.:     0.2090904 α      in ANC's #9, #7, #11, ...

........................................................................
.............................. CYCLE    3 ..............................
........................................................................

 iter      E             dE          RMSdq      gap      omega  full diag
   1    -26.3900701 -0.263901E+02  0.217E-01    3.78       0.0  T
   2    -26.3901968 -0.126654E-03  0.130E-01    3.82       1.0  T
   3    -26.3901896  0.717674E-05  0.552E-02    3.82       1.0  T
   4    -26.3901959 -0.634869E-05  0.266E-02    3.82       1.0  T
   5    -26.3902051 -0.913765E-05  0.631E-03    3.82       3.7  T
   6    -26.3902054 -0.323699E-06  0.254E-03    3.82       9.3  T
   7    -26.3902054 -0.158298E-07  0.753E-04    3.82      31.3  T
   8    -26.3902054 -0.146926E-08  0.325E-04    3.82      72.5  T
     SCC iter.                  ...        0 min,  0.007 sec
     gradient                   ...        0 min,  0.001 sec
 * total energy  :   -26.0606523 Eh     change       -0.3131322E-02 Eh
   gradient norm :     0.0178610 Eh/α   predicted    -0.3011490E-02 (  -3.83%)
   displ. norm   :     0.1366995 α      lambda       -0.6396782E-03
   maximum displ.:     0.1089563 α      in ANC's #9, #7, #5, ...

........................................................................
.............................. CYCLE    4 ..............................
........................................................................

 iter      E             dE          RMSdq      gap      omega  full diag
   1    -26.3889875 -0.263890E+02  0.711E-02    3.83       0.0  T
   2    -26.3889954 -0.796875E-05  0.436E-02    3.83       1.0  T
   3    -26.3889942  0.119663E-05  0.170E-02    3.83       1.4  T
   4    -26.3889948 -0.583880E-06  0.917E-03    3.83       2.6  T
   5    -26.3889960 -0.114221E-05  0.137E-03    3.83      17.2  T
   6    -26.3889960 -0.964218E-08  0.663E-04    3.83      35.6  T
   7    -26.3889960 -0.940251E-09  0.193E-04    3.83     122.1  T
     SCC iter.                  ...        0 min,  0.006 sec
     gradient                   ...        0 min,  0.001 sec
 * total energy  :   -26.0610651 Eh     change       -0.4127987E-03 Eh
   gradient norm :     0.0085204 Eh/α   predicted    -0.3258138E-03 ( -21.07%)
   displ. norm   :     0.1186420 α      lambda       -0.2462797E-03
   maximum displ.:     0.0768325 α      in ANC's #9, #5, #8, ...

........................................................................
.............................. CYCLE    5 ..............................
........................................................................

 iter      E             dE          RMSdq      gap      omega  full diag
   1    -26.3880763 -0.263881E+02  0.485E-02    3.84       0.0  T
   2    -26.3880817 -0.534944E-05  0.285E-02    3.83       1.0  T
   3    -26.3880817 -0.519864E-07  0.114E-02    3.83       2.1  T
   4    -26.3880819 -0.110356E-06  0.202E-03    3.83      11.7  T
   5    -26.3880819 -0.444299E-07  0.773E-04    3.83      30.5  T
   6    -26.3880819 -0.214255E-08  0.505E-04    3.83      46.6  T
     SCC iter.                  ...        0 min,  0.005 sec
     gradient                   ...        0 min,  0.001 sec
 * total energy  :   -26.0612048 Eh     change       -0.1397089E-03 Eh
   gradient norm :     0.0036064 Eh/α   predicted    -0.1248736E-03 ( -10.62%)
   displ. norm   :     0.0852214 α      lambda       -0.1037230E-03
   maximum displ.:     0.0398157 α      in ANC's #5, #2, #9, ...

........................................................................
.............................. CYCLE    6 ..............................
........................................................................

 iter      E             dE          RMSdq      gap      omega  full diag
   1    -26.3881740 -0.263882E+02  0.360E-02    3.84       0.0  T
   2    -26.3881752 -0.120590E-05  0.211E-02    3.84       1.1  T
   3    -26.3881743  0.945596E-06  0.114E-02    3.84       2.1  T
   4    -26.3881754 -0.108775E-05  0.361E-03    3.84       6.5  T
   5    -26.3881755 -0.154216E-06  0.677E-04    3.84      34.8  T
   6    -26.3881755 -0.176306E-08  0.363E-04    3.84      64.9  T
     SCC iter.                  ...        0 min,  0.005 sec
     gradient                   ...        0 min,  0.002 sec
 * total energy  :   -26.0612701 Eh     change       -0.6529310E-04 Eh
   gradient norm :     0.0039841 Eh/α   predicted    -0.5223942E-04 ( -19.99%)
   displ. norm   :     0.0896352 α      lambda       -0.6924465E-04
   maximum displ.:     0.0483085 α      in ANC's #5, #2, #8, ...

........................................................................
.............................. CYCLE    7 ..............................
........................................................................

 iter      E             dE          RMSdq      gap      omega  full diag
   1    -26.3885186 -0.263885E+02  0.302E-02    3.84       0.0  T
   2    -26.3885187 -0.155717E-06  0.180E-02    3.84       1.3  T
   3    -26.3885172  0.148331E-05  0.124E-02    3.84       1.9  T
   4    -26.3885190 -0.180276E-05  0.938E-04    3.84      25.1  T
   5    -26.3885190 -0.227273E-08  0.461E-04    3.84      51.1  T
   6    -26.3885190 -0.197875E-09  0.130E-04    3.84     181.6  T
     SCC iter.                  ...        0 min,  0.005 sec
     gradient                   ...        0 min,  0.002 sec
 * total energy  :   -26.0613218 Eh     change       -0.5171186E-04 Eh
   gradient norm :     0.0039570 Eh/α   predicted    -0.3490004E-04 ( -32.51%)
   displ. norm   :     0.1246448 α      lambda       -0.6936466E-04
   maximum displ.:     0.0731620 α      in ANC's #2, #5, #8, ...

........................................................................
.............................. CYCLE    8 ..............................
........................................................................

 iter      E             dE          RMSdq      gap      omega  full diag
   1    -26.3887922 -0.263888E+02  0.376E-02    3.84       0.0  T
   2    -26.3887926 -0.396892E-06  0.226E-02    3.84       1.0  T
   3    -26.3887911  0.156905E-05  0.124E-02    3.84       1.9  T
   4    -26.3887929 -0.181485E-05  0.166E-03    3.84      14.2  T
   5    -26.3887929 -0.312620E-07  0.595E-04    3.84      39.6  T
   6    -26.3887929 -0.762917E-09  0.284E-04    3.84      82.9  T
     SCC iter.                  ...        0 min,  0.005 sec
     gradient                   ...        0 min,  0.001 sec
 * total energy  :   -26.0613718 Eh     change       -0.5001148E-04 Eh
   gradient norm :     0.0032908 Eh/α   predicted    -0.3522229E-04 ( -29.57%)
   displ. norm   :     0.1260486 α      lambda       -0.5335011E-04
   maximum displ.:     0.0815392 α      in ANC's #2, #5, #8, ...

........................................................................
.............................. CYCLE    9 ..............................
........................................................................

 iter      E             dE          RMSdq      gap      omega  full diag
   1    -26.3888742 -0.263889E+02  0.376E-02    3.84       0.0  T
   2    -26.3888747 -0.464133E-06  0.223E-02    3.84       1.1  T
   3    -26.3888745  0.189753E-06  0.514E-03    3.84       4.6  T
   4    -26.3888747 -0.207134E-06  0.203E-03    3.84      11.6  T
   5    -26.3888747 -0.529496E-07  0.606E-04    3.84      38.9  T
   6    -26.3888747 -0.144926E-08  0.301E-04    3.84      78.2  T
     SCC iter.                  ...        0 min,  0.005 sec
     gradient                   ...        0 min,  0.001 sec
 * total energy  :   -26.0614131 Eh     change       -0.4127896E-04 Eh
   gradient norm :     0.0026699 Eh/α   predicted    -0.2709991E-04 ( -34.35%)
   displ. norm   :     0.1457738 α      lambda       -0.5595228E-04
   maximum displ.:     0.0990115 α      in ANC's #2, #5, #8, ...

........................................................................
.............................. CYCLE   10 ..............................
........................................................................

 iter      E             dE          RMSdq      gap      omega  full diag
   1    -26.3888925 -0.263889E+02  0.458E-02    3.84       0.0  T
   2    -26.3888929 -0.352853E-06  0.271E-02    3.84       1.0  T
   3    -26.3888927  0.211265E-06  0.479E-03    3.84       4.9  T
   4    -26.3888929 -0.239109E-06  0.210E-03    3.84      11.2  T
   5    -26.3888930 -0.518885E-07  0.657E-04    3.84      35.9  T
   6    -26.3888930 -0.504038E-09  0.287E-04    3.84      82.1  T
     SCC iter.                  ...        0 min,  0.005 sec
     gradient                   ...        0 min,  0.001 sec
 * total energy  :   -26.0614548 Eh     change       -0.4171460E-04 Eh
   gradient norm :     0.0023754 Eh/α   predicted    -0.2857063E-04 ( -31.51%)
   displ. norm   :     0.1370359 α      lambda       -0.4171349E-04
   maximum displ.:     0.0975065 α      in ANC's #2, #5, #1, ...

........................................................................
.............................. CYCLE   11 ..............................
........................................................................

 iter      E             dE          RMSdq      gap      omega  full diag
   1    -26.3888792 -0.263889E+02  0.421E-02    3.84       0.0  T
   2    -26.3888794 -0.127929E-06  0.250E-02    3.84       1.0  T
   3    -26.3888789  0.426444E-06  0.606E-03    3.84       3.9  T
   4    -26.3888794 -0.498270E-06  0.103E-03    3.84      22.9  T
   5    -26.3888794 -0.459468E-08  0.498E-04    3.84      47.3  T
   6    -26.3888794 -0.374243E-09  0.165E-04    3.84     142.9  T
     SCC iter.                  ...        0 min,  0.005 sec
     gradient                   ...        0 min,  0.001 sec
 * total energy  :   -26.0614854 Eh     change       -0.3062232E-04 Eh
   gradient norm :     0.0026964 Eh/α   predicted    -0.2125029E-04 ( -30.61%)
   displ. norm   :     0.1253303 α      lambda       -0.3480668E-04
   maximum displ.:     0.0877451 α      in ANC's #2, #4, #5, ...

........................................................................
.............................. CYCLE   12 ..............................
........................................................................

 iter      E             dE          RMSdq      gap      omega  full diag
   1    -26.3890858 -0.263891E+02  0.405E-02    3.84       0.0  T
   2    -26.3890859 -0.154710E-06  0.241E-02    3.84       1.0  T
   3    -26.3890857  0.212758E-06  0.456E-03    3.84       5.2  T
   4    -26.3890860 -0.250417E-06  0.120E-03    3.84      19.6  T
   5    -26.3890860 -0.153787E-07  0.534E-04    3.84      44.1  T
   6    -26.3890860 -0.689823E-09  0.205E-04    3.84     115.2  T
     SCC iter.                  ...        0 min,  0.005 sec
     gradient                   ...        0 min,  0.001 sec
 * total energy  :   -26.0615112 Eh     change       -0.2574965E-04 Eh
   gradient norm :     0.0028715 Eh/α   predicted    -0.1767696E-04 ( -31.35%)
   displ. norm   :     0.1623280 α      lambda       -0.3979952E-04
   maximum displ.:     0.1148305 α      in ANC's #2, #4, #5, ...

........................................................................
.............................. CYCLE   13 ..............................
........................................................................

 iter      E             dE          RMSdq      gap      omega  full diag
   1    -26.3886901 -0.263887E+02  0.495E-02    3.84       0.0  T
   2    -26.3886904 -0.308027E-06  0.295E-02    3.84       1.0  T
   3    -26.3886902  0.175238E-06  0.417E-03    3.84       5.6  T
   4    -26.3886904 -0.201965E-06  0.186E-03    3.84      12.7  T
   5    -26.3886905 -0.398744E-07  0.597E-04    3.84      39.5  T
   6    -26.3886905 -0.573706E-09  0.291E-04    3.84      81.1  T
     SCC iter.                  ...        0 min,  0.005 sec
     gradient                   ...        0 min,  0.001 sec
 * total energy  :   -26.0615392 Eh     change       -0.2801053E-04 Eh
   gradient norm :     0.0030771 Eh/α   predicted    -0.2042477E-04 ( -27.08%)
   displ. norm   :     0.1828421 α      lambda       -0.6219638E-04
   maximum displ.:     0.1088997 α      in ANC's #2, #4, #1, ...

........................................................................
.............................. CYCLE   14 ..............................
........................................................................

 iter      E             dE          RMSdq      gap      omega  full diag
   1    -26.3898889 -0.263899E+02  0.587E-02    3.85       0.0  T
   2    -26.3898894 -0.522186E-06  0.347E-02    3.84       1.0  T
   3    -26.3898885  0.917600E-06  0.865E-03    3.84       2.7  T
   4    -26.3898895 -0.100727E-05  0.256E-03    3.84       9.2  T
   5    -26.3898895 -0.704622E-07  0.753E-04    3.84      31.3  T
   6    -26.3898895 -0.798728E-09  0.369E-04    3.84      63.9  T
     SCC iter.                  ...        0 min,  0.005 sec
     gradient                   ...        0 min,  0.001 sec
 * total energy  :   -26.0615722 Eh     change       -0.3301076E-04 Eh
   gradient norm :     0.0039999 Eh/α   predicted    -0.3213628E-04 (  -2.65%)
   displ. norm   :     0.1685160 α      lambda       -0.5446379E-04
   maximum displ.:     0.1085519 α      in ANC's #2, #4, #5, ...

........................................................................
.............................. CYCLE   15 ..............................
........................................................................

 iter      E             dE          RMSdq      gap      omega  full diag
   1    -26.3884659 -0.263885E+02  0.531E-02    3.85       0.0  T
   2    -26.3884669 -0.100906E-05  0.313E-02    3.85       1.0  T
   3    -26.3884648  0.206126E-05  0.139E-02    3.84       1.7  T
   4    -26.3884671 -0.229479E-05  0.264E-03    3.85       8.9  T
   5    -26.3884672 -0.801006E-07  0.677E-04    3.85      34.8  T
   6    -26.3884672 -0.188912E-09  0.184E-04    3.85     128.4  T
     SCC iter.                  ...        0 min,  0.005 sec
     gradient                   ...        0 min,  0.001 sec
 * total energy  :   -26.0616025 Eh     change       -0.3030899E-04 Eh
   gradient norm :     0.0043195 Eh/α   predicted    -0.2800684E-04 (  -7.60%)
   displ. norm   :     0.0605186 α      lambda       -0.7739235E-04
   maximum displ.:     0.0399508 α      in ANC's #4, #3, #32, ...

........................................................................
.............................. CYCLE   16 ..............................
........................................................................

 iter      E             dE          RMSdq      gap      omega  full diag
   1    -26.3901425 -0.263901E+02  0.308E-02    3.85       0.0  T
   2    -26.3901435 -0.956420E-06  0.177E-02    3.85       1.3  T
   3    -26.3901426  0.888131E-06  0.123E-02    3.85       1.9  T
   4    -26.3901439 -0.135152E-05  0.268E-03    3.85       8.8  T
   5    -26.3901440 -0.509421E-07  0.854E-04    3.85      27.6  T
   6    -26.3901440 -0.308514E-09  0.289E-04    3.85      81.6  T
     SCC iter.                  ...        0 min,  0.005 sec
     gradient                   ...        0 min,  0.002 sec
 * total energy  :   -26.0616176 Eh     change       -0.1507693E-04 Eh
   gradient norm :     0.0049622 Eh/α   predicted    -0.3883671E-04 ( 157.59%)
   displ. norm   :     0.1972133 α      lambda       -0.9920364E-04
   maximum displ.:     0.1416415 α      in ANC's #4, #2, #5, ...

........................................................................
.............................. CYCLE   17 ..............................
........................................................................

 iter      E             dE          RMSdq      gap      omega  full diag
   1    -26.3890350 -0.263890E+02  0.588E-02    3.85       0.0  T
   2    -26.3890377 -0.266976E-05  0.345E-02    3.85       1.0  T
   3    -26.3890349  0.278026E-05  0.185E-02    3.85       1.3  T
   4    -26.3890382 -0.324475E-05  0.435E-03    3.85       5.4  T
   5    -26.3890384 -0.229580E-06  0.106E-03    3.85      22.3  T
   6    -26.3890384 -0.305279E-08  0.475E-04    3.85      49.6  T
   7    -26.3890384 -0.416637E-09  0.119E-04    3.85     198.7  T
     SCC iter.                  ...        0 min,  0.006 sec
     gradient                   ...        0 min,  0.001 sec
 * total energy  :   -26.0616703 Eh     change       -0.5271675E-04 Eh
   gradient norm :     0.0048130 Eh/α   predicted    -0.5152997E-04 (  -2.25%)
   displ. norm   :     0.0399077 α      lambda       -0.3851316E-04
   maximum displ.:     0.0289180 α      in ANC's #2, #3, #4, ...

........................................................................
.............................. CYCLE   18 ..............................
........................................................................

 iter      E             dE          RMSdq      gap      omega  full diag
   1    -26.3894851 -0.263895E+02  0.194E-02    3.85       0.0  T
   2    -26.3894852 -0.131157E-06  0.115E-02    3.85       2.1  T
   3    -26.3894847  0.514806E-06  0.720E-03    3.85       3.3  T
   4    -26.3894853 -0.612676E-06  0.729E-04    3.85      32.3  T
   5    -26.3894853 -0.448314E-08  0.272E-04    3.85      86.8  T
     SCC iter.                  ...        0 min,  0.004 sec
     gradient                   ...        0 min,  0.001 sec
 * total energy  :   -26.0617006 Eh     change       -0.3032498E-04 Eh
   gradient norm :     0.0031820 Eh/α   predicted    -0.1928626E-04 ( -36.40%)
   displ. norm   :     0.1985603 α      lambda       -0.9682082E-04
   maximum displ.:     0.1723286 α      in ANC's #4, #5, #30, ...

........................................................................
.............................. CYCLE   19 ..............................
........................................................................

 iter      E             dE          RMSdq      gap      omega  full diag
   1    -26.3889856 -0.263890E+02  0.664E-02    3.85       0.0  T
   2    -26.3889860 -0.424199E-06  0.393E-02    3.85       1.0  T
   3    -26.3889857  0.261015E-06  0.523E-03    3.85       4.5  T
   4    -26.3889860 -0.306475E-06  0.211E-03    3.85      11.2  T
   5    -26.3889861 -0.512611E-07  0.724E-04    3.85      32.6  T
   6    -26.3889861 -0.592767E-09  0.275E-04    3.85      85.8  T
     SCC iter.                  ...        0 min,  0.005 sec
     gradient                   ...        0 min,  0.001 sec
 * total energy  :   -26.0617643 Eh     change       -0.6365019E-04 Eh
   gradient norm :     0.0046737 Eh/α   predicted    -0.5031923E-04 ( -20.94%)
   displ. norm   :     0.1642998 α      lambda       -0.9869474E-04
   maximum displ.:     0.1155369 α      in ANC's #4, #2, #3, ...

........................................................................
.............................. CYCLE   20 ..............................
........................................................................

 iter      E             dE          RMSdq      gap      omega  full diag
   1    -26.3900632 -0.263901E+02  0.628E-02    3.86       0.0  T
   2    -26.3900641 -0.900986E-06  0.369E-02    3.86       1.0  T
   3    -26.3900634  0.746995E-06  0.860E-03    3.86       2.7  T
   4    -26.3900642 -0.804484E-06  0.265E-03    3.86       8.9  T
   5    -26.3900643 -0.911737E-07  0.766E-04    3.86      30.8  T
   6    -26.3900643 -0.857327E-09  0.302E-04    3.86      78.2  T
     SCC iter.                  ...        0 min,  0.005 sec
     gradient                   ...        0 min,  0.001 sec
 * total energy  :   -26.0618121 Eh     change       -0.4781144E-04 Eh
   gradient norm :     0.0047192 Eh/α   predicted    -0.5067926E-04 (   6.00%)
   displ. norm   :     0.2525020 α      lambda       -0.8323888E-04
   maximum displ.:     0.2241614 α      in ANC's #4, #5, #1, ...
 * RMSD in coord.:     0.4656081 α      energy gain  -0.1781014E-01 Eh

generating ANC from exact Hessian ...
Using Lindh-Hessian (1995)
 Shifting diagonal of input Hessian by   8.394890100650011E-003
 Lowest  eigenvalues of input Hessian
    0.000000    0.000000    0.000000    0.000000    0.000000    0.000000
    0.010000    0.011165    0.012315    0.017293    0.018945    0.021072
    0.022001    0.027124    0.028287    0.036019    0.042825    0.054308
 Highest eigenvalues
    1.273331    1.277342    1.469066    1.829023    1.921060    2.379276
 

........................................................................
.............................. CYCLE   21 ..............................
........................................................................

 iter      E             dE          RMSdq      gap      omega  full diag
   1    -26.3876803 -0.263877E+02  0.776E-02    3.86       0.0  T
   2    -26.3876831 -0.286142E-05  0.455E-02    3.86       1.0  T
   3    -26.3876802  0.292229E-05  0.174E-02    3.86       1.4  T
   4    -26.3876833 -0.314581E-05  0.466E-03    3.86       5.1  T
   5    -26.3876836 -0.282252E-06  0.110E-03    3.86      21.4  T
   6    -26.3876836 -0.189263E-08  0.399E-04    3.86      59.0  T
   7    -26.3876836 -0.254889E-09  0.794E-05    3.86     296.9  T
     SCC iter.                  ...        0 min,  0.006 sec
     gradient                   ...        0 min,  0.001 sec
 * total energy  :   -26.0618296 Eh     change       -0.1746958E-04 Eh
   gradient norm :     0.0071007 Eh/α   predicted     0.0000000E+00 (-100.00%)
   displ. norm   :     0.0273531 α      lambda       -0.1046977E-03
   maximum displ.:     0.0104152 α      in ANC's #2, #8, #31, ...

........................................................................
.............................. CYCLE   22 ..............................
........................................................................

 iter      E             dE          RMSdq      gap      omega  full diag
   1    -26.3897673 -0.263898E+02  0.265E-02    3.86       0.0  T
   2    -26.3897679 -0.599366E-06  0.150E-02    3.86       1.6  T
   3    -26.3897677  0.180274E-06  0.577E-03    3.86       4.1  T
   4    -26.3897679 -0.211388E-06  0.251E-03    3.86       9.4  T
   5    -26.3897680 -0.686394E-07  0.701E-04    3.86      33.6  T
   6    -26.3897680 -0.287312E-09  0.185E-04    3.86     127.5  T
     SCC iter.                  ...        0 min,  0.005 sec
     gradient                   ...        0 min,  0.001 sec
 * total energy  :   -26.0618944 Eh     change       -0.6483906E-04 Eh
   gradient norm :     0.0024273 Eh/α   predicted    -0.5238846E-04 ( -19.20%)
   displ. norm   :     0.0229114 α      lambda       -0.1836370E-04
   maximum displ.:     0.0105334 α      in ANC's #2, #4, #5, ...

........................................................................
.............................. CYCLE   23 ..............................
........................................................................

 iter      E             dE          RMSdq      gap      omega  full diag
   1    -26.3903938 -0.263904E+02  0.143E-02    3.86       0.0  T
   2    -26.3903939 -0.449811E-07  0.852E-03    3.86       2.8  T
   3    -26.3903937  0.226809E-06  0.452E-03    3.86       5.2  T
   4    -26.3903939 -0.265394E-06  0.633E-04    3.86      37.3  T
   5    -26.3903939 -0.208339E-08  0.251E-04    3.86      93.8  T
     SCC iter.                  ...        0 min,  0.004 sec
     gradient                   ...        0 min,  0.001 sec
 * total energy  :   -26.0619054 Eh     change       -0.1103604E-04 Eh
   gradient norm :     0.0009529 Eh/α   predicted    -0.9186552E-05 ( -16.76%)
   displ. norm   :     0.0451461 α      lambda       -0.9277023E-05
   maximum displ.:     0.0238597 α      in ANC's #4, #2, #5, ...

........................................................................
.............................. CYCLE   24 ..............................
........................................................................

 iter      E             dE          RMSdq      gap      omega  full diag
   1    -26.3905193 -0.263905E+02  0.192E-02    3.86       0.0  T
   2    -26.3905194 -0.487544E-07  0.115E-02    3.86       2.1  T
   3    -26.3905192  0.196311E-06  0.402E-03    3.86       5.9  T
   4    -26.3905194 -0.220920E-06  0.576E-04    3.86      41.0  T
   5    -26.3905194 -0.257238E-08  0.232E-04    3.86     101.8  T
     SCC iter.                  ...        0 min,  0.004 sec
     gradient                   ...        0 min,  0.001 sec
 * total energy  :   -26.0619131 Eh     change       -0.7697627E-05 Eh
   gradient norm :     0.0015361 Eh/α   predicted    -0.4641501E-05 ( -39.70%)
   displ. norm   :     0.0626547 α      lambda       -0.9939718E-05
   maximum displ.:     0.0350206 α      in ANC's #4, #5, #2, ...

........................................................................
.............................. CYCLE   25 ..............................
........................................................................

 iter      E             dE          RMSdq      gap      omega  full diag
   1    -26.3901575 -0.263902E+02  0.207E-02    3.86       0.0  T
   2    -26.3901577 -0.110955E-06  0.124E-02    3.86       1.9  T
   3    -26.3901576  0.389122E-07  0.226E-03    3.86      10.4  T
   4    -26.3901577 -0.447704E-07  0.108E-03    3.86      21.9  T
   5    -26.3901577 -0.146142E-07  0.335E-04    3.86      70.4  T
   6    -26.3901577 -0.100190E-09  0.127E-04    3.86     185.8  T
     SCC iter.                  ...        0 min,  0.004 sec
     gradient                   ...        0 min,  0.001 sec
 * total energy  :   -26.0619239 Eh     change       -0.1073018E-04 Eh
   gradient norm :     0.0018786 Eh/α   predicted    -0.4977029E-05 ( -53.62%)
   displ. norm   :     0.1264355 α      lambda       -0.1584621E-04
   maximum displ.:     0.0773696 α      in ANC's #4, #5, #2, ...

........................................................................
.............................. CYCLE   26 ..............................
........................................................................

 iter      E             dE          RMSdq      gap      omega  full diag
   1    -26.3894336 -0.263894E+02  0.379E-02    3.86       0.0  T
   2    -26.3894339 -0.317255E-06  0.225E-02    3.86       1.0  T
   3    -26.3894339 -0.393397E-07  0.214E-03    3.86      11.0  T
   4    -26.3894339 -0.168671E-07  0.869E-04    3.86      27.1  T
   5    -26.3894339 -0.118419E-09  0.614E-04    3.86      38.4  T
     SCC iter.                  ...        0 min,  0.003 sec
     gradient                   ...        0 min,  0.001 sec
 * total energy  :   -26.0619372 Eh     change       -0.1336021E-04 Eh
   gradient norm :     0.0029053 Eh/α   predicted    -0.7978479E-05 ( -40.28%)
   displ. norm   :     0.0418055 α      lambda       -0.1166812E-04
   maximum displ.:     0.0251405 α      in ANC's #4, #5, #2, ...

........................................................................
.............................. CYCLE   27 ..............................
........................................................................

 iter      E             dE          RMSdq      gap      omega  full diag
   1    -26.3895462 -0.263895E+02  0.140E-02    3.86       0.0  T
   2    -26.3895462 -0.160161E-07  0.834E-03    3.86       2.8  T
   3    -26.3895462  0.160985E-07  0.138E-03    3.86      17.1  T
   4    -26.3895462 -0.245597E-07  0.403E-04    3.86      58.5  T
   5    -26.3895462 -0.682657E-09  0.202E-04    3.86     117.0  T
     SCC iter.                  ...        0 min,  0.003 sec
     gradient                   ...        0 min,  0.001 sec
 * total energy  :   -26.0619473 Eh     change       -0.1003620E-04 Eh
   gradient norm :     0.0024863 Eh/α   predicted    -0.5843527E-05 ( -41.78%)
   displ. norm   :     0.1402454 α      lambda       -0.3822907E-04
   maximum displ.:     0.0874130 α      in ANC's #4, #5, #6, ...

........................................................................
.............................. CYCLE   28 ..............................
........................................................................

 iter      E             dE          RMSdq      gap      omega  full diag
   1    -26.3899167 -0.263899E+02  0.450E-02    3.85       0.0  T
   2    -26.3899170 -0.253676E-06  0.267E-02    3.86       1.0  T
   3    -26.3899169  0.504464E-07  0.344E-03    3.86       6.9  T
   4    -26.3899170 -0.119980E-06  0.159E-03    3.86      14.8  T
   5    -26.3899170 -0.212493E-07  0.794E-04    3.86      29.7  T
   6    -26.3899171 -0.168301E-08  0.282E-04    3.86      83.6  T
     SCC iter.                  ...        0 min,  0.004 sec
     gradient                   ...        0 min,  0.001 sec
 * total energy  :   -26.0619720 Eh     change       -0.2477833E-04 Eh
   gradient norm :     0.0018730 Eh/α   predicted    -0.1949221E-04 ( -21.33%)
   displ. norm   :     0.1380842 α      lambda       -0.1413192E-04
   maximum displ.:     0.0872925 α      in ANC's #4, #5, #6, ...

........................................................................
.............................. CYCLE   29 ..............................
........................................................................

 iter      E             dE          RMSdq      gap      omega  full diag
   1    -26.3898245 -0.263898E+02  0.440E-02    3.85       0.0  T
   2    -26.3898247 -0.262410E-06  0.262E-02    3.85       1.0  T
   3    -26.3898247  0.197290E-07  0.313E-03    3.85       7.5  T
   4    -26.3898248 -0.108264E-06  0.131E-03    3.85      18.0  T
   5    -26.3898248 -0.471595E-08  0.851E-04    3.85      27.7  T
   6    -26.3898248 -0.424414E-08  0.292E-04    3.85      80.7  T
     SCC iter.                  ...        0 min,  0.004 sec
     gradient                   ...        0 min,  0.001 sec
 * total energy  :   -26.0619855 Eh     change       -0.1350373E-04 Eh
   gradient norm :     0.0021189 Eh/α   predicted    -0.7127194E-05 ( -47.22%)
   displ. norm   :     0.0422755 α      lambda       -0.1603228E-04
   maximum displ.:     0.0246044 α      in ANC's #5, #4, #6, ...

........................................................................
.............................. CYCLE   30 ..............................
........................................................................

 iter      E             dE          RMSdq      gap      omega  full diag
   1    -26.3908159 -0.263908E+02  0.194E-02    3.85       0.0  T
   2    -26.3908161 -0.197824E-06  0.112E-02    3.85       2.1  T
   3    -26.3908161 -0.141286E-07  0.200E-03    3.85      11.8  T
   4    -26.3908161 -0.814893E-08  0.886E-04    3.85      26.6  T
   5    -26.3908161 -0.613921E-08  0.537E-04    3.85      43.9  T
     SCC iter.                  ...        0 min,  0.003 sec
     gradient                   ...        0 min,  0.001 sec
 * total energy  :   -26.0619899 Eh     change       -0.4370391E-05 Eh
   gradient norm :     0.0017405 Eh/α   predicted    -0.8028948E-05 (  83.71%)
   displ. norm   :     0.1659171 α      lambda       -0.1573722E-04
   maximum displ.:     0.1077107 α      in ANC's #4, #5, #6, ...

........................................................................
.............................. CYCLE   31 ..............................
........................................................................

 iter      E             dE          RMSdq      gap      omega  full diag
   1    -26.3895379 -0.263895E+02  0.546E-02    3.85       0.0  T
   2    -26.3895388 -0.923211E-06  0.323E-02    3.85       1.0  T
   3    -26.3895389 -0.414539E-07  0.426E-03    3.85       5.5  T
   4    -26.3895390 -0.734699E-07  0.207E-03    3.85      11.4  T
   5    -26.3895390 -0.366323E-07  0.113E-03    3.85      20.9  T
   6    -26.3895390 -0.352933E-08  0.443E-04    3.85      53.2  T
   7    -26.3895390 -0.133458E-08  0.929E-05    3.85     253.8  T
     SCC iter.                  ...        0 min,  0.004 sec
     gradient                   ...        0 min,  0.001 sec
 * total energy  :   -26.0619964 Eh     change       -0.6501349E-05 Eh
   gradient norm :     0.0023032 Eh/α   predicted    -0.7965244E-05 (  22.52%)
   displ. norm   :     0.0406945 α      lambda       -0.8865242E-05
   maximum displ.:     0.0251943 α      in ANC's #4, #5, #6, ...

........................................................................
.............................. CYCLE   32 ..............................
........................................................................

 iter      E             dE          RMSdq      gap      omega  full diag
   1    -26.3901138 -0.263901E+02  0.132E-02    3.85       0.0  T
   2    -26.3901139 -0.128516E-06  0.774E-03    3.85       3.0  T
   3    -26.3901139  0.527351E-08  0.187E-03    3.85      12.6  T
   4    -26.3901139 -0.164200E-07  0.466E-04    3.85      50.6  T
   5    -26.3901139 -0.132899E-08  0.277E-04    3.85      85.0  T
     SCC iter.                  ...        0 min,  0.003 sec
     gradient                   ...        0 min,  0.001 sec
 * total energy  :   -26.0620016 Eh     change       -0.5153764E-05 Eh
   gradient norm :     0.0008713 Eh/α   predicted    -0.4441823E-05 ( -13.81%)
   displ. norm   :     0.0415375 α      lambda       -0.3161273E-05
   maximum displ.:     0.0268467 α      in ANC's #4, #5, #9, ...

........................................................................
.............................. CYCLE   33 ..............................
........................................................................

 iter      E             dE          RMSdq      gap      omega  full diag
   1    -26.3904142 -0.263904E+02  0.170E-02    3.85       0.0  T
   2    -26.3904143 -0.465647E-07  0.100E-02    3.85       2.3  T
   3    -26.3904143  0.184954E-07  0.179E-03    3.85      13.2  T
   4    -26.3904143 -0.341051E-07  0.664E-04    3.85      35.5  T
   5    -26.3904143 -0.313047E-08  0.350E-04    3.85      67.3  T
     SCC iter.                  ...        0 min,  0.003 sec
     gradient                   ...        0 min,  0.001 sec
 * total energy  :   -26.0620050 Eh     change       -0.3395875E-05 Eh
   gradient norm :     0.0004875 Eh/α   predicted    -0.1581741E-05 ( -53.42%)
   displ. norm   :     0.1036694 α      lambda       -0.3741229E-05
   maximum displ.:     0.0694620 α      in ANC's #4, #5, #6, ...

   *** GEOMETRY OPTIMIZATION CONVERGED AFTER 33 ITERATIONS ***

------------------------------------------------------------------------
 total energy gain   :        -0.0180030 Eh      -11.2971 kcal/mol
 total RMSD          :         0.6119944 a0        0.3239 Å
 total power (kW/mol):        -1.4323305 (step) -192.7507 (real)
------------------------------------------------------------------------

 ANCopt (total)                0 d,  0 h,  0 min,  0.245 sec
 optimizer setup                ...        0 min,  0.000 sec (  0.044%)
 model hessian                  ...        0 min,  0.006 sec (  2.478%)
 ANC generation                 ...        0 min,  0.002 sec (  0.642%)
 coordinate transformation      ...        0 min,  0.000 sec (  0.094%)
 single point calculation       ...        0 min,  0.225 sec ( 91.698%)
 optimization log               ...        0 min,  0.003 sec (  1.402%)
 hessian update                 ...        0 min,  0.003 sec (  1.389%)
 rational function              ...        0 min,  0.004 sec (  1.703%)

================
 final structure:
================
18
 xtb: 6.7.1 (edcfbbe)
C            3.03225017626246        0.67985982159403        0.17560151646442
C            1.98310418973715       -0.41546941164027        0.15138812970653
O            0.69735605862505        0.19388559379451        0.03652680791377
C           -0.34925216180990       -0.64048913859224        0.01972509563985
O           -0.23521620937276       -1.84043358135406        0.10076432343925
C           -1.65463419697065        0.06451232965789       -0.10779069674304
C           -2.85042297953346       -0.82599956690682        0.00385942806520
C           -1.71696829925321        1.37502928766606       -0.31627262644163
H            2.85331985823522        1.34984385269773        1.01220904762383
H            2.99466783348901        1.25582363453457       -0.74502702431444
H            4.01886042634107        0.23783575877113        0.27851068406894
H            2.13080155090433       -1.09254228077296       -0.69792309196345
H            2.00965102483925       -1.01483760940638        1.06877407064792
H           -3.76627982075894       -0.27333439086527       -0.18307721117317
H           -2.76527241197336       -1.64622775419952       -0.70624446897597
H           -2.89124122580710       -1.26643951236851        0.99888208418780
H           -2.66212223880078        1.88247882019603       -0.41652576015654
H           -0.82860057415339        1.97650414719408       -0.39256130798941
 
 Bond Distances (Angstroems)
 ---------------------------
C1-C2=1.5169         C1-H9=1.0866         C1-H10=1.0866        C1-H11=1.0860        C2-C1=1.5169         C2-O3=1.4275         
C2-H12=1.0962        C2-H13=1.0961        O3-C2=1.4275         O3-C4=1.3386         C4-O3=1.3386         C4-O5=1.2081         
C4-C6=1.4891         O5-C4=1.2081         C6-C4=1.4891         C6-C7=1.4951         C6-C8=1.3285         C7-C6=1.4951         
C7-H14=1.0859        C7-H15=1.0882        C7-H16=1.0889        C8-C6=1.3285         C8-H17=1.0774        C8-H18=1.0755        
H9-C1=1.0866         H10-C1=1.0866        H11-C1=1.0860        H12-C2=1.0962        H13-C2=1.0961        H14-C7=1.0859        
H15-C7=1.0882        H16-C7=1.0889        H17-C8=1.0774        H18-C8=1.0755        
 C  H  Rav=1.0868 sigma=0.0063  Rmin=1.0755  Rmax=1.0962    10
 C  C  Rav=1.4574 sigma=0.0752  Rmin=1.3285  Rmax=1.5169     4
 O  C  Rav=1.3247 sigma=0.0901  Rmin=1.2081  Rmax=1.4275     3
 
 selected bond angles (degree)
 --------------------
H9-C1-C2=110.10                H10-C1-C2=110.20               H10-C1-H9=108.65               H11-C1-C2=109.63               
H11-C1-H9=109.12               H11-C1-H10=109.11              O3-C2-C1=108.42                H12-C2-C1=111.42               
H12-C2-O3=108.83               H13-C2-C1=111.39               H13-C2-O3=108.82               H13-C2-H12=107.91              
C4-O3-C2=116.05                O5-C4-O3=122.99                C6-C4-O3=113.04                C6-C4-O5=123.97                
C7-C6-C4=114.38                C8-C6-C4=121.44                C8-C6-C7=124.18                H14-C7-C6=111.01               
H15-C7-C6=109.73               H15-C7-H14=109.71              H16-C7-C6=109.82               H16-C7-H14=109.36              
H16-C7-H15=107.12              H17-C8-C6=121.36               H18-C8-C6=121.60               H18-C8-H17=117.04              
 
 selected dihedral angles (degree)
 ---------------------------------
O3-C2-C1-H9= 59.06            O3-C2-C1-H10=299.22           O3-C2-C1-H11=179.11           H12-C2-C1-H9=178.79           
H12-C2-C1-H10= 58.96          H12-C2-C1-H11=298.85          H13-C2-C1-H9=299.35           H13-C2-C1-H10=179.51          
H13-C2-C1-H11= 59.40          C4-O3-C2-C1=180.88            C4-O3-C2-H12= 59.54           C4-O3-C2-H13=302.19           
O5-C4-O3-C2=  0.27            C6-C4-O3-C2=180.25            C7-C6-C4-O3=185.65            C7-C6-C4-O5=  5.63            
C8-C6-C4-O3=  6.28            C8-C6-C4-O5=186.26            H14-C7-C6-C4=184.97           H14-C7-C6-C8=  4.33           
H15-C7-C6-C4=306.41           H15-C7-C6-C8=125.77           H16-C7-C6-C4= 63.91           H16-C7-C6-C8=243.26           
H17-C8-C6-C4=179.48           H17-C8-C6-C7=  0.17           H18-C8-C6-C4=359.49           H18-C8-C6-C7=180.18           
           -------------------------------------------------
          |                Final Singlepoint                |
           -------------------------------------------------

          ...................................................
          :                      SETUP                      :
          :.................................................:
          :  # basis functions                  42          :
          :  # atomic orbitals                  42          :
          :  # shells                           26          :
          :  # electrons                        46          :
          :  max. iterations                   250          :
          :  Hamiltonian                  GFN2-xTB          :
          :  restarted?                      false          :
          :  GBSA solvation                  false          :
          :  PC potential                    false          :
          :  electronic temp.          300.0000000     K    :
          :  accuracy                    1.0000000          :
          :  -> integral cutoff          0.2500000E+02      :
          :  -> integral neglect         0.1000000E-07      :
          :  -> SCF convergence          0.1000000E-05 Eh   :
          :  -> wf. convergence          0.1000000E-03 e    :
          :  Broyden damping             0.4000000          :
          :  net charge                          0          :
          :  unpaired electrons                  0          :
          ...................................................

 iter      E             dE          RMSdq      gap      omega  full diag
   1    -26.3904143 -0.263904E+02  0.117E-04    3.85       0.0  T
   2    -26.3904143 -0.435350E-10  0.763E-05    3.85     309.0  T
   3    -26.3904143 -0.287592E-10  0.509E-05    3.85     463.1  T

   *** convergence criteria satisfied after 3 iterations ***

         #    Occupation            Energy/Eh            Energy/eV
      -------------------------------------------------------------
         1        2.0000           -0.7375078             -20.0686
       ...           ...                  ...                  ...
        17        2.0000           -0.4721733             -12.8485
        18        2.0000           -0.4693085             -12.7705
        19        2.0000           -0.4644682             -12.6388
        20        2.0000           -0.4540151             -12.3544
        21        2.0000           -0.4370126             -11.8917
        22        2.0000           -0.4157579             -11.3133
        23        2.0000           -0.4083494             -11.1118 (HOMO)
        24                         -0.2668953              -7.2626 (LUMO)
        25                         -0.1598911              -4.3509
        26                          0.0062553               0.1702
        27                          0.0982749               2.6742
        28                          0.1135734               3.0905
       ...                                ...                  ...
        42                          0.7002640              19.0552
      -------------------------------------------------------------
                  HL-Gap            0.1414540 Eh            3.8492 eV
             Fermi-level           -0.3376223 Eh           -9.1872 eV

 SCC (total)                   0 d,  0 h,  0 min,  0.004 sec
 SCC setup                      ...        0 min,  0.000 sec (  5.875%)
 Dispersion                     ...        0 min,  0.000 sec (  2.016%)
 classical contributions        ...        0 min,  0.000 sec (  0.821%)
 integral evaluation            ...        0 min,  0.000 sec (  9.556%)
 iterations                     ...        0 min,  0.002 sec ( 45.417%)
 molecular gradient             ...        0 min,  0.001 sec ( 33.499%)
 printout                       ...        0 min,  0.000 sec (  2.340%)

         :::::::::::::::::::::::::::::::::::::::::::::::::::::
         ::                     SUMMARY                     ::
         :::::::::::::::::::::::::::::::::::::::::::::::::::::
         :: total energy             -26.062004957013 Eh    ::
         :: gradient norm              0.000487260029 Eh/a0 ::
         :: HOMO-LUMO gap              3.849160225633 eV    ::
         ::.................................................::
         :: SCC energy               -26.390408731183 Eh    ::
         :: -> isotropic ES            0.046759720181 Eh    ::
         :: -> anisotropic ES          0.001946040973 Eh    ::
         :: -> anisotropic XC          0.008152332204 Eh    ::
         :: -> dispersion             -0.010767750160 Eh    ::
         :: repulsion energy           0.328403774170 Eh    ::
         :: add. restraining           0.000000000000 Eh    ::
         :: total charge               0.000000000000 e     ::
         :::::::::::::::::::::::::::::::::::::::::::::::::::::

           -------------------------------------------------
          |                Property Printout                |
           -------------------------------------------------

    * Orbital Energies and Occupations

         #    Occupation            Energy/Eh            Energy/eV
      -------------------------------------------------------------
         1        2.0000           -0.7375078             -20.0686
       ...           ...                  ...                  ...
        11        2.0000           -0.5346172             -14.5477
        12        2.0000           -0.5233314             -14.2406
        13        2.0000           -0.5041931             -13.7198
        14        2.0000           -0.4929285             -13.4133
        15        2.0000           -0.4885429             -13.2939
        16        2.0000           -0.4818461             -13.1117
        17        2.0000           -0.4721733             -12.8485
        18        2.0000           -0.4693085             -12.7705
        19        2.0000           -0.4644682             -12.6388
        20        2.0000           -0.4540151             -12.3544
        21        2.0000           -0.4370126             -11.8917
        22        2.0000           -0.4157579             -11.3133
        23        2.0000           -0.4083494             -11.1118 (HOMO)
        24                         -0.2668953              -7.2626 (LUMO)
        25                         -0.1598911              -4.3509
        26                          0.0062553               0.1702
        27                          0.0982749               2.6742
        28                          0.1135734               3.0905
        29                          0.1194688               3.2509
        30                          0.1440029               3.9185
        31                          0.1448667               3.9420
        32                          0.1703642               4.6358
        33                          0.1807987               4.9198
        34                          0.1872427               5.0951
       ...                                ...                  ...
        42                          0.7002640              19.0552
      -------------------------------------------------------------
                  HL-Gap            0.1414540 Eh            3.8492 eV
             Fermi-level           -0.3376223 Eh           -9.1872 eV

     #   Z          covCN         q      C6AA      α(0)
     1   6 C        3.751    -0.115    22.772     6.805
     2   6 C        3.704     0.086    19.292     6.280
     3   8 O        1.704    -0.268    18.448     5.799
     4   6 C        2.730     0.349    21.069     7.515
     5   8 O        0.856    -0.418    22.037     6.294
     6   6 C        2.937    -0.008    28.207     8.710
     7   6 C        3.759    -0.110    22.657     6.786
     8   6 C        2.844    -0.082    30.054     8.984
     9   1 H        0.925     0.058     2.224     2.332
    10   1 H        0.925     0.057     2.231     2.336
    11   1 H        0.925     0.052     2.292     2.368
    12   1 H        0.924     0.050     2.317     2.380
    13   1 H        0.924     0.051     2.308     2.376
    14   1 H        0.925     0.050     2.319     2.381
    15   1 H        0.925     0.068     2.113     2.273
    16   1 H        0.925     0.063     2.166     2.302
    17   1 H        0.926     0.055     2.262     2.352
    18   1 H        0.926     0.062     2.173     2.305

 Mol. C6AA /au·bohr⁶  :       2821.645305
 Mol. C8AA /au·bohr⁸  :      62194.512531
 Mol. α(0) /au        :         80.577474


Wiberg/Mayer (AO) data.
largest (>0.10) Wiberg bond orders for each atom

 ---------------------------------------------------------------------------
     #   Z sym  total        # sym  WBO       # sym  WBO       # sym  WBO
 ---------------------------------------------------------------------------
     1   6 C    3.992 --     2 C    1.019    10 H    0.986     9 H    0.985
                            11 H    0.984
     2   6 C    3.929 --     1 C    1.019    12 H    0.968    13 H    0.968
                             3 O    0.939
     3   8 O    2.302 --     4 C    1.125     2 C    0.939     5 O    0.171
     4   6 C    3.917 --     5 O    1.725     3 O    1.125     6 C    0.993
     5   8 O    2.027 --     4 C    1.725     3 O    0.171
     6   6 C    3.986 --     8 C    1.879     7 C    1.030     4 C    0.993
     7   6 C    3.994 --     6 C    1.030    14 H    0.985    15 H    0.967
                            16 H    0.966
     8   6 C    3.989 --     6 C    1.879    17 H    0.974    18 H    0.973
     9   1 H    0.997 --     1 C    0.985
    10   1 H    0.997 --     1 C    0.986
    11   1 H    0.996 --     1 C    0.984
    12   1 H    0.997 --     2 C    0.968
    13   1 H    0.997 --     2 C    0.968
    14   1 H    0.997 --     7 C    0.985
    15   1 H    0.995 --     7 C    0.967
    16   1 H    0.996 --     7 C    0.966
    17   1 H    0.997 --     8 C    0.974
    18   1 H    0.996 --     8 C    0.973
 ---------------------------------------------------------------------------

Topologies differ in total number of bonds
Writing topology from bond orders to xtbtopo.mol

molecular dipole:
                 x           y           z       tot (Debye)
 q only:        0.151       0.819      -0.033
   full:        0.162       0.858      -0.034       2.220
molecular quadrupole (traceless):
                xx          xy          yy          xz          yz          zz
 q only:        9.179      -0.171      -6.721       0.635       0.056      -2.458
  q+dip:        8.156      -1.392      -7.049       0.485      -0.118      -1.107
   full:        8.271      -1.130      -8.044       0.461       0.163      -0.228

           -------------------------------------------------
          |                Geometry Summary                 |
           -------------------------------------------------

      molecular mass/u    :      114.1426327
   center of mass at/Å    :       -0.0892861      -0.1933688       0.0134276
  moments of inertia/u·Å² :        0.1149349E+03   0.4223716E+03   0.5271579E+03
rotational constants/cm⁻¹ :        0.1466711E+00   0.3991185E-01   0.3197833E-01

 * 15 selected distances

     #   Z          #   Z                                           value/Å
     1   6 C        2   6 C                                       1.5169180 (max)
     2   6 C        3   8 O                                       1.4274646
     3   8 O        4   6 C                                       1.3386010
     4   6 C        5   8 O                                       1.2080722
     6   6 C        8   6 C                                       1.3284597
     1   6 C        9   1 H                                       1.0866495
     1   6 C       10   1 H                                       1.0866020
     1   6 C       11   1 H                                       1.0859906
     2   6 C       12   1 H                                       1.0961624
     2   6 C       13   1 H                                       1.0961497
     7   6 C       14   1 H                                       1.0858997
     7   6 C       15   1 H                                       1.0882429
     7   6 C       16   1 H                                       1.0889094
     8   6 C       17   1 H                                       1.0774377
     8   6 C       18   1 H                                       1.0755414 (min)

 * 3 distinct bonds (by element types)

   Z      Z             #   av. dist./Å        max./Å        min./Å
   1 H    6 C          10     1.0867585     1.0961624     1.0755414
   6 C    6 C           2     1.4226889     1.5169180     1.3284597
   6 C    8 O           3     1.3247126     1.4274646     1.2080722


optimized geometry written to: xtbopt.xyz


           -------------------------------------------------
          | TOTAL ENERGY              -26.062004957013 Eh   |
          | GRADIENT NORM               0.000487260029 Eh/α |
          | HOMO-LUMO GAP               3.849160225633 eV   |
           -------------------------------------------------

------------------------------------------------------------------------
 * finished run on 2025/12/01 at 14:19:27.393     
------------------------------------------------------------------------
 total:
 * wall-time:     0 d,  0 h,  0 min,  0.294 sec
 *  cpu-time:     0 d,  0 h,  0 min,  6.289 sec
 * ratio c/w:    21.363 speedup
 SCF:
 * wall-time:     0 d,  0 h,  0 min,  0.017 sec
 *  cpu-time:     0 d,  0 h,  0 min,  0.376 sec
 * ratio c/w:    21.563 speedup
 ANC optimizer:
 * wall-time:     0 d,  0 h,  0 min,  0.250 sec
 *  cpu-time:     0 d,  0 h,  0 min,  5.684 sec
 * ratio c/w:    22.697 speedup

normal termination of xtb
