      -----------------------------------------------------------      
     |                   =====================                   |     
     |                           x T B                           |     
     |                   =====================                   |     
     |                         S. Grimme                         |     
     |          Mulliken Center for Theoretical Chemistry        |     
     |                    University of Bonn                     |     
      -----------------------------------------------------------      

   * xtb version 6.7.1 (edcfbbe) compiled by 'albert@albert-system' on 2024-07-22

   xtb is free software: you can redistribute it and/or modify it under
   the terms of the GNU Lesser General Public License as published by
   the Free Software Foundation, either version 3 of the License, or
   (at your option) any later version.
   
   xtb is distributed in the hope that it will be useful,
   but WITHOUT ANY WARRANTY; without even the implied warranty of
   MERCHANTABILITY or FITNESS FOR A PARTICULAR PURPOSE.  See the
   GNU Lesser General Public License for more details.
   
   Cite this work as:
   * C. Bannwarth, E. Caldeweyher, S. Ehlert, A. Hansen, P. Pracht,
     J. Seibert, S. Spicher, S. Grimme, WIREs Comput. Mol. Sci., 2020, 11,
     e01493. DOI: 10.1002/wcms.1493
   
   for GFN2-xTB:
   * C. Bannwarth, S. Ehlert and S. Grimme., J. Chem. Theory Comput., 2019,
     15, 1652-1671. DOI: 10.1021/acs.jctc.8b01176
   for GFN1-xTB:
   * S. Grimme, C. Bannwarth, P. Shushkov, J. Chem. Theory Comput., 2017,
     13, 1989-2009. DOI: 10.1021/acs.jctc.7b00118
   for GFN0-xTB:
   * P. Pracht, E. Caldeweyher, S. Ehlert, S. Grimme, ChemRxiv, 2019, preprint.
     DOI: 10.26434/chemrxiv.8326202.v1
   for GFN-FF:
   * S. Spicher and S. Grimme, Angew. Chem. Int. Ed., 2020, 59, 15665-15673.
     DOI: 10.1002/anie.202004239
   
   for ALPB and GBSA implicit solvation:
   * S. Ehlert, M. Stahn, S. Spicher, S. Grimme, J. Chem. Theory Comput.,
     2021, 17, 4250-4261. DOI: 10.1021/acs.jctc.1c00471
   
   for ddCOSMO and CPCM-X implicit solvation:
   * M. Stahn, S. Ehlert, S. Grimme, J. Phys. Chem. A,
     2023, XX, XXXX-XXXX. DOI: 10.1021/acs.jpca.3c04382
   
   for DFT-D4:
   * E. Caldeweyher, C. Bannwarth and S. Grimme, J. Chem. Phys., 2017,
     147, 034112. DOI: 10.1063/1.4993215
   * E. Caldeweyher, S. Ehlert, A. Hansen, H. Neugebauer, S. Spicher,
     C. Bannwarth and S. Grimme, J. Chem. Phys., 2019, 150, 154122.
     DOI: 10.1063/1.5090222
   * E. Caldeweyher, J.-M. Mewes, S. Ehlert and S. Grimme, Phys. Chem. Chem. Phys.
     2020, 22, 8499-8512. DOI: 10.1039/D0CP00502A
   
   for sTDA-xTB:
   * S. Grimme and C. Bannwarth, J. Chem. Phys., 2016, 145, 054103.
     DOI: 10.1063/1.4959605
   
   in the mass-spec context:
   * V. Asgeirsson, C. Bauer and S. Grimme, Chem. Sci., 2017, 8, 4879.
     DOI: 10.1039/c7sc00601b
   * J. Koopman and S. Grimme, ACS Omega 2019, 4, 12, 15120-15133.
     DOI: 10.1021/acsomega.9b02011
   
   for metadynamics refer to:
   * S. Grimme, J. Chem. Theory Comput., 2019, 155, 2847-2862
     DOI: 10.1021/acs.jctc.9b00143
   
   for SPH calculations refer to:
   * S. Spicher and S. Grimme, J. Chem. Theory Comput., 2021, 17, 1701-1714
     DOI: 10.1021/acs.jctc.0c01306
   
   for ONIOM refer to:
   * C. Plett, A. Katbashev, S. Ehlert, S. Grimme, M. Bursch,
     Phys. Chem. Chem. Phys., 2023, 25, 17860-17868. DOI: 10.1039/D3CP02178E
   
   for DIPRO refer to:
   * J. Kohn, N. Gildemeister, S. Grimme, D. Fazzi, A. Hansen,
     J. Chem. Phys., 2023, just accepted.
   
   for PTB refer to:
   * S. Grimme, M. Mueller, A. Hansen, J. Chem. Phys., 2023, 158, 124111.
     DOI: 10.1063/5.0137838
   
   with help from (in alphabetical order)
   P. Atkinson, C. Bannwarth, F. Bohle, G. Brandenburg, E. Caldeweyher
   M. Checinski, S. Dohm, S. Ehlert, S. Ehrlich, I. Gerasimov, C. Hölzer
   A. Katbashev, J. Kohn, J. Koopman, C. Lavigne, S. Lehtola, F. März, M. Müller,
   F. Musil, H. Neugebauer, J. Pisarek, C. Plett, P. Pracht, F. Pultar,
   J. Seibert, P. Shushkov, S. Spicher, M. Stahn, M. Steiner, T. Strunk,
   J. Stückrath, T. Rose, and J. Unsleber
   
 * started run on 2025/12/01 at 14:19:35.159     
   ID    Z sym.   atoms
    1    8 O      1, 4, 6, 12, 15
    2    6 C      2, 3, 5, 7-11, 13, 14, 16-25
    3    1 H      26-47

           -------------------------------------------------
          |                Calculation Setup                |
           -------------------------------------------------

          program call               : xtb pipeline_data/3_conformer_xyz/acrylates/rdkit/UUHZUEBKUREPBP-MDWZMJQESA-N_conf106.xyz --opt --gfn 2-xTB --iterations 250
          coordinate file            : pipeline_data/3_conformer_xyz/acrylates/rdkit/UUHZUEBKUREPBP-MDWZMJQESA-N_conf106.xyz
          omp threads                :                    24

########################################################################
[WARNING] Please study the warnings concerning your input carefully
-1- readin_getIntValue: could not parse '2-xTB'
########################################################################

           -------------------------------------------------
          |                 G F N 2 - x T B                 |
           -------------------------------------------------

        Reference                      10.1021/acs.jctc.8b01176
      * Hamiltonian:
        H0-scaling (s, p, d)           1.850000    2.230000    2.230000
        zeta-weighting                 0.500000
      * Dispersion:
        s8                             2.700000
        a1                             0.520000
        a2                             5.000000
        s9                             5.000000
      * Repulsion:
        kExp                           1.500000    1.000000
        rExp                           1.000000
      * Coulomb:
        alpha                          2.000000
        third order                    shell-resolved
        anisotropic                    true
        a3                             3.000000
        a5                             4.000000
        cn-shift                       1.200000
        cn-exp                         4.000000
        max-rad                        5.000000

q/qsh data taken from xtbrestart
CAMM data taken from xtbrestart

          ...................................................
          :                      SETUP                      :
          :.................................................:
          :  # basis functions                 122          :
          :  # atomic orbitals                 122          :
          :  # shells                           72          :
          :  # electrons                       132          :
          :  max. iterations                   250          :
          :  Hamiltonian                  GFN2-xTB          :
          :  restarted?                       true          :
          :  GBSA solvation                  false          :
          :  PC potential                    false          :
          :  electronic temp.          300.0000000     K    :
          :  accuracy                    1.0000000          :
          :  -> integral cutoff          0.2500000E+02      :
          :  -> integral neglect         0.1000000E-07      :
          :  -> SCF convergence          0.1000000E-05 Eh   :
          :  -> wf. convergence          0.1000000E-03 e    :
          :  Broyden damping             0.4000000          :
          :  net charge                          0          :
          :  unpaired electrons                  0          :
          ...................................................

 iter      E             dE          RMSdq      gap      omega  full diag
   1    -75.2865418 -0.752865E+02  0.475E+00    2.20       0.0  T
   2    -75.2948030 -0.826118E-02  0.282E+00    2.15       1.0  T
   3    -75.2910738  0.372913E-02  0.401E-01    2.06       1.0  T
   4    -75.2973407 -0.626687E-02  0.150E-01    2.05       1.0  T
   5    -75.2976358 -0.295116E-03  0.700E-02    2.08       1.0  T
   6    -75.2976456 -0.975147E-05  0.286E-02    2.09       1.0  T
   7    -75.2976615 -0.158893E-04  0.102E-02    2.09       1.4  T
   8    -75.2976630 -0.152226E-05  0.509E-03    2.09       2.9  T
   9    -75.2976635 -0.530083E-06  0.216E-03    2.09       6.7  T
  10    -75.2976636 -0.449525E-07  0.868E-04    2.09      16.8  T
  11    -75.2976636 -0.616332E-08  0.332E-04    2.09      43.9  T

   *** convergence criteria satisfied after 11 iterations ***

         #    Occupation            Energy/Eh            Energy/eV
      -------------------------------------------------------------
         1        2.0000           -0.7261435             -19.7594
       ...           ...                  ...                  ...
        60        2.0000           -0.4193071             -11.4099
        61        2.0000           -0.4177047             -11.3663
        62        2.0000           -0.4108954             -11.1810
        63        2.0000           -0.4068196             -11.0701
        64        2.0000           -0.4042291             -10.9996
        65        2.0000           -0.3875704             -10.5463
        66        2.0000           -0.3784160             -10.2972 (HOMO)
        67                         -0.3017536              -8.2111 (LUMO)
        68                         -0.2334451              -6.3524
        69                         -0.2311324              -6.2894
        70                         -0.2256812              -6.1411
        71                         -0.2163357              -5.8868
       ...                                ...                  ...
       122                          0.7107120              19.3395
      -------------------------------------------------------------
                  HL-Gap            0.0766625 Eh            2.0861 eV
             Fermi-level           -0.3400848 Eh           -9.2542 eV

 SCC (total)                   0 d,  0 h,  0 min,  0.044 sec
 SCC setup                      ...        0 min,  0.000 sec (  0.751%)
 Dispersion                     ...        0 min,  0.001 sec (  1.323%)
 classical contributions        ...        0 min,  0.000 sec (  0.728%)
 integral evaluation            ...        0 min,  0.002 sec (  4.844%)
 iterations                     ...        0 min,  0.034 sec ( 78.876%)
 molecular gradient             ...        0 min,  0.005 sec ( 11.965%)
 printout                       ...        0 min,  0.001 sec (  1.440%)

         :::::::::::::::::::::::::::::::::::::::::::::::::::::
         ::                     SUMMARY                     ::
         :::::::::::::::::::::::::::::::::::::::::::::::::::::
         :: total energy             -74.276264560883 Eh    ::
         :: gradient norm              0.159135005866 Eh/a0 ::
         :: HOMO-LUMO gap              2.086091555741 eV    ::
         ::.................................................::
         :: SCC energy               -75.297681335832 Eh    ::
         :: -> isotropic ES            0.105736794204 Eh    ::
         :: -> anisotropic ES          0.001940890401 Eh    ::
         :: -> anisotropic XC          0.019177308645 Eh    ::
         :: -> dispersion             -0.048472973758 Eh    ::
         :: repulsion energy           1.021416774948 Eh    ::
         :: add. restraining           0.000000000000 Eh    ::
         :: total charge              -0.000000000000 e     ::
         :::::::::::::::::::::::::::::::::::::::::::::::::::::

      ----------------------------------------------------------- 
     |                   =====================                   |
     |                        A N C O P T                        |
     |                   =====================                   |
     |               Approximate Normal Coordinate               |
     |                Rational Function Optimizer                |
      ----------------------------------------------------------- 
      ----------------------------------------------------------- 
     |                   =====================                   |
     |                        A N C O P T                        |
     |                   =====================                   |
     |               Approximate Normal Coordinate               |
     |                Rational Function Optimizer                |
      ----------------------------------------------------------- 

          ...................................................
          :                      SETUP                      :
          :.................................................:
          :   optimization level            normal          :
          :   max. optcycles                   200          :
          :   ANC micro-cycles                  20          :
          :   degrees of freedom               135          :
          :.................................................:
          :   RF solver                   davidson          :
          :   write xtbopt.log                true          :
          :   linear?                        false          :
          :   energy convergence         0.5000000E-05 Eh   :
          :   grad. convergence          0.1000000E-02 Eh/α :
          :   maxmium RF displ.          1.0000000          :
          :   Hlow (freq-cutoff)         0.1000000E-01      :
          :   Hmax (freq-cutoff)         5.0000000          :
          :   S6 in model hess.         20.0000000          :
          ...................................................

generating ANC from exact Hessian ...
Using Lindh-Hessian (1995)
 Shifting diagonal of input Hessian by   9.846258332712824E-003
 Lowest  eigenvalues of input Hessian
    0.000000    0.000000    0.000000    0.000000    0.000000    0.000000
    0.010000    0.010105    0.010525    0.010770    0.010990    0.011317
    0.012201    0.012451    0.012812    0.013052    0.013349    0.015060
 Highest eigenvalues
    1.992714    2.046519    2.067157    2.084816    2.157684    2.195807
 

........................................................................
.............................. CYCLE    1 ..............................
........................................................................

 iter      E             dE          RMSdq      gap      omega  full diag
   1    -75.2976636 -0.752977E+02  0.146E-04    2.09       0.0  T
   2    -75.2976636 -0.161478E-09  0.898E-05    2.09     162.5  T
   3    -75.2976636 -0.516565E-10  0.585E-05    2.09     249.2  T
     SCC iter.                  ...        0 min,  0.009 sec
     gradient                   ...        0 min,  0.007 sec
 * total energy  :   -74.2762646 Eh     change       -0.2320732E-08 Eh
   gradient norm :     0.1591346 Eh/α   predicted     0.0000000E+00 (-100.00%)
   displ. norm   :     0.3835846 α      lambda       -0.3658933E-01
   maximum displ.:     0.1208417 α      in ANC's #42, #33, #50, ...

........................................................................
.............................. CYCLE    2 ..............................
........................................................................

 iter      E             dE          RMSdq      gap      omega  full diag
   1    -75.3114026 -0.753114E+02  0.291E-01    2.13       0.0  T
   2    -75.3118571 -0.454529E-03  0.181E-01    2.12       1.0  T
   3    -75.3118246  0.325445E-04  0.712E-02    2.11       1.0  T
   4    -75.3118972 -0.725632E-04  0.217E-02    2.11       1.0  T
   5    -75.3119154 -0.182479E-04  0.685E-03    2.11       2.1  T
   6    -75.3119165 -0.111102E-05  0.372E-03    2.11       3.9  T
   7    -75.3119167 -0.204107E-06  0.189E-03    2.11       7.7  T
   8    -75.3119168 -0.421288E-07  0.793E-04    2.11      18.4  T
   9    -75.3119168 -0.987576E-08  0.252E-04    2.11      57.9  T
     SCC iter.                  ...        0 min,  0.025 sec
     gradient                   ...        0 min,  0.008 sec
 * total energy  :   -74.3015236 Eh     change       -0.2525907E-01 Eh
   gradient norm :     0.0621364 Eh/α   predicted    -0.2099734E-01 ( -16.87%)
   displ. norm   :     0.3514377 α      lambda       -0.1105219E-01
   maximum displ.:     0.1281177 α      in ANC's #22, #33, #42, ...

........................................................................
.............................. CYCLE    3 ..............................
........................................................................

 iter      E             dE          RMSdq      gap      omega  full diag
   1    -75.3161170 -0.753161E+02  0.186E-01    2.14       0.0  T
   2    -75.3163731 -0.256083E-03  0.116E-01    2.13       1.0  T
   3    -75.3163732 -0.376582E-07  0.516E-02    2.12       1.0  T
   4    -75.3163973 -0.241801E-04  0.158E-02    2.12       1.0  T
   5    -75.3164066 -0.922053E-05  0.486E-03    2.12       3.0  T
   6    -75.3164073 -0.717161E-06  0.233E-03    2.12       6.3  T
   7    -75.3164074 -0.732134E-07  0.126E-03    2.12      11.6  T
   8    -75.3164074 -0.209737E-07  0.590E-04    2.12      24.7  T
   9    -75.3164074 -0.540450E-08  0.172E-04    2.12      84.7  T
     SCC iter.                  ...        0 min,  0.048 sec
     gradient                   ...        0 min,  0.009 sec
 * total energy  :   -74.3081765 Eh     change       -0.6652879E-02 Eh
   gradient norm :     0.0155115 Eh/α   predicted    -0.6212188E-02 (  -6.62%)
   displ. norm   :     0.2651785 α      lambda       -0.1981505E-02
   maximum displ.:     0.1170710 α      in ANC's #22, #6, #18, ...

........................................................................
.............................. CYCLE    4 ..............................
........................................................................

 iter      E             dE          RMSdq      gap      omega  full diag
   1    -75.3137052 -0.753137E+02  0.878E-02    2.12       0.0  T
   2    -75.3137225 -0.173714E-04  0.543E-02    2.12       1.0  T
   3    -75.3137115  0.109981E-04  0.198E-02    2.11       1.0  T
   4    -75.3137257 -0.141230E-04  0.600E-03    2.11       2.4  T
   5    -75.3137269 -0.121434E-05  0.243E-03    2.11       6.0  T
   6    -75.3137270 -0.123018E-06  0.117E-03    2.11      12.4  T
   7    -75.3137270 -0.222552E-07  0.556E-04    2.11      26.2  T
   8    -75.3137270 -0.270512E-08  0.196E-04    2.11      74.3  T
     SCC iter.                  ...        0 min,  0.022 sec
     gradient                   ...        0 min,  0.005 sec
 * total energy  :   -74.3096558 Eh     change       -0.1479249E-02 Eh
   gradient norm :     0.0125389 Eh/α   predicted    -0.1060437E-02 ( -28.31%)
   displ. norm   :     0.3631486 α      lambda       -0.1604778E-02
   maximum displ.:     0.1475417 α      in ANC's #22, #6, #18, ...

........................................................................
.............................. CYCLE    5 ..............................
........................................................................

 iter      E             dE          RMSdq      gap      omega  full diag
   1    -75.3108348 -0.753108E+02  0.104E-01    2.12       0.0  T
   2    -75.3108450 -0.102498E-04  0.628E-02    2.12       1.0  T
   3    -75.3108391  0.591089E-05  0.149E-02    2.11       1.0  T
   4    -75.3108473 -0.820890E-05  0.423E-03    2.11       3.4  T
   5    -75.3108477 -0.383976E-06  0.224E-03    2.11       6.5  T
   6    -75.3108478 -0.717847E-07  0.110E-03    2.11      13.2  T
   7    -75.3108478 -0.146175E-07  0.527E-04    2.11      27.7  T
   8    -75.3108478 -0.467720E-08  0.183E-04    2.11      79.6  T
     SCC iter.                  ...        0 min,  0.021 sec
     gradient                   ...        0 min,  0.005 sec
 * total energy  :   -74.3107121 Eh     change       -0.1056339E-02 Eh
   gradient norm :     0.0158706 Eh/α   predicted    -0.9082116E-03 ( -14.02%)
   displ. norm   :     0.2728771 α      lambda       -0.7650340E-03
   maximum displ.:     0.1154187 α      in ANC's #5, #6, #8, ...

........................................................................
.............................. CYCLE    6 ..............................
........................................................................

 iter      E             dE          RMSdq      gap      omega  full diag
   1    -75.3124624 -0.753125E+02  0.630E-02    2.12       0.0  T
   2    -75.3124641 -0.171280E-05  0.377E-02    2.12       1.0  T
   3    -75.3124634  0.666912E-06  0.572E-03    2.12       2.6  T
   4    -75.3124644 -0.971805E-06  0.244E-03    2.12       6.0  T
   5    -75.3124646 -0.154926E-06  0.110E-03    2.12      13.2  T
   6    -75.3124646 -0.127759E-07  0.458E-04    2.12      31.9  T
   7    -75.3124646 -0.327036E-08  0.172E-04    2.12      85.0  T
     SCC iter.                  ...        0 min,  0.019 sec
     gradient                   ...        0 min,  0.005 sec
 * total energy  :   -74.3112761 Eh     change       -0.5640508E-03 Eh
   gradient norm :     0.0117421 Eh/α   predicted    -0.4110028E-03 ( -27.13%)
   displ. norm   :     0.2945074 α      lambda       -0.7483506E-03
   maximum displ.:     0.1241577 α      in ANC's #5, #6, #11, ...

........................................................................
.............................. CYCLE    7 ..............................
........................................................................

 iter      E             dE          RMSdq      gap      omega  full diag
   1    -75.3163113 -0.753163E+02  0.662E-02    2.12       0.0  T
   2    -75.3163143 -0.299558E-05  0.405E-02    2.12       1.0  T
   3    -75.3163088  0.552350E-05  0.111E-02    2.13       1.3  T
   4    -75.3163153 -0.651857E-05  0.298E-03    2.13       4.9  T
   5    -75.3163155 -0.193962E-06  0.148E-03    2.12       9.9  T
   6    -75.3163155 -0.317923E-07  0.661E-04    2.12      22.1  T
   7    -75.3163155 -0.768327E-08  0.271E-04    2.12      53.8  T
     SCC iter.                  ...        0 min,  0.019 sec
     gradient                   ...        0 min,  0.005 sec
 * total energy  :   -74.3118110 Eh     change       -0.5348238E-03 Eh
   gradient norm :     0.0093642 Eh/α   predicted    -0.4066314E-03 ( -23.97%)
   displ. norm   :     0.2581531 α      lambda       -0.4946473E-03
   maximum displ.:     0.1141935 α      in ANC's #5, #6, #20, ...

........................................................................
.............................. CYCLE    8 ..............................
........................................................................

 iter      E             dE          RMSdq      gap      omega  full diag
   1    -75.3193606 -0.753194E+02  0.579E-02    2.13       0.0  T
   2    -75.3193632 -0.263683E-05  0.354E-02    2.13       1.0  T
   3    -75.3193592  0.399124E-05  0.982E-03    2.13       1.5  T
   4    -75.3193641 -0.490980E-05  0.204E-03    2.13       7.2  T
   5    -75.3193642 -0.795384E-07  0.107E-03    2.13      13.6  T
   6    -75.3193642 -0.140805E-07  0.508E-04    2.13      28.7  T
   7    -75.3193642 -0.250608E-08  0.273E-04    2.13      53.5  T
     SCC iter.                  ...        0 min,  0.019 sec
     gradient                   ...        0 min,  0.005 sec
 * total energy  :   -74.3121508 Eh     change       -0.3398350E-03 Eh
   gradient norm :     0.0072871 Eh/α   predicted    -0.2638090E-03 ( -22.37%)
   displ. norm   :     0.2684296 α      lambda       -0.3331551E-03
   maximum displ.:     0.1023255 α      in ANC's #5, #20, #6, ...

........................................................................
.............................. CYCLE    9 ..............................
........................................................................

 iter      E             dE          RMSdq      gap      omega  full diag
   1    -75.3179791 -0.753180E+02  0.662E-02    2.13       0.0  T
   2    -75.3179816 -0.251788E-05  0.400E-02    2.13       1.0  T
   3    -75.3179797  0.198832E-05  0.856E-03    2.13       1.7  T
   4    -75.3179826 -0.290919E-05  0.267E-03    2.13       5.5  T
   5    -75.3179826 -0.788698E-07  0.148E-03    2.13       9.9  T
   6    -75.3179827 -0.357372E-07  0.716E-04    2.13      20.4  T
   7    -75.3179827 -0.997181E-08  0.249E-04    2.13      58.5  T
     SCC iter.                  ...        0 min,  0.017 sec
     gradient                   ...        0 min,  0.005 sec
 * total energy  :   -74.3123054 Eh     change       -0.1546101E-03 Eh
   gradient norm :     0.0113927 Eh/α   predicted    -0.1785895E-03 (  15.51%)
   displ. norm   :     0.1692100 α      lambda       -0.2940063E-03
   maximum displ.:     0.0736968 α      in ANC's #5, #13, #4, ...

........................................................................
.............................. CYCLE   10 ..............................
........................................................................

 iter      E             dE          RMSdq      gap      omega  full diag
   1    -75.3194062 -0.753194E+02  0.446E-02    2.13       0.0  T
   2    -75.3194077 -0.146972E-05  0.263E-02    2.13       1.0  T
   3    -75.3194057  0.194638E-05  0.764E-03    2.13       1.9  T
   4    -75.3194081 -0.237939E-05  0.221E-03    2.13       6.6  T
   5    -75.3194082 -0.108032E-06  0.107E-03    2.13      13.6  T
   6    -75.3194082 -0.242337E-07  0.492E-04    2.13      29.6  T
   7    -75.3194082 -0.231978E-08  0.197E-04    2.13      74.2  T
     SCC iter.                  ...        0 min,  0.018 sec
     gradient                   ...        0 min,  0.005 sec
 * total energy  :   -74.3124529 Eh     change       -0.1474681E-03 Eh
   gradient norm :     0.0069087 Eh/α   predicted    -0.1512137E-03 (   2.54%)
   displ. norm   :     0.0926745 α      lambda       -0.1013064E-03
   maximum displ.:     0.0334801 α      in ANC's #5, #13, #11, ...

........................................................................
.............................. CYCLE   11 ..............................
........................................................................

 iter      E             dE          RMSdq      gap      omega  full diag
   1    -75.3186874 -0.753187E+02  0.244E-02    2.13       0.0  T
   2    -75.3186878 -0.343029E-06  0.147E-02    2.13       1.0  T
   3    -75.3186869  0.855077E-06  0.430E-03    2.13       3.4  T
   4    -75.3186879 -0.100908E-05  0.944E-04    2.13      15.5  T
   5    -75.3186879 -0.130767E-07  0.552E-04    2.13      26.4  T
   6    -75.3186879 -0.614972E-08  0.234E-04    2.13      62.2  T
     SCC iter.                  ...        0 min,  0.048 sec
     gradient                   ...        0 min,  0.008 sec
 * total energy  :   -74.3125373 Eh     change       -0.8441975E-04 Eh
   gradient norm :     0.0047448 Eh/α   predicted    -0.5108982E-04 ( -39.48%)
   displ. norm   :     0.2317274 α      lambda       -0.1983741E-03
   maximum displ.:     0.0782957 α      in ANC's #8, #1, #16, ...

........................................................................
.............................. CYCLE   12 ..............................
........................................................................

 iter      E             dE          RMSdq      gap      omega  full diag
   1    -75.3183390 -0.753183E+02  0.608E-02    2.13       0.0  T
   2    -75.3183405 -0.148774E-05  0.363E-02    2.13       1.0  T
   3    -75.3183384  0.201080E-05  0.712E-03    2.13       2.0  T
   4    -75.3183410 -0.255863E-05  0.183E-03    2.13       8.0  T
   5    -75.3183411 -0.462902E-07  0.963E-04    2.13      15.1  T
   6    -75.3183411 -0.107844E-07  0.502E-04    2.13      29.1  T
     SCC iter.                  ...        0 min,  0.017 sec
     gradient                   ...        0 min,  0.005 sec
 * total energy  :   -74.3126547 Eh     change       -0.1174038E-03 Eh
   gradient norm :     0.0035827 Eh/α   predicted    -0.1045146E-03 ( -10.98%)
   displ. norm   :     0.1733622 α      lambda       -0.7359749E-04
   maximum displ.:     0.0685849 α      in ANC's #5, #1, #11, ...

........................................................................
.............................. CYCLE   13 ..............................
........................................................................

 iter      E             dE          RMSdq      gap      omega  full diag
   1    -75.3168484 -0.753168E+02  0.424E-02    2.13       0.0  T
   2    -75.3168488 -0.371223E-06  0.251E-02    2.13       1.0  T
   3    -75.3168486  0.198365E-06  0.272E-03    2.13       5.4  T
   4    -75.3168489 -0.333305E-06  0.919E-04    2.13      15.9  T
   5    -75.3168489 -0.102011E-07  0.462E-04    2.13      31.6  T
     SCC iter.                  ...        0 min,  0.014 sec
     gradient                   ...        0 min,  0.005 sec
 * total energy  :   -74.3127008 Eh     change       -0.4604537E-04 Eh
   gradient norm :     0.0041838 Eh/α   predicted    -0.3790809E-04 ( -17.67%)
   displ. norm   :     0.1820259 α      lambda       -0.9323632E-04
   maximum displ.:     0.0799867 α      in ANC's #8, #1, #14, ...

........................................................................
.............................. CYCLE   14 ..............................
........................................................................

 iter      E             dE          RMSdq      gap      omega  full diag
   1    -75.3182928 -0.753183E+02  0.478E-02    2.12       0.0  T
   2    -75.3182933 -0.439335E-06  0.282E-02    2.13       1.0  T
   3    -75.3182928  0.438350E-06  0.364E-03    2.12       4.0  T
   4    -75.3182934 -0.573971E-06  0.114E-03    2.12      12.8  T
   5    -75.3182934 -0.264617E-07  0.584E-04    2.12      25.0  T
   6    -75.3182934 -0.264637E-08  0.279E-04    2.12      52.2  T
     SCC iter.                  ...        0 min,  0.017 sec
     gradient                   ...        0 min,  0.005 sec
 * total energy  :   -74.3127689 Eh     change       -0.6810017E-04 Eh
   gradient norm :     0.0042550 Eh/α   predicted    -0.4817207E-04 ( -29.26%)
   displ. norm   :     0.2661589 α      lambda       -0.1064034E-03
   maximum displ.:     0.1120674 α      in ANC's #1, #8, #14, ...

........................................................................
.............................. CYCLE   15 ..............................
........................................................................

 iter      E             dE          RMSdq      gap      omega  full diag
   1    -75.3180696 -0.753181E+02  0.678E-02    2.12       0.0  T
   2    -75.3180705 -0.980944E-06  0.402E-02    2.12       1.0  T
   3    -75.3180692  0.133468E-05  0.584E-03    2.12       2.5  T
   4    -75.3180709 -0.169846E-05  0.150E-03    2.12       9.7  T
   5    -75.3180709 -0.283076E-07  0.881E-04    2.12      16.6  T
   6    -75.3180709 -0.110781E-07  0.408E-04    2.12      35.7  T
     SCC iter.                  ...        0 min,  0.017 sec
     gradient                   ...        0 min,  0.005 sec
 * total energy  :   -74.3128370 Eh     change       -0.6818622E-04 Eh
   gradient norm :     0.0043826 Eh/α   predicted    -0.5697720E-04 ( -16.44%)
   displ. norm   :     0.1662889 α      lambda       -0.7425226E-04
   maximum displ.:     0.0827406 α      in ANC's #1, #8, #3, ...

........................................................................
.............................. CYCLE   16 ..............................
........................................................................

 iter      E             dE          RMSdq      gap      omega  full diag
   1    -75.3202413 -0.753202E+02  0.435E-02    2.12       0.0  T
   2    -75.3202417 -0.391483E-06  0.256E-02    2.12       1.0  T
   3    -75.3202415  0.166148E-06  0.255E-03    2.12       5.7  T
   4    -75.3202418 -0.266443E-06  0.857E-04    2.12      17.0  T
   5    -75.3202418 -0.134265E-07  0.456E-04    2.12      32.0  T
     SCC iter.                  ...        0 min,  0.014 sec
     gradient                   ...        0 min,  0.005 sec
 * total energy  :   -74.3128824 Eh     change       -0.4531737E-04 Eh
   gradient norm :     0.0044911 Eh/α   predicted    -0.3815866E-04 ( -15.80%)
   displ. norm   :     0.1996639 α      lambda       -0.5872247E-04
   maximum displ.:     0.1003002 α      in ANC's #1, #8, #3, ...

........................................................................
.............................. CYCLE   17 ..............................
........................................................................

 iter      E             dE          RMSdq      gap      omega  full diag
   1    -75.3196925 -0.753197E+02  0.498E-02    2.12       0.0  T
   2    -75.3196928 -0.244052E-06  0.294E-02    2.12       1.0  T
   3    -75.3196921  0.644187E-06  0.405E-03    2.12       3.6  T
   4    -75.3196929 -0.789792E-06  0.886E-04    2.12      16.5  T
   5    -75.3196929 -0.109873E-07  0.519E-04    2.12      28.1  T
     SCC iter.                  ...        0 min,  0.014 sec
     gradient                   ...        0 min,  0.006 sec
 * total energy  :   -74.3129296 Eh     change       -0.4719439E-04 Eh
   gradient norm :     0.0041151 Eh/α   predicted    -0.3053274E-04 ( -35.30%)
   displ. norm   :     0.2553022 α      lambda       -0.9170905E-04
   maximum displ.:     0.1417303 α      in ANC's #1, #8, #3, ...

........................................................................
.............................. CYCLE   18 ..............................
........................................................................

 iter      E             dE          RMSdq      gap      omega  full diag
   1    -75.3194823 -0.753195E+02  0.616E-02    2.12       0.0  T
   2    -75.3194828 -0.506861E-06  0.363E-02    2.12       1.0  T
   3    -75.3194813  0.153077E-05  0.606E-03    2.12       2.4  T
   4    -75.3194831 -0.178015E-05  0.125E-03    2.12      11.7  T
   5    -75.3194831 -0.363657E-07  0.617E-04    2.12      23.6  T
   6    -75.3194831 -0.384082E-08  0.256E-04    2.12      56.9  T
     SCC iter.                  ...        0 min,  0.017 sec
     gradient                   ...        0 min,  0.006 sec
 * total energy  :   -74.3129961 Eh     change       -0.6656136E-04 Eh
   gradient norm :     0.0030966 Eh/α   predicted    -0.4884793E-04 ( -26.61%)
   displ. norm   :     0.2325878 α      lambda       -0.6395594E-04
   maximum displ.:     0.1377462 α      in ANC's #1, #8, #3, ...

........................................................................
.............................. CYCLE   19 ..............................
........................................................................

 iter      E             dE          RMSdq      gap      omega  full diag
   1    -75.3191903 -0.753192E+02  0.547E-02    2.12       0.0  T
   2    -75.3191907 -0.391217E-06  0.322E-02    2.12       1.0  T
   3    -75.3191897  0.954706E-06  0.488E-03    2.12       3.0  T
   4    -75.3191909 -0.112559E-05  0.109E-03    2.12      13.3  T
   5    -75.3191909 -0.275421E-07  0.534E-04    2.12      27.3  T
   6    -75.3191909 -0.307627E-08  0.223E-04    2.12      65.5  T
     SCC iter.                  ...        0 min,  0.017 sec
     gradient                   ...        0 min,  0.005 sec
 * total energy  :   -74.3130444 Eh     change       -0.4827963E-04 Eh
   gradient norm :     0.0034430 Eh/α   predicted    -0.3370981E-04 ( -30.18%)
   displ. norm   :     0.2484929 α      lambda       -0.7171909E-04
   maximum displ.:     0.1545247 α      in ANC's #1, #3, #8, ...

........................................................................
.............................. CYCLE   20 ..............................
........................................................................

 iter      E             dE          RMSdq      gap      omega  full diag
   1    -75.3190529 -0.753191E+02  0.565E-02    2.11       0.0  T
   2    -75.3190534 -0.519595E-06  0.333E-02    2.11       1.0  T
   3    -75.3190528  0.614571E-06  0.413E-03    2.11       3.5  T
   4    -75.3190536 -0.770552E-06  0.123E-03    2.11      11.9  T
   5    -75.3190536 -0.367011E-07  0.605E-04    2.11      24.1  T
   6    -75.3190536 -0.406101E-08  0.279E-04    2.11      52.2  T
     SCC iter.                  ...        0 min,  0.017 sec
     gradient                   ...        0 min,  0.007 sec
 * total energy  :   -74.3130980 Eh     change       -0.5359888E-04 Eh
   gradient norm :     0.0039025 Eh/α   predicted    -0.3807667E-04 ( -28.96%)
   displ. norm   :     0.2926598 α      lambda       -0.9587957E-04
   maximum displ.:     0.1897347 α      in ANC's #1, #3, #2, ...
 * RMSD in coord.:     0.5144295 α      energy gain  -0.3683343E-01 Eh

generating ANC from exact Hessian ...
Using Lindh-Hessian (1995)
 Shifting diagonal of input Hessian by   9.883911738170648E-003
 Lowest  eigenvalues of input Hessian
    0.000000    0.000000    0.000000    0.000000    0.000000    0.000000
    0.010000    0.010135    0.010514    0.010724    0.010938    0.011294
    0.011984    0.012183    0.012418    0.012595    0.012946    0.014744
 Highest eigenvalues
    1.938212    2.011173    2.018339    2.082634    2.120087    2.183373
 

........................................................................
.............................. CYCLE   21 ..............................
........................................................................

 iter      E             dE          RMSdq      gap      omega  full diag
   1    -75.3195110 -0.753195E+02  0.635E-02    2.11       0.0  T
   2    -75.3195117 -0.658926E-06  0.375E-02    2.11       1.0  T
   3    -75.3195111  0.550805E-06  0.420E-03    2.11       3.5  T
   4    -75.3195119 -0.807968E-06  0.118E-03    2.11      12.3  T
   5    -75.3195119 -0.111000E-07  0.674E-04    2.11      21.6  T
   6    -75.3195119 -0.296434E-08  0.322E-04    2.11      45.3  T
     SCC iter.                  ...        0 min,  0.033 sec
     gradient                   ...        0 min,  0.005 sec
 * total energy  :   -74.3131638 Eh     change       -0.6579474E-04 Eh
   gradient norm :     0.0047115 Eh/α   predicted     0.0000000E+00 (-100.00%)
   displ. norm   :     0.0483280 α      lambda       -0.5665522E-04
   maximum displ.:     0.0191102 α      in ANC's #1, #10, #7, ...

........................................................................
.............................. CYCLE   22 ..............................
........................................................................

 iter      E             dE          RMSdq      gap      omega  full diag
   1    -75.3202920 -0.753203E+02  0.122E-02    2.11       0.0  T
   2    -75.3202922 -0.175217E-06  0.729E-03    2.11       2.0  T
   3    -75.3202920  0.174240E-06  0.247E-03    2.11       5.9  T
   4    -75.3202922 -0.195104E-06  0.744E-04    2.11      19.6  T
   5    -75.3202922 -0.191414E-07  0.251E-04    2.11      58.1  T
     SCC iter.                  ...        0 min,  0.014 sec
     gradient                   ...        0 min,  0.007 sec
 * total energy  :   -74.3132110 Eh     change       -0.4716194E-04 Eh
   gradient norm :     0.0021552 Eh/α   predicted    -0.3007833E-04 ( -36.22%)
   displ. norm   :     0.1157127 α      lambda       -0.7460043E-04
   maximum displ.:     0.0507224 α      in ANC's #1, #10, #4, ...

........................................................................
.............................. CYCLE   23 ..............................
........................................................................

 iter      E             dE          RMSdq      gap      omega  full diag
   1    -75.3209430 -0.753209E+02  0.238E-02    2.11       0.0  T
   2    -75.3209434 -0.435595E-06  0.142E-02    2.11       1.0  T
   3    -75.3209430  0.435811E-06  0.404E-03    2.11       3.6  T
   4    -75.3209435 -0.513930E-06  0.109E-03    2.11      13.3  T
   5    -75.3209435 -0.357390E-07  0.473E-04    2.11      30.9  T
   6    -75.3209436 -0.240699E-08  0.256E-04    2.11      57.0  T
     SCC iter.                  ...        0 min,  0.017 sec
     gradient                   ...        0 min,  0.005 sec
 * total energy  :   -74.3132613 Eh     change       -0.5030133E-04 Eh
   gradient norm :     0.0016874 Eh/α   predicted    -0.3779994E-04 ( -24.85%)
   displ. norm   :     0.1723783 α      lambda       -0.3931963E-04
   maximum displ.:     0.0829774 α      in ANC's #1, #4, #10, ...

........................................................................
.............................. CYCLE   24 ..............................
........................................................................

 iter      E             dE          RMSdq      gap      omega  full diag
   1    -75.3206491 -0.753206E+02  0.304E-02    2.11       0.0  T
   2    -75.3206494 -0.336776E-06  0.182E-02    2.11       1.0  T
   3    -75.3206489  0.530059E-06  0.416E-03    2.11       3.5  T
   4    -75.3206495 -0.648558E-06  0.983E-04    2.11      14.8  T
   5    -75.3206495 -0.173107E-07  0.556E-04    2.11      26.2  T
     SCC iter.                  ...        0 min,  0.014 sec
     gradient                   ...        0 min,  0.005 sec
 * total energy  :   -74.3133019 Eh     change       -0.4062346E-04 Eh
   gradient norm :     0.0031048 Eh/α   predicted    -0.2002479E-04 ( -50.71%)
   displ. norm   :     0.1036024 α      lambda       -0.3342139E-04
   maximum displ.:     0.0560953 α      in ANC's #1, #4, #3, ...

........................................................................
.............................. CYCLE   25 ..............................
........................................................................

 iter      E             dE          RMSdq      gap      omega  full diag
   1    -75.3202121 -0.753202E+02  0.171E-02    2.11       0.0  T
   2    -75.3202122 -0.872131E-07  0.102E-02    2.11       1.4  T
   3    -75.3202121  0.842217E-07  0.157E-03    2.11       9.3  T
   4    -75.3202122 -0.114168E-06  0.514E-04    2.11      28.4  T
   5    -75.3202122 -0.348022E-08  0.283E-04    2.11      51.5  T
     SCC iter.                  ...        0 min,  0.015 sec
     gradient                   ...        0 min,  0.007 sec
 * total energy  :   -74.3133303 Eh     change       -0.2841552E-04 Eh
   gradient norm :     0.0024328 Eh/α   predicted    -0.1689019E-04 ( -40.56%)
   displ. norm   :     0.1662467 α      lambda       -0.4786121E-04
   maximum displ.:     0.0948722 α      in ANC's #1, #4, #3, ...

........................................................................
.............................. CYCLE   26 ..............................
........................................................................

 iter      E             dE          RMSdq      gap      omega  full diag
   1    -75.3195260 -0.753195E+02  0.271E-02    2.11       0.0  T
   2    -75.3195263 -0.286781E-06  0.161E-02    2.11       1.0  T
   3    -75.3195261  0.140217E-06  0.229E-03    2.11       6.4  T
   4    -75.3195263 -0.207381E-06  0.782E-04    2.11      18.6  T
   5    -75.3195263 -0.110993E-07  0.409E-04    2.11      35.7  T
     SCC iter.                  ...        0 min,  0.017 sec
     gradient                   ...        0 min,  0.006 sec
 * total energy  :   -74.3133656 Eh     change       -0.3529808E-04 Eh
   gradient norm :     0.0015004 Eh/α   predicted    -0.2459775E-04 ( -30.31%)
   displ. norm   :     0.1983674 α      lambda       -0.2870960E-04
   maximum displ.:     0.1222690 α      in ANC's #1, #4, #3, ...

........................................................................
.............................. CYCLE   27 ..............................
........................................................................

 iter      E             dE          RMSdq      gap      omega  full diag
   1    -75.3191584 -0.753192E+02  0.332E-02    2.11       0.0  T
   2    -75.3191588 -0.395680E-06  0.197E-02    2.11       1.0  T
   3    -75.3191585  0.324965E-06  0.323E-03    2.11       4.5  T
   4    -75.3191589 -0.424651E-06  0.988E-04    2.11      14.8  T
   5    -75.3191589 -0.209050E-07  0.503E-04    2.11      29.0  T
     SCC iter.                  ...        0 min,  0.014 sec
     gradient                   ...        0 min,  0.004 sec
 * total energy  :   -74.3133964 Eh     change       -0.3084541E-04 Eh
   gradient norm :     0.0020901 Eh/α   predicted    -0.1460607E-04 ( -52.65%)
   displ. norm   :     0.0973031 α      lambda       -0.2660427E-04
   maximum displ.:     0.0631541 α      in ANC's #1, #4, #3, ...

........................................................................
.............................. CYCLE   28 ..............................
........................................................................

 iter      E             dE          RMSdq      gap      omega  full diag
   1    -75.3195809 -0.753196E+02  0.179E-02    2.11       0.0  T
   2    -75.3195810 -0.871125E-07  0.106E-02    2.11       1.4  T
   3    -75.3195809  0.104012E-06  0.167E-03    2.11       8.7  T
   4    -75.3195810 -0.133253E-06  0.432E-04    2.11      33.7  T
   5    -75.3195810 -0.352220E-08  0.234E-04    2.11      62.2  T
     SCC iter.                  ...        0 min,  0.027 sec
     gradient                   ...        0 min,  0.016 sec
 * total energy  :   -74.3134207 Eh     change       -0.2428527E-04 Eh
   gradient norm :     0.0020215 Eh/α   predicted    -0.1342967E-04 ( -44.70%)
   displ. norm   :     0.2278016 α      lambda       -0.6343333E-04
   maximum displ.:     0.1431760 α      in ANC's #1, #4, #3, ...

........................................................................
.............................. CYCLE   29 ..............................
........................................................................

 iter      E             dE          RMSdq      gap      omega  full diag
   1    -75.3203168 -0.753203E+02  0.443E-02    2.10       0.0  T
   2    -75.3203172 -0.369369E-06  0.263E-02    2.10       1.0  T
   3    -75.3203166  0.582952E-06  0.395E-03    2.10       3.7  T
   4    -75.3203174 -0.725705E-06  0.985E-04    2.10      14.8  T
   5    -75.3203174 -0.173557E-07  0.540E-04    2.10      27.0  T
     SCC iter.                  ...        0 min,  0.015 sec
     gradient                   ...        0 min,  0.005 sec
 * total energy  :   -74.3134744 Eh     change       -0.5370109E-04 Eh
   gradient norm :     0.0021261 Eh/α   predicted    -0.3338214E-04 ( -37.84%)
   displ. norm   :     0.3497373 α      lambda       -0.7588842E-04
   maximum displ.:     0.2188905 α      in ANC's #1, #4, #3, ...

........................................................................
.............................. CYCLE   30 ..............................
........................................................................

 iter      E             dE          RMSdq      gap      omega  full diag
   1    -75.3202441 -0.753202E+02  0.689E-02    2.10       0.0  T
   2    -75.3202447 -0.670343E-06  0.408E-02    2.10       1.0  T
   3    -75.3202440  0.754751E-06  0.468E-03    2.10       3.1  T
   4    -75.3202450 -0.103873E-05  0.134E-03    2.10      10.9  T
   5    -75.3202450 -0.219174E-07  0.763E-04    2.10      19.1  T
   6    -75.3202450 -0.601253E-08  0.364E-04    2.10      40.1  T
     SCC iter.                  ...        0 min,  0.037 sec
     gradient                   ...        0 min,  0.016 sec
 * total energy  :   -74.3135376 Eh     change       -0.6318480E-04 Eh
   gradient norm :     0.0023024 Eh/α   predicted    -0.4259128E-04 ( -32.59%)
   displ. norm   :     0.3556647 α      lambda       -0.6689865E-04
   maximum displ.:     0.2252794 α      in ANC's #1, #3, #4, ...

........................................................................
.............................. CYCLE   31 ..............................
........................................................................

 iter      E             dE          RMSdq      gap      omega  full diag
   1    -75.3200016 -0.753200E+02  0.715E-02    2.09       0.0  T
   2    -75.3200022 -0.528778E-06  0.422E-02    2.09       1.0  T
   3    -75.3200017  0.433414E-06  0.394E-03    2.09       3.7  T
   4    -75.3200024 -0.699362E-06  0.126E-03    2.09      11.6  T
   5    -75.3200025 -0.109606E-07  0.739E-04    2.09      19.7  T
   6    -75.3200025 -0.696524E-08  0.280E-04    2.09      52.1  T
     SCC iter.                  ...        0 min,  0.016 sec
     gradient                   ...        0 min,  0.006 sec
 * total energy  :   -74.3135950 Eh     change       -0.5740072E-04 Eh
   gradient norm :     0.0022991 Eh/α   predicted    -0.3768260E-04 ( -34.35%)
   displ. norm   :     0.3410971 α      lambda       -0.6910379E-04
   maximum displ.:     0.2200245 α      in ANC's #1, #3, #4, ...

........................................................................
.............................. CYCLE   32 ..............................
........................................................................

 iter      E             dE          RMSdq      gap      omega  full diag
   1    -75.3201614 -0.753202E+02  0.703E-02    2.09       0.0  T
   2    -75.3201619 -0.446579E-06  0.414E-02    2.09       1.0  T
   3    -75.3201618  0.103619E-06  0.280E-03    2.09       5.2  T
   4    -75.3201621 -0.329517E-06  0.111E-03    2.09      13.1  T
   5    -75.3201621 -0.481597E-08  0.633E-04    2.09      23.0  T
   6    -75.3201621 -0.547058E-08  0.233E-04    2.09      62.6  T
     SCC iter.                  ...        0 min,  0.016 sec
     gradient                   ...        0 min,  0.005 sec
 * total energy  :   -74.3136556 Eh     change       -0.6057401E-04 Eh
   gradient norm :     0.0020592 Eh/α   predicted    -0.3857338E-04 ( -36.32%)
   displ. norm   :     0.3747121 α      lambda       -0.8212910E-04
   maximum displ.:     0.2458670 α      in ANC's #1, #3, #2, ...

........................................................................
.............................. CYCLE   33 ..............................
........................................................................

 iter      E             dE          RMSdq      gap      omega  full diag
   1    -75.3203906 -0.753204E+02  0.783E-02    2.09       0.0  T
   2    -75.3203912 -0.571150E-06  0.461E-02    2.08       1.0  T
   3    -75.3203911  0.520848E-07  0.288E-03    2.08       5.1  T
   4    -75.3203914 -0.323925E-06  0.115E-03    2.08      12.6  T
   5    -75.3203915 -0.810746E-08  0.526E-04    2.08      27.8  T
   6    -75.3203915 -0.232043E-08  0.126E-04    2.08     115.6  T
     SCC iter.                  ...        0 min,  0.027 sec
     gradient                   ...        0 min,  0.006 sec
 * total energy  :   -74.3137264 Eh     change       -0.7079302E-04 Eh
   gradient norm :     0.0020770 Eh/α   predicted    -0.4683182E-04 ( -33.85%)
   displ. norm   :     0.4154621 α      lambda       -0.8712713E-04
   maximum displ.:     0.2764179 α      in ANC's #1, #3, #2, ...

........................................................................
.............................. CYCLE   34 ..............................
........................................................................

 iter      E             dE          RMSdq      gap      omega  full diag
   1    -75.3202100 -0.753202E+02  0.873E-02    2.08       0.0  T
   2    -75.3202107 -0.713048E-06  0.514E-02    2.08       1.0  T
   3    -75.3202105  0.189851E-06  0.359E-03    2.08       4.1  T
   4    -75.3202110 -0.532207E-06  0.128E-03    2.08      11.4  T
   5    -75.3202110 -0.710023E-08  0.648E-04    2.08      22.5  T
   6    -75.3202110 -0.285664E-08  0.277E-04    2.08      52.7  T
     SCC iter.                  ...        0 min,  0.017 sec
     gradient                   ...        0 min,  0.004 sec
 * total energy  :   -74.3138005 Eh     change       -0.7409322E-04 Eh
   gradient norm :     0.0025537 Eh/α   predicted    -0.5108541E-04 ( -31.05%)
   displ. norm   :     0.4033109 α      lambda       -0.8428627E-04
   maximum displ.:     0.2743626 α      in ANC's #1, #3, #2, ...

........................................................................
.............................. CYCLE   35 ..............................
........................................................................

 iter      E             dE          RMSdq      gap      omega  full diag
   1    -75.3205790 -0.753206E+02  0.853E-02    2.08       0.0  T
   2    -75.3205796 -0.659820E-06  0.502E-02    2.08       1.0  T
   3    -75.3205793  0.289549E-06  0.377E-03    2.08       3.9  T
   4    -75.3205799 -0.611545E-06  0.123E-03    2.08      11.9  T
   5    -75.3205799 -0.495601E-08  0.667E-04    2.08      21.9  T
   6    -75.3205800 -0.396209E-08  0.291E-04    2.08      50.2  T
     SCC iter.                  ...        0 min,  0.027 sec
     gradient                   ...        0 min,  0.004 sec
 * total energy  :   -74.3138717 Eh     change       -0.7127500E-04 Eh
   gradient norm :     0.0026745 Eh/α   predicted    -0.4899914E-04 ( -31.25%)
   displ. norm   :     0.4312108 α      lambda       -0.8197776E-04
   maximum displ.:     0.2955148 α      in ANC's #1, #3, #2, ...

........................................................................
.............................. CYCLE   36 ..............................
........................................................................

 iter      E             dE          RMSdq      gap      omega  full diag
   1    -75.3196942 -0.753197E+02  0.902E-02    2.07       0.0  T
   2    -75.3196949 -0.765711E-06  0.531E-02    2.07       1.0  T
   3    -75.3196945  0.446245E-06  0.416E-03    2.07       3.5  T
   4    -75.3196953 -0.816521E-06  0.125E-03    2.07      11.7  T
   5    -75.3196953 -0.757410E-08  0.635E-04    2.07      23.0  T
   6    -75.3196953 -0.241410E-08  0.209E-04    2.07      69.7  T
     SCC iter.                  ...        0 min,  0.039 sec
     gradient                   ...        0 min,  0.007 sec
 * total energy  :   -74.3139421 Eh     change       -0.7034669E-04 Eh
   gradient norm :     0.0027757 Eh/α   predicted    -0.4861209E-04 ( -30.90%)
   displ. norm   :     0.4573418 α      lambda       -0.1011966E-03
   maximum displ.:     0.3206867 α      in ANC's #1, #8, #2, ...

........................................................................
.............................. CYCLE   37 ..............................
........................................................................

 iter      E             dE          RMSdq      gap      omega  full diag
   1    -75.3211206 -0.753211E+02  0.965E-02    2.07       0.0  T
   2    -75.3211215 -0.928152E-06  0.568E-02    2.07       1.0  T
   3    -75.3211209  0.626769E-06  0.469E-03    2.07       3.1  T
   4    -75.3211219 -0.106267E-05  0.138E-03    2.07      10.5  T
   5    -75.3211219 -0.107874E-07  0.692E-04    2.07      21.1  T
   6    -75.3211219 -0.363792E-08  0.237E-04    2.07      61.5  T
     SCC iter.                  ...        0 min,  0.053 sec
     gradient                   ...        0 min,  0.005 sec
 * total energy  :   -74.3140214 Eh     change       -0.7932570E-04 Eh
   gradient norm :     0.0023937 Eh/α   predicted    -0.6118305E-04 ( -22.87%)
   displ. norm   :     0.5934444 α      lambda       -0.1074300E-03
   maximum displ.:     0.4160068 α      in ANC's #1, #2, #3, ...

........................................................................
.............................. CYCLE   38 ..............................
........................................................................

 iter      E             dE          RMSdq      gap      omega  full diag
   1    -75.3183684 -0.753184E+02  0.124E-01    2.06       0.0  T
   2    -75.3183700 -0.167914E-05  0.728E-02    2.06       1.0  T
   3    -75.3183688  0.125142E-05  0.641E-03    2.06       2.3  T
   4    -75.3183708 -0.196365E-05  0.189E-03    2.06       7.7  T
   5    -75.3183708 -0.308499E-07  0.111E-03    2.06      13.1  T
   6    -75.3183708 -0.114893E-07  0.535E-04    2.06      27.3  T
   7    -75.3183708 -0.858478E-08  0.134E-04    2.06     108.9  T
     SCC iter.                  ...        0 min,  0.020 sec
     gradient                   ...        0 min,  0.006 sec
 * total energy  :   -74.3140997 Eh     change       -0.7833039E-04 Eh
   gradient norm :     0.0031989 Eh/α   predicted    -0.7263471E-04 (  -7.27%)
   displ. norm   :     0.5911634 α      lambda        0.1184993E-04
   maximum displ.:     0.4143798 α      in ANC's #1, #2, #3, ...

........................................................................
.............................. CYCLE   39 ..............................
........................................................................

 iter      E             dE          RMSdq      gap      omega  full diag
   1    -75.3129000 -0.753129E+02  0.125E-01    2.05       0.0  T
   2    -75.3129019 -0.184837E-05  0.734E-02    2.05       1.0  T
   3    -75.3129003  0.162020E-05  0.714E-03    2.05       2.0  T
   4    -75.3129027 -0.241168E-05  0.192E-03    2.05       7.6  T
   5    -75.3129027 -0.286351E-07  0.115E-03    2.05      12.7  T
   6    -75.3129027 -0.131989E-07  0.539E-04    2.05      27.0  T
   7    -75.3129027 -0.835863E-08  0.150E-04    2.05      97.1  T
     SCC iter.                  ...        0 min,  0.019 sec
     gradient                   ...        0 min,  0.006 sec
 * total energy  :   -74.3140581 Eh     change        0.4168910E-04 Eh
   gradient norm :     0.0083864 Eh/α   predicted     0.7995047E-05 ( -80.82%)
   displ. norm   :     0.1217210 α      lambda       -0.2113815E-03
   maximum displ.:     0.0712371 α      in ANC's #4, #3, #8, ...

........................................................................
.............................. CYCLE   40 ..............................
........................................................................

 iter      E             dE          RMSdq      gap      omega  full diag
   1    -75.3197368 -0.753197E+02  0.359E-02    2.06       0.0  T
   2    -75.3197374 -0.643045E-06  0.213E-02    2.06       1.0  T
   3    -75.3197364  0.100026E-05  0.542E-03    2.06       2.7  T
   4    -75.3197377 -0.127316E-05  0.789E-04    2.06      18.5  T
   5    -75.3197377 -0.636240E-08  0.511E-04    2.06      28.6  T
   6    -75.3197377 -0.417438E-08  0.185E-04    2.06      79.0  T
     SCC iter.                  ...        0 min,  0.016 sec
     gradient                   ...        0 min,  0.006 sec
 * total energy  :   -74.3141728 Eh     change       -0.1147822E-03 Eh
   gradient norm :     0.0046294 Eh/α   predicted    -0.1072603E-03 (  -6.55%)
   displ. norm   :     0.1398973 α      lambda       -0.8977937E-04
   maximum displ.:     0.0865016 α      in ANC's #1, #9, #8, ...

........................................................................
.............................. CYCLE   41 ..............................
........................................................................

 iter      E             dE          RMSdq      gap      omega  full diag
   1    -75.3220624 -0.753221E+02  0.329E-02    2.06       0.0  T
   2    -75.3220627 -0.286040E-06  0.194E-02    2.06       1.0  T
   3    -75.3220625  0.136922E-06  0.250E-03    2.06       5.8  T
   4    -75.3220627 -0.213121E-06  0.949E-04    2.06      15.4  T
   5    -75.3220628 -0.176262E-07  0.492E-04    2.06      29.7  T
     SCC iter.                  ...        0 min,  0.032 sec
     gradient                   ...        0 min,  0.006 sec
 * total energy  :   -74.3142054 Eh     change       -0.3260338E-04 Eh
   gradient norm :     0.0037631 Eh/α   predicted    -0.4577266E-04 (  40.39%)
   displ. norm   :     0.2815141 α      lambda       -0.5918886E-04
   maximum displ.:     0.2106329 α      in ANC's #1, #2, #3, ...

........................................................................
.............................. CYCLE   42 ..............................
........................................................................

 iter      E             dE          RMSdq      gap      omega  full diag
   1    -75.3219507 -0.753220E+02  0.554E-02    2.06       0.0  T
   2    -75.3219510 -0.321890E-06  0.327E-02    2.06       1.0  T
   3    -75.3219508  0.174844E-06  0.261E-03    2.06       5.6  T
   4    -75.3219511 -0.305560E-06  0.836E-04    2.06      17.5  T
   5    -75.3219511 -0.496286E-08  0.461E-04    2.06      31.6  T
     SCC iter.                  ...        0 min,  0.014 sec
     gradient                   ...        0 min,  0.006 sec
 * total energy  :   -74.3142542 Eh     change       -0.4873552E-04 Eh
   gradient norm :     0.0017810 Eh/α   predicted    -0.3194277E-04 ( -34.46%)
   displ. norm   :     0.4142282 α      lambda       -0.4977415E-04
   maximum displ.:     0.3141042 α      in ANC's #1, #3, #2, ...
 * RMSD in coord.:     0.8414109 α      energy gain  -0.1156182E-02 Eh

generating ANC from exact Hessian ...
Using Lindh-Hessian (1995)
 Shifting diagonal of input Hessian by   9.906677569489947E-003
 Lowest  eigenvalues of input Hessian
    0.000000    0.000000    0.000000    0.000000    0.000000    0.000000
    0.010000    0.010216    0.010531    0.010747    0.010918    0.011432
    0.012037    0.012104    0.012514    0.012732    0.013018    0.014804
 Highest eigenvalues
    1.938109    2.009890    2.018683    2.083085    2.121160    2.183890
 

........................................................................
.............................. CYCLE   43 ..............................
........................................................................

 iter      E             dE          RMSdq      gap      omega  full diag
   1    -75.3208477 -0.753208E+02  0.819E-02    2.06       0.0  T
   2    -75.3208484 -0.637407E-06  0.484E-02    2.06       1.0  T
   3    -75.3208482  0.175556E-06  0.338E-03    2.06       4.3  T
   4    -75.3208486 -0.451810E-06  0.123E-03    2.06      11.8  T
   5    -75.3208486 -0.880596E-08  0.644E-04    2.06      22.6  T
   6    -75.3208486 -0.369472E-08  0.252E-04    2.06      57.9  T
     SCC iter.                  ...        0 min,  0.016 sec
     gradient                   ...        0 min,  0.004 sec
 * total energy  :   -74.3143013 Eh     change       -0.4712250E-04 Eh
   gradient norm :     0.0031030 Eh/α   predicted     0.0000000E+00 (-100.00%)
   displ. norm   :     0.0261849 α      lambda       -0.2326031E-04
   maximum displ.:     0.0152272 α      in ANC's #1, #8, #4, ...

........................................................................
.............................. CYCLE   44 ..............................
........................................................................

 iter      E             dE          RMSdq      gap      omega  full diag
   1    -75.3217015 -0.753217E+02  0.809E-03    2.06       0.0  T
   2    -75.3217015 -0.188091E-07  0.483E-03    2.06       3.0  T
   3    -75.3217015  0.675870E-08  0.630E-04    2.06      23.2  T
   4    -75.3217015 -0.143668E-07  0.271E-04    2.06      53.9  T
     SCC iter.                  ...        0 min,  0.011 sec
     gradient                   ...        0 min,  0.006 sec
 * total energy  :   -74.3143187 Eh     change       -0.1742678E-04 Eh
   gradient norm :     0.0011082 Eh/α   predicted    -0.1164678E-04 ( -33.17%)
   displ. norm   :     0.0826593 α      lambda       -0.2056731E-04
   maximum displ.:     0.0487096 α      in ANC's #1, #8, #5, ...

........................................................................
.............................. CYCLE   45 ..............................
........................................................................

 iter      E             dE          RMSdq      gap      omega  full diag
   1    -75.3227075 -0.753227E+02  0.211E-02    2.06       0.0  T
   2    -75.3227075 -0.900597E-07  0.125E-02    2.06       1.2  T
   3    -75.3227075  0.122754E-07  0.118E-03    2.06      12.4  T
   4    -75.3227076 -0.457788E-07  0.593E-04    2.06      24.6  T
   5    -75.3227076 -0.521590E-08  0.334E-04    2.06      43.7  T
     SCC iter.                  ...        0 min,  0.027 sec
     gradient                   ...        0 min,  0.007 sec
 * total energy  :   -74.3143369 Eh     change       -0.1822406E-04 Eh
   gradient norm :     0.0021212 Eh/α   predicted    -0.1031525E-04 ( -43.40%)
   displ. norm   :     0.0525989 α      lambda       -0.1311434E-04
   maximum displ.:     0.0311226 α      in ANC's #1, #8, #5, ...

........................................................................
.............................. CYCLE   46 ..............................
........................................................................

 iter      E             dE          RMSdq      gap      omega  full diag
   1    -75.3226106 -0.753226E+02  0.129E-02    2.06       0.0  T
   2    -75.3226107 -0.226885E-07  0.762E-03    2.06       1.9  T
   3    -75.3226107  0.721003E-08  0.655E-04    2.06      22.3  T
   4    -75.3226107 -0.165989E-07  0.290E-04    2.06      50.3  T
     SCC iter.                  ...        0 min,  0.011 sec
     gradient                   ...        0 min,  0.006 sec
 * total energy  :   -74.3143492 Eh     change       -0.1226597E-04 Eh
   gradient norm :     0.0020132 Eh/α   predicted    -0.6611533E-05 ( -46.10%)
   displ. norm   :     0.1628269 α      lambda       -0.3903955E-04
   maximum displ.:     0.0936673 α      in ANC's #1, #8, #5, ...

........................................................................
.............................. CYCLE   47 ..............................
........................................................................

 iter      E             dE          RMSdq      gap      omega  full diag
   1    -75.3219487 -0.753219E+02  0.402E-02    2.06       0.0  T
   2    -75.3219489 -0.189042E-06  0.238E-02    2.06       1.0  T
   3    -75.3219489 -0.274249E-07  0.143E-03    2.06      10.2  T
   4    -75.3219489 -0.454843E-07  0.817E-04    2.06      17.8  T
   5    -75.3219489 -0.940391E-08  0.439E-04    2.06      33.2  T
     SCC iter.                  ...        0 min,  0.014 sec
     gradient                   ...        0 min,  0.006 sec
 * total energy  :   -74.3143778 Eh     change       -0.2860589E-04 Eh
   gradient norm :     0.0010118 Eh/α   predicted    -0.2003766E-04 ( -29.95%)
   displ. norm   :     0.1774675 α      lambda       -0.1502116E-04
   maximum displ.:     0.1101563 α      in ANC's #1, #8, #5, ...

........................................................................
.............................. CYCLE   48 ..............................
........................................................................

 iter      E             dE          RMSdq      gap      omega  full diag
   1    -75.3213638 -0.753214E+02  0.431E-02    2.06       0.0  T
   2    -75.3213640 -0.186160E-06  0.255E-02    2.06       1.0  T
   3    -75.3213640 -0.429119E-07  0.135E-03    2.06      10.8  T
   4    -75.3213641 -0.404652E-07  0.727E-04    2.06      20.1  T
   5    -75.3213641 -0.409258E-08  0.347E-04    2.06      42.1  T
     SCC iter.                  ...        0 min,  0.014 sec
     gradient                   ...        0 min,  0.006 sec
 * total energy  :   -74.3143900 Eh     change       -0.1222367E-04 Eh
   gradient norm :     0.0014725 Eh/α   predicted    -0.7615820E-05 ( -37.70%)
   displ. norm   :     0.0330546 α      lambda       -0.5771121E-05
   maximum displ.:     0.0262826 α      in ANC's #1, #10, #8, ...

........................................................................
.............................. CYCLE   49 ..............................
........................................................................

 iter      E             dE          RMSdq      gap      omega  full diag
   1    -75.3218161 -0.753218E+02  0.788E-03    2.06       0.0  T
   2    -75.3218161 -0.137229E-07  0.465E-03    2.06       3.1  T
   3    -75.3218161  0.570832E-08  0.521E-04    2.06      28.0  T
   4    -75.3218162 -0.100965E-07  0.201E-04    2.06      72.4  T
     SCC iter.                  ...        0 min,  0.011 sec
     gradient                   ...        0 min,  0.006 sec
 * total energy  :   -74.3143975 Eh     change       -0.7459674E-05 Eh
   gradient norm :     0.0006089 Eh/α   predicted    -0.2923598E-05 ( -60.81%)
   displ. norm   :     0.0594175 α      lambda       -0.9254371E-05
   maximum displ.:     0.0420673 α      in ANC's #1, #10, #6, ...

........................................................................
.............................. CYCLE   50 ..............................
........................................................................

 iter      E             dE          RMSdq      gap      omega  full diag
   1    -75.3223079 -0.753223E+02  0.150E-02    2.06       0.0  T
   2    -75.3223080 -0.444382E-07  0.887E-03    2.06       1.6  T
   3    -75.3223079  0.702309E-07  0.140E-03    2.06      10.4  T
   4    -75.3223080 -0.876584E-07  0.413E-04    2.06      35.3  T
   5    -75.3223080 -0.295921E-08  0.236E-04    2.06      61.8  T
     SCC iter.                  ...        0 min,  0.014 sec
     gradient                   ...        0 min,  0.006 sec
 * total energy  :   -74.3144077 Eh     change       -0.1022910E-04 Eh
   gradient norm :     0.0007810 Eh/α   predicted    -0.4638413E-05 ( -54.65%)
   displ. norm   :     0.0614755 α      lambda       -0.5914560E-05
   maximum displ.:     0.0460463 α      in ANC's #1, #10, #6, ...

........................................................................
.............................. CYCLE   51 ..............................
........................................................................

 iter      E             dE          RMSdq      gap      omega  full diag
   1    -75.3223858 -0.753224E+02  0.149E-02    2.06       0.0  T
   2    -75.3223858 -0.303098E-07  0.882E-03    2.06       1.7  T
   3    -75.3223858  0.679668E-08  0.727E-04    2.06      20.1  T
   4    -75.3223858 -0.187386E-07  0.284E-04    2.06      51.4  T
     SCC iter.                  ...        0 min,  0.011 sec
     gradient                   ...        0 min,  0.006 sec
 * total energy  :   -74.3144149 Eh     change       -0.7117052E-05 Eh
   gradient norm :     0.0010694 Eh/α   predicted    -0.2964361E-05 ( -58.35%)
   displ. norm   :     0.0534451 α      lambda       -0.4917207E-05
   maximum displ.:     0.0412005 α      in ANC's #1, #6, #9, ...

........................................................................
.............................. CYCLE   52 ..............................
........................................................................

 iter      E             dE          RMSdq      gap      omega  full diag
   1    -75.3222727 -0.753223E+02  0.124E-02    2.06       0.0  T
   2    -75.3222727 -0.153038E-07  0.731E-03    2.06       2.0  T
   3    -75.3222727  0.465141E-08  0.576E-04    2.06      25.3  T
   4    -75.3222727 -0.117318E-07  0.243E-04    2.06      59.9  T
     SCC iter.                  ...        0 min,  0.011 sec
     gradient                   ...        0 min,  0.006 sec
 * total energy  :   -74.3144211 Eh     change       -0.6293930E-05 Eh
   gradient norm :     0.0008224 Eh/α   predicted    -0.2462876E-05 ( -60.87%)
   displ. norm   :     0.0480453 α      lambda       -0.4726055E-05
   maximum displ.:     0.0388378 α      in ANC's #1, #2, #9, ...

........................................................................
.............................. CYCLE   53 ..............................
........................................................................

 iter      E             dE          RMSdq      gap      omega  full diag
   1    -75.3220359 -0.753220E+02  0.103E-02    2.06       0.0  T
   2    -75.3220359 -0.112710E-07  0.607E-03    2.06       2.4  T
   3    -75.3220359  0.307685E-08  0.450E-04    2.06      32.4  T
   4    -75.3220359 -0.741633E-08  0.174E-04    2.06      83.7  T
     SCC iter.                  ...        0 min,  0.011 sec
     gradient                   ...        0 min,  0.006 sec
 * total energy  :   -74.3144274 Eh     change       -0.6259382E-05 Eh
   gradient norm :     0.0003166 Eh/α   predicted    -0.2366993E-05 ( -62.18%)
   displ. norm   :     0.0475095 α      lambda       -0.4517982E-05
   maximum displ.:     0.0400639 α      in ANC's #1, #2, #9, ...

........................................................................
.............................. CYCLE   54 ..............................
........................................................................

 iter      E             dE          RMSdq      gap      omega  full diag
   1    -75.3219074 -0.753219E+02  0.937E-03    2.06       0.0  T
   2    -75.3219074 -0.112854E-07  0.553E-03    2.06       2.6  T
   3    -75.3219074  0.177532E-08  0.390E-04    2.06      37.4  T
   4    -75.3219074 -0.529216E-08  0.155E-04    2.06      94.3  T
     SCC iter.                  ...        0 min,  0.011 sec
     gradient                   ...        0 min,  0.006 sec
 * total energy  :   -74.3144335 Eh     change       -0.6086816E-05 Eh
   gradient norm :     0.0004251 Eh/α   predicted    -0.2264824E-05 ( -62.79%)
   displ. norm   :     0.0454126 α      lambda       -0.4123107E-05
   maximum displ.:     0.0386682 α      in ANC's #1, #2, #4, ...

........................................................................
.............................. CYCLE   55 ..............................
........................................................................

 iter      E             dE          RMSdq      gap      omega  full diag
   1    -75.3218693 -0.753219E+02  0.852E-03    2.06       0.0  T
   2    -75.3218693 -0.106575E-07  0.503E-03    2.06       2.9  T
   3    -75.3218693  0.119128E-07  0.607E-04    2.06      24.0  T
   4    -75.3218693 -0.156046E-07  0.195E-04    2.06      74.8  T
     SCC iter.                  ...        0 min,  0.011 sec
     gradient                   ...        0 min,  0.006 sec
 * total energy  :   -74.3144392 Eh     change       -0.5679804E-05 Eh
   gradient norm :     0.0006281 Eh/α   predicted    -0.2064648E-05 ( -63.65%)
   displ. norm   :     0.0448091 α      lambda       -0.3995059E-05
   maximum displ.:     0.0381534 α      in ANC's #1, #2, #16, ...

........................................................................
.............................. CYCLE   56 ..............................
........................................................................

 iter      E             dE          RMSdq      gap      omega  full diag
   1    -75.3219092 -0.753219E+02  0.830E-03    2.06       0.0  T
   2    -75.3219093 -0.846876E-08  0.492E-03    2.06       3.0  T
   3    -75.3219092  0.998691E-08  0.567E-04    2.06      25.7  T
   4    -75.3219093 -0.139594E-07  0.182E-04    2.06      80.3  T
     SCC iter.                  ...        0 min,  0.011 sec
     gradient                   ...        0 min,  0.006 sec
 * total energy  :   -74.3144449 Eh     change       -0.5688878E-05 Eh
   gradient norm :     0.0006346 Eh/α   predicted    -0.2004049E-05 ( -64.77%)
   displ. norm   :     0.0454784 α      lambda       -0.4125216E-05
   maximum displ.:     0.0385650 α      in ANC's #1, #2, #10, ...

........................................................................
.............................. CYCLE   57 ..............................
........................................................................

 iter      E             dE          RMSdq      gap      omega  full diag
   1    -75.3219957 -0.753220E+02  0.819E-03    2.06       0.0  T
   2    -75.3219958 -0.929140E-08  0.486E-03    2.06       3.0  T
   3    -75.3219957  0.118310E-07  0.599E-04    2.06      24.3  T
   4    -75.3219958 -0.167890E-07  0.180E-04    2.06      80.9  T
     SCC iter.                  ...        0 min,  0.011 sec
     gradient                   ...        0 min,  0.006 sec
 * total energy  :   -74.3144507 Eh     change       -0.5878850E-05 Eh
   gradient norm :     0.0004753 Eh/α   predicted    -0.2068091E-05 ( -64.82%)
   displ. norm   :     0.0477617 α      lambda       -0.4281326E-05
   maximum displ.:     0.0404695 α      in ANC's #1, #2, #10, ...

........................................................................
.............................. CYCLE   58 ..............................
........................................................................

 iter      E             dE          RMSdq      gap      omega  full diag
   1    -75.3220964 -0.753221E+02  0.849E-03    2.06       0.0  T
   2    -75.3220964 -0.968133E-08  0.503E-03    2.06       2.9  T
   3    -75.3220964  0.963728E-08  0.543E-04    2.06      26.9  T
   4    -75.3220964 -0.150276E-07  0.170E-04    2.06      85.6  T
     SCC iter.                  ...        0 min,  0.011 sec
     gradient                   ...        0 min,  0.006 sec
 * total energy  :   -74.3144568 Eh     change       -0.6066607E-05 Eh
   gradient norm :     0.0002679 Eh/α   predicted    -0.2145308E-05 ( -64.64%)
   displ. norm   :     0.0486521 α      lambda       -0.4175957E-05
   maximum displ.:     0.0414135 α      in ANC's #1, #2, #8, ...

........................................................................
.............................. CYCLE   59 ..............................
........................................................................

 iter      E             dE          RMSdq      gap      omega  full diag
   1    -75.3221973 -0.753222E+02  0.810E-03    2.06       0.0  T
   2    -75.3221973 -0.951377E-08  0.479E-03    2.06       3.0  T
   3    -75.3221973  0.161884E-07  0.626E-04    2.06      23.3  T
   4    -75.3221973 -0.218376E-07  0.166E-04    2.06      88.0  T
     SCC iter.                  ...        0 min,  0.011 sec
     gradient                   ...        0 min,  0.006 sec
 * total energy  :   -74.3144627 Eh     change       -0.5918890E-05 Eh
   gradient norm :     0.0002024 Eh/α   predicted    -0.2091921E-05 ( -64.66%)
   displ. norm   :     0.0462623 α      lambda       -0.3793223E-05
   maximum displ.:     0.0396339 α      in ANC's #1, #2, #8, ...

........................................................................
.............................. CYCLE   60 ..............................
........................................................................

 iter      E             dE          RMSdq      gap      omega  full diag
   1    -75.3222524 -0.753223E+02  0.737E-03    2.06       0.0  T
   2    -75.3222524 -0.696249E-08  0.435E-03    2.06       3.4  T
   3    -75.3222524  0.262812E-07  0.760E-04    2.06      19.2  T
   4    -75.3222524 -0.311398E-07  0.165E-04    2.06      88.1  T
     SCC iter.                  ...        0 min,  0.011 sec
     gradient                   ...        0 min,  0.006 sec
 * total energy  :   -74.3144682 Eh     change       -0.5466854E-05 Eh
   gradient norm :     0.0002947 Eh/α   predicted    -0.1899396E-05 ( -65.26%)
   displ. norm   :     0.0425366 α      lambda       -0.3459408E-05
   maximum displ.:     0.0365737 α      in ANC's #1, #2, #8, ...

........................................................................
.............................. CYCLE   61 ..............................
........................................................................

 iter      E             dE          RMSdq      gap      omega  full diag
   1    -75.3222931 -0.753223E+02  0.648E-03    2.06       0.0  T
   2    -75.3222931 -0.449849E-08  0.382E-03    2.06       3.8  T
   3    -75.3222931  0.808153E-08  0.465E-04    2.06      31.4  T
   4    -75.3222931 -0.107377E-07  0.134E-04    2.06     109.0  T
     SCC iter.                  ...        0 min,  0.011 sec
     gradient                   ...        0 min,  0.006 sec
 * total energy  :   -74.3144732 Eh     change       -0.5034047E-05 Eh
[...]
C10-C9-C8-C3=179.51           C10-C9-C8-C17=  1.31          H32-C9-C8-C3=358.81           H32-C9-C8-C17=180.61          
C11-C10-C9-C8=359.49          C11-C10-C9-H32=180.19         H33-C10-C9-C8=179.42          H33-C10-C9-H32=  0.12         
           -------------------------------------------------
          |                Final Singlepoint                |
           -------------------------------------------------

          ...................................................
          :                      SETUP                      :
          :.................................................:
          :  # basis functions                 122          :
          :  # atomic orbitals                 122          :
          :  # shells                           72          :
          :  # electrons                       132          :
          :  max. iterations                   250          :
          :  Hamiltonian                  GFN2-xTB          :
          :  restarted?                      false          :
          :  GBSA solvation                  false          :
          :  PC potential                    false          :
          :  electronic temp.          300.0000000     K    :
          :  accuracy                    1.0000000          :
          :  -> integral cutoff          0.2500000E+02      :
          :  -> integral neglect         0.1000000E-07      :
          :  -> SCF convergence          0.1000000E-05 Eh   :
          :  -> wf. convergence          0.1000000E-03 e    :
          :  Broyden damping             0.4000000          :
          :  net charge                          0          :
          :  unpaired electrons                  0          :
          ...................................................

 iter      E             dE          RMSdq      gap      omega  full diag
   1    -75.3222932 -0.753223E+02  0.647E-05    2.06       0.0  T
   2    -75.3222932 -0.236327E-10  0.433E-05    2.06     336.8  T
   3    -75.3222932 -0.162146E-10  0.295E-05    2.06     493.7  T

   *** convergence criteria satisfied after 3 iterations ***

         #    Occupation            Energy/Eh            Energy/eV
      -------------------------------------------------------------
         1        2.0000           -0.7217305             -19.6393
       ...           ...                  ...                  ...
        60        2.0000           -0.4179463             -11.3729
        61        2.0000           -0.4176963             -11.3661
        62        2.0000           -0.4112619             -11.1910
        63        2.0000           -0.4098538             -11.1527
        64        2.0000           -0.4008595             -10.9079
        65        2.0000           -0.3915295             -10.6541
        66        2.0000           -0.3748320             -10.1997 (HOMO)
        67                         -0.2990580              -8.1378 (LUMO)
        68                         -0.2345694              -6.3830
        69                         -0.2311583              -6.2901
        70                         -0.2282476              -6.2109
        71                         -0.2157813              -5.8717
       ...                                ...                  ...
       122                          0.6935261              18.8718
      -------------------------------------------------------------
                  HL-Gap            0.0757740 Eh            2.0619 eV
             Fermi-level           -0.3369450 Eh           -9.1687 eV

 SCC (total)                   0 d,  0 h,  0 min,  0.019 sec
 SCC setup                      ...        0 min,  0.001 sec (  4.670%)
 Dispersion                     ...        0 min,  0.000 sec (  1.772%)
 classical contributions        ...        0 min,  0.000 sec (  0.858%)
 integral evaluation            ...        0 min,  0.001 sec (  7.833%)
 iterations                     ...        0 min,  0.009 sec ( 45.223%)
 molecular gradient             ...        0 min,  0.006 sec ( 32.411%)
 printout                       ...        0 min,  0.001 sec (  7.097%)

         :::::::::::::::::::::::::::::::::::::::::::::::::::::
         ::                     SUMMARY                     ::
         :::::::::::::::::::::::::::::::::::::::::::::::::::::
         :: total energy             -74.314478102541 Eh    ::
         :: gradient norm              0.000352108734 Eh/a0 ::
         :: HOMO-LUMO gap              2.061916632556 eV    ::
         ::.................................................::
         :: SCC energy               -75.322155338022 Eh    ::
         :: -> isotropic ES            0.103492312438 Eh    ::
         :: -> anisotropic ES          0.001593443213 Eh    ::
         :: -> anisotropic XC          0.020851551410 Eh    ::
         :: -> dispersion             -0.047829519389 Eh    ::
         :: repulsion energy           1.007677235480 Eh    ::
         :: add. restraining           0.000000000000 Eh    ::
         :: total charge              -0.000000000000 e     ::
         :::::::::::::::::::::::::::::::::::::::::::::::::::::

           -------------------------------------------------
          |                Property Printout                |
           -------------------------------------------------

    * Orbital Energies and Occupations

         #    Occupation            Energy/Eh            Energy/eV
      -------------------------------------------------------------
         1        2.0000           -0.7217305             -19.6393
       ...           ...                  ...                  ...
        54        2.0000           -0.4484412             -12.2027
        55        2.0000           -0.4459224             -12.1342
        56        2.0000           -0.4392623             -11.9529
        57        2.0000           -0.4305192             -11.7150
        58        2.0000           -0.4266287             -11.6092
        59        2.0000           -0.4247464             -11.5579
        60        2.0000           -0.4179463             -11.3729
        61        2.0000           -0.4176963             -11.3661
        62        2.0000           -0.4112619             -11.1910
        63        2.0000           -0.4098538             -11.1527
        64        2.0000           -0.4008595             -10.9079
        65        2.0000           -0.3915295             -10.6541
        66        2.0000           -0.3748320             -10.1997 (HOMO)
        67                         -0.2990580              -8.1378 (LUMO)
        68                         -0.2345694              -6.3830
        69                         -0.2311583              -6.2901
        70                         -0.2282476              -6.2109
        71                         -0.2157813              -5.8717
        72                         -0.1638236              -4.4579
        73                         -0.0968870              -2.6364
        74                         -0.0891456              -2.4258
        75                         -0.0039368              -0.1071
        76                          0.0116321               0.3165
        77                          0.0304210               0.8278
       ...                                ...                  ...
       122                          0.6935261              18.8718
      -------------------------------------------------------------
                  HL-Gap            0.0757740 Eh            2.0619 eV
             Fermi-level           -0.3369450 Eh           -9.1687 eV

     #   Z          covCN         q      C6AA      α(0)
     1   8 O        0.857    -0.364    20.971     6.140
     2   6 C        2.832     0.213    23.510     7.946
     3   6 C        3.701     0.251    16.868     5.873
     4   8 O        1.700    -0.341    19.727     5.997
     5   6 C        3.645     0.045    20.143     6.450
     6   8 O        1.701    -0.320    19.343     5.938
     7   6 C        3.645     0.044    20.158     6.453
     8   6 C        2.982    -0.016    28.415     8.744
     9   6 C        2.922    -0.034    28.849     8.808
    10   6 C        2.921    -0.055    29.357     8.885
    11   6 C        2.860     0.144    24.869     8.174
    12   8 O        1.706    -0.273    18.529     5.812
    13   6 C        3.688     0.064    19.684     6.350
    14   6 C        3.672     0.069    19.647     6.353
    15   8 O        1.656    -0.434    21.518     6.262
    16   6 C        2.918    -0.065    29.616     8.924
    17   6 C        2.922    -0.028    28.692     8.784
    18   6 C        2.892    -0.063    29.577     8.917
    19   6 C        2.908    -0.007    28.193     8.706
    20   6 C        2.970     0.017    27.621     8.621
    21   6 C        2.928    -0.028    28.699     8.785
    22   6 C        2.916    -0.027    28.675     8.781
    23   6 C        2.920    -0.024    28.605     8.771
    24   6 C        2.917    -0.027    28.675     8.781
    25   6 C        2.923    -0.027    28.687     8.783
    26   1 H        0.925     0.056     2.246     2.344
    27   1 H        0.924     0.044     2.391     2.418
    28   1 H        0.924     0.032     2.553     2.499
    29   1 H        0.925     0.057     2.229     2.335
    30   1 H        0.924     0.041     2.430     2.438
    31   1 H        0.924     0.037     2.495     2.470
    32   1 H        0.926     0.045     2.387     2.416
    33   1 H        0.926     0.054     2.272     2.357
    34   1 H        0.924     0.065     2.142     2.289
    35   1 H        0.923     0.032     2.562     2.503
    36   1 H        0.923     0.031     2.570     2.507
    37   1 H        0.924     0.064     2.152     2.294
    38   1 H        0.805     0.289     0.755     1.365
    39   1 H        0.926     0.038     2.472     2.459
    40   1 H        0.926     0.065     2.144     2.290
    41   1 H        0.926     0.066     2.127     2.280
    42   1 H        0.925     0.070     2.081     2.256
    43   1 H        0.926     0.042     2.425     2.435
    44   1 H        0.926     0.038     2.478     2.462
    45   1 H        0.926     0.038     2.478     2.461
    46   1 H        0.926     0.037     2.482     2.464
    47   1 H        0.926     0.043     2.411     2.428

 Mol. C6AA /au·bohr⁶  :      24517.942177
 Mol. C8AA /au·bohr⁸  :     577063.044396
 Mol. α(0) /au        :        243.809735


Wiberg/Mayer (AO) data.
largest (>0.10) Wiberg bond orders for each atom

 ---------------------------------------------------------------------------
     #   Z sym  total        # sym  WBO       # sym  WBO       # sym  WBO
 ---------------------------------------------------------------------------
     1   8 O    2.060 --     2 C    1.793
     2   6 C    3.925 --     1 O    1.793    18 C    1.083     3 C    0.903
     3   6 C    3.924 --     6 O    0.976     4 O    0.957     8 C    0.944
                             2 C    0.903
     4   8 O    2.074 --     5 C    0.980     3 C    0.957
     5   6 C    3.946 --    26 H    0.981     4 O    0.980    27 H    0.979
                            28 H    0.978
     6   8 O    2.092 --     7 C    0.980     3 C    0.976
     7   6 C    3.945 --    29 H    0.981    31 H    0.980     6 O    0.980
                            30 H    0.979
     8   6 C    3.980 --    17 C    1.415     9 C    1.386     3 C    0.944
     9   6 C    3.990 --    10 C    1.476     8 C    1.386    32 H    0.967
                            16 C    0.101
    10   6 C    3.987 --     9 C    1.476    11 C    1.344    33 H    0.967
                            17 C    0.107
    11   6 C    3.933 --    16 C    1.376    10 C    1.344    12 O    1.059
    12   8 O    2.233 --    11 C    1.059    13 C    0.977
    13   6 C    3.945 --    14 C    0.979    12 O    0.977    34 H    0.969
                            35 H    0.964
    14   6 C    3.953 --    15 O    1.006    13 C    0.979    37 H    0.971
                            36 H    0.968
    15   8 O    1.966 --    14 C    1.006    38 H    0.902
    16   6 C    3.987 --    17 C    1.440    11 C    1.376    39 H    0.963
                             9 C    0.101
    17   6 C    3.988 --    16 C    1.440     8 C    1.415    40 H    0.965
                            10 C    0.107
    18   6 C    3.987 --    19 C    1.740     2 C    1.083    41 H    0.957
    19   6 C    3.978 --    18 C    1.740    20 C    1.125    42 H    0.957
    20   6 C    3.990 --    21 C    1.360    25 C    1.357    19 C    1.125
    21   6 C    3.990 --    22 C    1.462    20 C    1.360    43 H    0.968
                            24 C    0.102
    22   6 C    3.992 --    21 C    1.462    23 C    1.429    44 H    0.970
                            25 C    0.104
    23   6 C    3.979 --    22 C    1.429    24 C    1.424    45 H    0.971
    24   6 C    3.992 --    25 C    1.468    23 C    1.424    46 H    0.970
                            21 C    0.102
    25   6 C    3.991 --    24 C    1.468    20 C    1.357    47 H    0.965
                            22 C    0.104
    26   1 H    0.996 --     5 C    0.981
    27   1 H    0.998 --     5 C    0.979
    28   1 H    0.999 --     5 C    0.978
    29   1 H    0.996 --     7 C    0.981
    30   1 H    0.998 --     7 C    0.979
    31   1 H    0.999 --     7 C    0.980
    32   1 H    0.997 --     9 C    0.967
    33   1 H    0.997 --    10 C    0.967
    34   1 H    0.995 --    13 C    0.969
    35   1 H    0.999 --    13 C    0.964
    36   1 H    0.999 --    14 C    0.968
    37   1 H    0.996 --    14 C    0.971
    38   1 H    0.916 --    15 O    0.902
    39   1 H    0.998 --    16 C    0.963
    40   1 H    0.996 --    17 C    0.965
    41   1 H    0.996 --    18 C    0.957
    42   1 H    0.994 --    19 C    0.957
    43   1 H    0.998 --    21 C    0.968
    44   1 H    0.998 --    22 C    0.970
    45   1 H    0.998 --    23 C    0.971
    46   1 H    0.998 --    24 C    0.970
    47   1 H    0.998 --    25 C    0.965
 ---------------------------------------------------------------------------

Topologies differ in total number of bonds
Writing topology from bond orders to xtbtopo.mol

molecular dipole:
                 x           y           z       tot (Debye)
 q only:       -0.804       0.166      -0.748
   full:       -0.814      -0.119      -0.982       3.256
molecular quadrupole (traceless):
                xx          xy          yy          xz          yz          zz
 q only:       15.624     -10.707      -8.450      -7.368       1.678      -7.174
  q+dip:       16.936     -18.116     -10.477      -9.779      -0.612      -6.458
   full:       16.190     -15.452      -9.103      -9.943       1.001      -7.087

           -------------------------------------------------
          |                Geometry Summary                 |
           -------------------------------------------------

      molecular mass/u    :      342.3864391
   center of mass at/Å    :        0.0146824       0.1786945       0.0891325
  moments of inertia/u·Å² :        0.1583516E+04   0.5400465E+04   0.6112703E+04
rotational constants/cm⁻¹ :        0.1064570E-01   0.3121515E-02   0.2757803E-02

 * 44 selected distances

     #   Z          #   Z                                           value/Å
     1   8 O        2   6 C                                       1.2131940
     3   6 C        4   8 O                                       1.4144285
     4   8 O        5   6 C                                       1.4145016
     3   6 C        6   8 O                                       1.4034410
     6   8 O        7   6 C                                       1.4147153
     8   6 C        9   6 C                                       1.3914411
     9   6 C       10   6 C                                       1.3773788
    10   6 C       11   6 C                                       1.3966902
    11   6 C       12   8 O                                       1.3634651
    12   8 O       13   6 C                                       1.4081021
    13   6 C       14   6 C                                       1.5383693 (max)
    14   6 C       15   8 O                                       1.4044093
    11   6 C       16   6 C                                       1.3904826
     8   6 C       17   6 C                                       1.3844508
    16   6 C       17   6 C                                       1.3839188
    18   6 C       19   6 C                                       1.3434818
    20   6 C       21   6 C                                       1.3988940
    21   6 C       22   6 C                                       1.3809296
    22   6 C       23   6 C                                       1.3857448
    23   6 C       24   6 C                                       1.3866019
    20   6 C       25   6 C                                       1.3985918
    24   6 C       25   6 C                                       1.3804365
     5   6 C       26   1 H                                       1.0881980
     5   6 C       27   1 H                                       1.0930191
     5   6 C       28   1 H                                       1.0945550
     7   6 C       29   1 H                                       1.0884040
     7   6 C       30   1 H                                       1.0935111
     7   6 C       31   1 H                                       1.0942828
     9   6 C       32   1 H                                       1.0797213
    10   6 C       33   1 H                                       1.0783641
    13   6 C       34   1 H                                       1.0938108
    13   6 C       35   1 H                                       1.0989574
    14   6 C       36   1 H                                       1.0988214
    14   6 C       37   1 H                                       1.0919231
    15   8 O       38   1 H                                       0.9638447 (min)
    16   6 C       39   1 H                                       1.0784899
    17   6 C       40   1 H                                       1.0774042
    18   6 C       41   1 H                                       1.0763499
    19   6 C       42   1 H                                       1.0844537
    21   6 C       43   1 H                                       1.0804884
    22   6 C       44   1 H                                       1.0800602
    23   6 C       45   1 H                                       1.0798515
    24   6 C       46   1 H                                       1.0802089
    25   6 C       47   1 H                                       1.0786863

 * 4 distinct bonds (by element types)

   Z      Z             #   av. dist./Å        max./Å        min./Å
   1 H    6 C          21     1.0861696     1.0989574     1.0763499
   6 C    6 C          14     1.3955294     1.5383693     1.3434818
   1 H    8 O           1     0.9638447     0.9638447     0.9638447
   6 C    8 O           8     1.3795321     1.4147153     1.2131940


optimized geometry written to: xtbopt.xyz


           -------------------------------------------------
          | TOTAL ENERGY              -74.314478102541 Eh   |
          | GRADIENT NORM               0.000352108734 Eh/α |
          | HOMO-LUMO GAP               2.061916632556 eV   |
           -------------------------------------------------

------------------------------------------------------------------------
 * finished run on 2025/12/01 at 14:19:37.110     
------------------------------------------------------------------------
 total:
 * wall-time:     0 d,  0 h,  0 min,  1.951 sec
 *  cpu-time:     0 d,  0 h,  0 min, 44.544 sec
 * ratio c/w:    22.834 speedup
 SCF:
 * wall-time:     0 d,  0 h,  0 min,  0.044 sec
 *  cpu-time:     0 d,  0 h,  0 min,  0.989 sec
 * ratio c/w:    22.635 speedup
 ANC optimizer:
 * wall-time:     0 d,  0 h,  0 min,  1.896 sec
 *  cpu-time:     0 d,  0 h,  0 min, 43.354 sec
 * ratio c/w:    22.866 speedup

normal termination of xtb
