      -----------------------------------------------------------      
     |                   =====================                   |     
     |                           x T B                           |     
     |                   =====================                   |     
     |                         S. Grimme                         |     
     |          Mulliken Center for Theoretical Chemistry        |     
     |                    University of Bonn                     |     
      -----------------------------------------------------------      

   * xtb version 6.7.1 (edcfbbe) compiled by 'albert@albert-system' on 2024-07-22

   xtb is free software: you can redistribute it and/or modify it under
   the terms of the GNU Lesser General Public License as published by
   the Free Software Foundation, either version 3 of the License, or
   (at your option) any later version.
   
   xtb is distributed in the hope that it will be useful,
   but WITHOUT ANY WARRANTY; without even the implied warranty of
   MERCHANTABILITY or FITNESS FOR A PARTICULAR PURPOSE.  See the
   GNU Lesser General Public License for more details.
   
   Cite this work as:
   * C. Bannwarth, E. Caldeweyher, S. Ehlert, A. Hansen, P. Pracht,
     J. Seibert, S. Spicher, S. Grimme, WIREs Comput. Mol. Sci., 2020, 11,
     e01493. DOI: 10.1002/wcms.1493
   
   for GFN2-xTB:
   * C. Bannwarth, S. Ehlert and S. Grimme., J. Chem. Theory Comput., 2019,
     15, 1652-1671. DOI: 10.1021/acs.jctc.8b01176
   for GFN1-xTB:
   * S. Grimme, C. Bannwarth, P. Shushkov, J. Chem. Theory Comput., 2017,
     13, 1989-2009. DOI: 10.1021/acs.jctc.7b00118
   for GFN0-xTB:
   * P. Pracht, E. Caldeweyher, S. Ehlert, S. Grimme, ChemRxiv, 2019, preprint.
     DOI: 10.26434/chemrxiv.8326202.v1
   for GFN-FF:
   * S. Spicher and S. Grimme, Angew. Chem. Int. Ed., 2020, 59, 15665-15673.
     DOI: 10.1002/anie.202004239
   
   for ALPB and GBSA implicit solvation:
   * S. Ehlert, M. Stahn, S. Spicher, S. Grimme, J. Chem. Theory Comput.,
     2021, 17, 4250-4261. DOI: 10.1021/acs.jctc.1c00471
   
   for ddCOSMO and CPCM-X implicit solvation:
   * M. Stahn, S. Ehlert, S. Grimme, J. Phys. Chem. A,
     2023, XX, XXXX-XXXX. DOI: 10.1021/acs.jpca.3c04382
   
   for DFT-D4:
   * E. Caldeweyher, C. Bannwarth and S. Grimme, J. Chem. Phys., 2017,
     147, 034112. DOI: 10.1063/1.4993215
   * E. Caldeweyher, S. Ehlert, A. Hansen, H. Neugebauer, S. Spicher,
     C. Bannwarth and S. Grimme, J. Chem. Phys., 2019, 150, 154122.
     DOI: 10.1063/1.5090222
   * E. Caldeweyher, J.-M. Mewes, S. Ehlert and S. Grimme, Phys. Chem. Chem. Phys.
     2020, 22, 8499-8512. DOI: 10.1039/D0CP00502A
   
   for sTDA-xTB:
   * S. Grimme and C. Bannwarth, J. Chem. Phys., 2016, 145, 054103.
     DOI: 10.1063/1.4959605
   
   in the mass-spec context:
   * V. Asgeirsson, C. Bauer and S. Grimme, Chem. Sci., 2017, 8, 4879.
     DOI: 10.1039/c7sc00601b
   * J. Koopman and S. Grimme, ACS Omega 2019, 4, 12, 15120-15133.
     DOI: 10.1021/acsomega.9b02011
   
   for metadynamics refer to:
   * S. Grimme, J. Chem. Theory Comput., 2019, 155, 2847-2862
     DOI: 10.1021/acs.jctc.9b00143
   
   for SPH calculations refer to:
   * S. Spicher and S. Grimme, J. Chem. Theory Comput., 2021, 17, 1701-1714
     DOI: 10.1021/acs.jctc.0c01306
   
   for ONIOM refer to:
   * C. Plett, A. Katbashev, S. Ehlert, S. Grimme, M. Bursch,
     Phys. Chem. Chem. Phys., 2023, 25, 17860-17868. DOI: 10.1039/D3CP02178E
   
   for DIPRO refer to:
   * J. Kohn, N. Gildemeister, S. Grimme, D. Fazzi, A. Hansen,
     J. Chem. Phys., 2023, just accepted.
   
   for PTB refer to:
   * S. Grimme, M. Mueller, A. Hansen, J. Chem. Phys., 2023, 158, 124111.
     DOI: 10.1063/5.0137838
   
   with help from (in alphabetical order)
   P. Atkinson, C. Bannwarth, F. Bohle, G. Brandenburg, E. Caldeweyher
   M. Checinski, S. Dohm, S. Ehlert, S. Ehrlich, I. Gerasimov, C. Hölzer
   A. Katbashev, J. Kohn, J. Koopman, C. Lavigne, S. Lehtola, F. März, M. Müller,
   F. Musil, H. Neugebauer, J. Pisarek, C. Plett, P. Pracht, F. Pultar,
   J. Seibert, P. Shushkov, S. Spicher, M. Stahn, M. Steiner, T. Strunk,
   J. Stückrath, T. Rose, and J. Unsleber
   
 * started run on 2025/12/01 at 14:19:32.889     
   ID    Z sym.   atoms
    1    8 O      1, 4, 6, 12, 15
    2    6 C      2, 3, 5, 7-11, 13, 14, 16-25
    3    1 H      26-47

           -------------------------------------------------
          |                Calculation Setup                |
           -------------------------------------------------

          program call               : xtb pipeline_data/3_conformer_xyz/acrylates/rdkit/UUHZUEBKUREPBP-MDWZMJQESA-N_conf61.xyz --opt --gfn 2-xTB --iterations 250
          coordinate file            : pipeline_data/3_conformer_xyz/acrylates/rdkit/UUHZUEBKUREPBP-MDWZMJQESA-N_conf61.xyz
          omp threads                :                    24

########################################################################
[WARNING] Please study the warnings concerning your input carefully
-1- readin_getIntValue: could not parse '2-xTB'
########################################################################

           -------------------------------------------------
          |                 G F N 2 - x T B                 |
           -------------------------------------------------

        Reference                      10.1021/acs.jctc.8b01176
      * Hamiltonian:
        H0-scaling (s, p, d)           1.850000    2.230000    2.230000
        zeta-weighting                 0.500000
      * Dispersion:
        s8                             2.700000
        a1                             0.520000
        a2                             5.000000
        s9                             5.000000
      * Repulsion:
        kExp                           1.500000    1.000000
        rExp                           1.000000
      * Coulomb:
        alpha                          2.000000
        third order                    shell-resolved
        anisotropic                    true
        a3                             3.000000
        a5                             4.000000
        cn-shift                       1.200000
        cn-exp                         4.000000
        max-rad                        5.000000

q/qsh data taken from xtbrestart
CAMM data taken from xtbrestart

          ...................................................
          :                      SETUP                      :
          :.................................................:
          :  # basis functions                 122          :
          :  # atomic orbitals                 122          :
          :  # shells                           72          :
          :  # electrons                       132          :
          :  max. iterations                   250          :
          :  Hamiltonian                  GFN2-xTB          :
          :  restarted?                       true          :
          :  GBSA solvation                  false          :
          :  PC potential                    false          :
          :  electronic temp.          300.0000000     K    :
          :  accuracy                    1.0000000          :
          :  -> integral cutoff          0.2500000E+02      :
          :  -> integral neglect         0.1000000E-07      :
          :  -> SCF convergence          0.1000000E-05 Eh   :
          :  -> wf. convergence          0.1000000E-03 e    :
          :  Broyden damping             0.4000000          :
          :  net charge                          0          :
          :  unpaired electrons                  0          :
          ...................................................

 iter      E             dE          RMSdq      gap      omega  full diag
   1    -75.2620246 -0.752620E+02  0.529E+00    1.39       0.0  T
   2    -75.2747354 -0.127108E-01  0.315E+00    1.67       1.0  T
   3    -75.2627701  0.119653E-01  0.598E-01    1.79       1.0  T
   4    -75.2788232 -0.160531E-01  0.191E-01    1.84       1.0  T
   5    -75.2794715 -0.648239E-03  0.992E-02    1.81       1.0  T
   6    -75.2795237 -0.522530E-04  0.428E-02    1.82       1.0  T
   7    -75.2795586 -0.348945E-04  0.130E-02    1.81       1.1  T
   8    -75.2795621 -0.346187E-05  0.603E-03    1.81       2.4  T
   9    -75.2795627 -0.655790E-06  0.275E-03    1.81       5.3  T
  10    -75.2795628 -0.956561E-07  0.985E-04    1.81      14.8  T
  11    -75.2795628 -0.747428E-08  0.414E-04    1.81      35.3  T

   *** convergence criteria satisfied after 11 iterations ***

         #    Occupation            Energy/Eh            Energy/eV
      -------------------------------------------------------------
         1        2.0000           -0.7235135             -19.6878
       ...           ...                  ...                  ...
        60        2.0000           -0.4130124             -11.2386
        61        2.0000           -0.4121834             -11.2161
        62        2.0000           -0.4028860             -10.9631
        63        2.0000           -0.3997358             -10.8774
        64        2.0000           -0.3988620             -10.8536
        65        2.0000           -0.3844933             -10.4626
        66        2.0000           -0.3614862              -9.8365 (HOMO)
        67                         -0.2947957              -8.0218 (LUMO)
        68                         -0.2283731              -6.2143
        69                         -0.2257711              -6.1435
        70                         -0.2233459              -6.0776
        71                         -0.2098636              -5.7107
       ...                                ...                  ...
       122                          0.7477776              20.3481
      -------------------------------------------------------------
                  HL-Gap            0.0666905 Eh            1.8147 eV
             Fermi-level           -0.3281409 Eh           -8.9292 eV

 SCC (total)                   0 d,  0 h,  0 min,  0.061 sec
 SCC setup                      ...        0 min,  0.001 sec (  0.945%)
 Dispersion                     ...        0 min,  0.001 sec (  1.774%)
 classical contributions        ...        0 min,  0.000 sec (  0.267%)
 integral evaluation            ...        0 min,  0.003 sec (  5.659%)
 iterations                     ...        0 min,  0.050 sec ( 81.536%)
 molecular gradient             ...        0 min,  0.006 sec (  9.281%)
 printout                       ...        0 min,  0.000 sec (  0.466%)

         :::::::::::::::::::::::::::::::::::::::::::::::::::::
         ::                     SUMMARY                     ::
         :::::::::::::::::::::::::::::::::::::::::::::::::::::
         :: total energy             -74.259637560714 Eh    ::
         :: gradient norm              0.179886009183 Eh/a0 ::
         :: HOMO-LUMO gap              1.814741017701 eV    ::
         ::.................................................::
         :: SCC energy               -75.279545310031 Eh    ::
         :: -> isotropic ES            0.100541227257 Eh    ::
         :: -> anisotropic ES          0.004414451835 Eh    ::
         :: -> anisotropic XC          0.018194015793 Eh    ::
         :: -> dispersion             -0.047451895075 Eh    ::
         :: repulsion energy           1.019907749318 Eh    ::
         :: add. restraining           0.000000000000 Eh    ::
         :: total charge               0.000000000000 e     ::
         :::::::::::::::::::::::::::::::::::::::::::::::::::::

      ----------------------------------------------------------- 
     |                   =====================                   |
     |                        A N C O P T                        |
     |                   =====================                   |
     |               Approximate Normal Coordinate               |
     |                Rational Function Optimizer                |
      ----------------------------------------------------------- 
      ----------------------------------------------------------- 
     |                   =====================                   |
     |                        A N C O P T                        |
     |                   =====================                   |
     |               Approximate Normal Coordinate               |
     |                Rational Function Optimizer                |
      ----------------------------------------------------------- 

          ...................................................
          :                      SETUP                      :
          :.................................................:
          :   optimization level            normal          :
          :   max. optcycles                   200          :
          :   ANC micro-cycles                  20          :
          :   degrees of freedom               135          :
          :.................................................:
          :   RF solver                   davidson          :
          :   write xtbopt.log                true          :
          :   linear?                        false          :
          :   energy convergence         0.5000000E-05 Eh   :
          :   grad. convergence          0.1000000E-02 Eh/α :
          :   maxmium RF displ.          1.0000000          :
          :   Hlow (freq-cutoff)         0.1000000E-01      :
          :   Hmax (freq-cutoff)         5.0000000          :
          :   S6 in model hess.         20.0000000          :
          ...................................................

generating ANC from exact Hessian ...
Using Lindh-Hessian (1995)
 Shifting diagonal of input Hessian by   9.904729913581644E-003
 Lowest  eigenvalues of input Hessian
    0.000000    0.000000    0.000000    0.000000    0.000000    0.000000
    0.010000    0.010376    0.010574    0.010600    0.011025    0.011367
    0.011942    0.012251    0.012635    0.013107    0.014529    0.015212
 Highest eigenvalues
    2.015464    2.040852    2.063069    2.095441    2.168798    2.175673
 

........................................................................
.............................. CYCLE    1 ..............................
........................................................................

 iter      E             dE          RMSdq      gap      omega  full diag
   1    -75.2795628 -0.752796E+02  0.193E-04    1.81       0.0  T
   2    -75.2795628 -0.339114E-09  0.118E-04    1.81     123.5  T
   3    -75.2795628 -0.158025E-09  0.746E-05    1.81     195.6  T
     SCC iter.                  ...        0 min,  0.011 sec
     gradient                   ...        0 min,  0.005 sec
 * total energy  :   -74.2596376 Eh     change       -0.1790255E-08 Eh
   gradient norm :     0.1798837 Eh/α   predicted     0.0000000E+00 (-100.00%)
   displ. norm   :     0.3445327 α      lambda       -0.3758691E-01
   maximum displ.:     0.0920701 α      in ANC's #29, #59, #47, ...

........................................................................
.............................. CYCLE    2 ..............................
........................................................................

 iter      E             dE          RMSdq      gap      omega  full diag
   1    -75.2927197 -0.752927E+02  0.261E-01    1.85       0.0  T
   2    -75.2932169 -0.497192E-03  0.166E-01    1.81       1.0  T
   3    -75.2931633  0.535872E-04  0.842E-02    1.81       1.0  T
   4    -75.2932789 -0.115639E-03  0.331E-02    1.80       1.0  T
   5    -75.2933225 -0.435503E-04  0.929E-03    1.80       1.6  T
   6    -75.2933250 -0.250657E-05  0.356E-03    1.80       4.1  T
   7    -75.2933253 -0.356479E-06  0.163E-03    1.80       8.9  T
   8    -75.2933254 -0.248043E-07  0.684E-04    1.80      21.3  T
   9    -75.2933254 -0.476231E-08  0.259E-04    1.80      56.2  T
     SCC iter.                  ...        0 min,  0.029 sec
     gradient                   ...        0 min,  0.005 sec
 * total energy  :   -74.2862157 Eh     change       -0.2657812E-01 Eh
   gradient norm :     0.0759587 Eh/α   predicted    -0.2103404E-01 ( -20.86%)
   displ. norm   :     0.3459409 α      lambda       -0.1371220E-01
   maximum displ.:     0.1140731 α      in ANC's #29, #9, #11, ...

........................................................................
.............................. CYCLE    3 ..............................
........................................................................

 iter      E             dE          RMSdq      gap      omega  full diag
   1    -75.3010191 -0.753010E+02  0.211E-01    1.84       0.0  T
   2    -75.3012857 -0.266659E-03  0.131E-01    1.81       1.0  T
   3    -75.3012250  0.607003E-04  0.661E-02    1.81       1.0  T
   4    -75.3013147 -0.896625E-04  0.259E-02    1.80       1.0  T
   5    -75.3013409 -0.262023E-04  0.759E-03    1.80       1.9  T
   6    -75.3013427 -0.179225E-05  0.273E-03    1.80       5.3  T
   7    -75.3013429 -0.218166E-06  0.137E-03    1.80      10.7  T
   8    -75.3013429 -0.195763E-07  0.546E-04    1.80      26.7  T
   9    -75.3013429 -0.266679E-08  0.205E-04    1.80      71.0  T
     SCC iter.                  ...        0 min,  0.028 sec
     gradient                   ...        0 min,  0.006 sec
 * total energy  :   -74.2944456 Eh     change       -0.8229917E-02 Eh
   gradient norm :     0.0220269 Eh/α   predicted    -0.7680370E-02 (  -6.68%)
   displ. norm   :     0.3235136 α      lambda       -0.2666473E-02
   maximum displ.:     0.1558513 α      in ANC's #9, #11, #13, ...

........................................................................
.............................. CYCLE    4 ..............................
........................................................................

 iter      E             dE          RMSdq      gap      omega  full diag
   1    -75.2996841 -0.752997E+02  0.115E-01    1.81       0.0  T
   2    -75.2996973 -0.132491E-04  0.696E-02    1.80       1.0  T
   3    -75.2996605  0.368260E-04  0.293E-02    1.80       1.0  T
   4    -75.2997027 -0.421415E-04  0.609E-03    1.80       2.4  T
   5    -75.2997036 -0.961776E-06  0.286E-03    1.80       5.1  T
   6    -75.2997038 -0.164428E-06  0.126E-03    1.80      11.5  T
   7    -75.2997038 -0.130843E-07  0.654E-04    1.80      22.3  T
   8    -75.2997038 -0.778677E-08  0.195E-04    1.80      74.9  T
     SCC iter.                  ...        0 min,  0.049 sec
     gradient                   ...        0 min,  0.007 sec
 * total energy  :   -74.2964102 Eh     change       -0.1964558E-02 Eh
   gradient norm :     0.0145885 Eh/α   predicted    -0.1472821E-02 ( -25.03%)
   displ. norm   :     0.4135242 α      lambda       -0.1914932E-02
   maximum displ.:     0.2197528 α      in ANC's #9, #11, #13, ...

........................................................................
.............................. CYCLE    5 ..............................
........................................................................

 iter      E             dE          RMSdq      gap      omega  full diag
   1    -75.2984830 -0.752985E+02  0.120E-01    1.80       0.0  T
   2    -75.2984891 -0.608600E-05  0.724E-02    1.80       1.0  T
   3    -75.2984803  0.882554E-05  0.155E-02    1.80       1.0  T
   4    -75.2984918 -0.115230E-04  0.429E-03    1.80       3.4  T
   5    -75.2984919 -0.133471E-06  0.276E-03    1.80       5.3  T
   6    -75.2984921 -0.139945E-06  0.100E-03    1.80      14.5  T
   7    -75.2984921 -0.145037E-07  0.414E-04    1.80      35.3  T
   8    -75.2984921 -0.366339E-08  0.190E-04    1.80      76.9  T
     SCC iter.                  ...        0 min,  0.040 sec
     gradient                   ...        0 min,  0.007 sec
 * total energy  :   -74.2977151 Eh     change       -0.1304904E-02 Eh
   gradient norm :     0.0151355 Eh/α   predicted    -0.1121198E-02 ( -14.08%)
   displ. norm   :     0.3141316 α      lambda       -0.9122284E-03
   maximum displ.:     0.1731986 α      in ANC's #9, #11, #13, ...

........................................................................
.............................. CYCLE    6 ..............................
........................................................................

 iter      E             dE          RMSdq      gap      omega  full diag
   1    -75.2996812 -0.752997E+02  0.779E-02    1.79       0.0  T
   2    -75.2996859 -0.470305E-05  0.472E-02    1.80       1.0  T
   3    -75.2996791  0.678080E-05  0.128E-02    1.80       1.1  T
   4    -75.2996872 -0.808953E-05  0.341E-03    1.80       4.3  T
   5    -75.2996874 -0.256235E-06  0.183E-03    1.80       8.0  T
   6    -75.2996875 -0.780396E-07  0.845E-04    1.80      17.3  T
   7    -75.2996875 -0.956322E-08  0.339E-04    1.80      43.0  T
     SCC iter.                  ...        0 min,  0.023 sec
     gradient                   ...        0 min,  0.006 sec
 * total energy  :   -74.2983978 Eh     change       -0.6827354E-03 Eh
   gradient norm :     0.0137429 Eh/α   predicted    -0.5011246E-03 ( -26.60%)
   displ. norm   :     0.3341483 α      lambda       -0.8053265E-03
   maximum displ.:     0.1713552 α      in ANC's #9, #15, #2, ...

........................................................................
.............................. CYCLE    7 ..............................
........................................................................

 iter      E             dE          RMSdq      gap      omega  full diag
   1    -75.3018988 -0.753019E+02  0.804E-02    1.79       0.0  T
   2    -75.3019068 -0.797657E-05  0.487E-02    1.80       1.0  T
   3    -75.3018940  0.127790E-04  0.173E-02    1.80       1.0  T
   4    -75.3019086 -0.146329E-04  0.451E-03    1.80       3.2  T
   5    -75.3019092 -0.603879E-06  0.202E-03    1.80       7.2  T
   6    -75.3019093 -0.106955E-06  0.877E-04    1.80      16.6  T
   7    -75.3019093 -0.938537E-08  0.403E-04    1.80      36.2  T
     SCC iter.                  ...        0 min,  0.019 sec
     gradient                   ...        0 min,  0.006 sec
 * total energy  :   -74.2989767 Eh     change       -0.5788681E-03 Eh
   gradient norm :     0.0096810 Eh/α   predicted    -0.4476235E-03 ( -22.67%)
   displ. norm   :     0.3032191 α      lambda       -0.4787581E-03
   maximum displ.:     0.1311732 α      in ANC's #9, #15, #2, ...

........................................................................
.............................. CYCLE    8 ..............................
........................................................................

 iter      E             dE          RMSdq      gap      omega  full diag
   1    -75.3020353 -0.753020E+02  0.765E-02    1.79       0.0  T
   2    -75.3020395 -0.415245E-05  0.459E-02    1.80       1.0  T
   3    -75.3020362  0.328163E-05  0.917E-03    1.80       1.6  T
   4    -75.3020402 -0.402486E-05  0.305E-03    1.80       4.8  T
   5    -75.3020405 -0.275550E-06  0.149E-03    1.80       9.8  T
   6    -75.3020405 -0.387048E-07  0.741E-04    1.80      19.7  T
   7    -75.3020405 -0.887236E-08  0.312E-04    1.80      46.7  T
     SCC iter.                  ...        0 min,  0.019 sec
     gradient                   ...        0 min,  0.006 sec
 * total energy  :   -74.2993197 Eh     change       -0.3430340E-03 Eh
   gradient norm :     0.0086178 Eh/α   predicted    -0.2613888E-03 ( -23.80%)
   displ. norm   :     0.2523269 α      lambda       -0.3267432E-03
   maximum displ.:     0.1179864 α      in ANC's #2, #15, #9, ...

........................................................................
.............................. CYCLE    9 ..............................
........................................................................

 iter      E             dE          RMSdq      gap      omega  full diag
   1    -75.3036045 -0.753036E+02  0.670E-02    1.79       0.0  T
   2    -75.3036060 -0.158592E-05  0.398E-02    1.80       1.0  T
   3    -75.3036054  0.678126E-06  0.506E-03    1.80       2.9  T
   4    -75.3036065 -0.109203E-05  0.189E-03    1.80       7.7  T
   5    -75.3036065 -0.701133E-07  0.868E-04    1.80      16.8  T
   6    -75.3036065 -0.801828E-08  0.361E-04    1.80      40.4  T
     SCC iter.                  ...        0 min,  0.017 sec
     gradient                   ...        0 min,  0.006 sec
 * total energy  :   -74.2995391 Eh     change       -0.2194441E-03 Eh
   gradient norm :     0.0072478 Eh/α   predicted    -0.1737760E-03 ( -20.81%)
   displ. norm   :     0.2763608 α      lambda       -0.2489736E-03
   maximum displ.:     0.1230665 α      in ANC's #2, #15, #14, ...

........................................................................
.............................. CYCLE   10 ..............................
........................................................................

 iter      E             dE          RMSdq      gap      omega  full diag
   1    -75.3012617 -0.753013E+02  0.800E-02    1.79       0.0  T
   2    -75.3012634 -0.171842E-05  0.480E-02    1.79       1.0  T
   3    -75.3012615  0.192690E-05  0.794E-03    1.80       1.8  T
   4    -75.3012641 -0.256509E-05  0.281E-03    1.79       5.2  T
   5    -75.3012642 -0.134017E-06  0.135E-03    1.79      10.8  T
   6    -75.3012642 -0.241051E-07  0.456E-04    1.79      32.0  T
   7    -75.3012642 -0.391145E-08  0.176E-04    1.79      82.9  T
     SCC iter.                  ...        0 min,  0.020 sec
     gradient                   ...        0 min,  0.006 sec
 * total energy  :   -74.2996460 Eh     change       -0.1068817E-03 Eh
   gradient norm :     0.0114669 Eh/α   predicted    -0.1339954E-03 (  25.37%)
   displ. norm   :     0.1159551 α      lambda       -0.2145773E-03
   maximum displ.:     0.0639809 α      in ANC's #2, #14, #3, ...

........................................................................
.............................. CYCLE   11 ..............................
........................................................................

 iter      E             dE          RMSdq      gap      omega  full diag
   1    -75.3039079 -0.753039E+02  0.390E-02    1.80       0.0  T
   2    -75.3039090 -0.107027E-05  0.232E-02    1.79       1.0  T
   3    -75.3039078  0.121196E-05  0.589E-03    1.79       2.5  T
   4    -75.3039092 -0.141534E-05  0.187E-03    1.79       7.8  T
   5    -75.3039093 -0.103167E-06  0.828E-04    1.79      17.6  T
   6    -75.3039093 -0.147680E-07  0.371E-04    1.79      39.3  T
     SCC iter.                  ...        0 min,  0.017 sec
     gradient                   ...        0 min,  0.006 sec
 * total energy  :   -74.2997830 Eh     change       -0.1369516E-03 Eh
   gradient norm :     0.0060793 Eh/α   predicted    -0.1087455E-03 ( -20.60%)
   displ. norm   :     0.1504469 α      lambda       -0.1217504E-03
   maximum displ.:     0.0758053 α      in ANC's #2, #14, #13, ...

........................................................................
.............................. CYCLE   12 ..............................
........................................................................

 iter      E             dE          RMSdq      gap      omega  full diag
   1    -75.3045578 -0.753046E+02  0.469E-02    1.80       0.0  T
   2    -75.3045585 -0.766696E-06  0.279E-02    1.79       1.0  T
   3    -75.3045583  0.267700E-06  0.349E-03    1.79       4.2  T
   4    -75.3045587 -0.479122E-06  0.121E-03    1.79      12.0  T
   5    -75.3045588 -0.162189E-07  0.603E-04    1.79      24.2  T
   6    -75.3045588 -0.406268E-08  0.309E-04    1.79      47.2  T
     SCC iter.                  ...        0 min,  0.017 sec
     gradient                   ...        0 min,  0.006 sec
 * total energy  :   -74.2998795 Eh     change       -0.9652973E-04 Eh
   gradient norm :     0.0048392 Eh/α   predicted    -0.6226739E-04 ( -35.49%)
   displ. norm   :     0.2717968 α      lambda       -0.1926453E-03
   maximum displ.:     0.1390656 α      in ANC's #2, #14, #4, ...

........................................................................
.............................. CYCLE   13 ..............................
........................................................................

 iter      E             dE          RMSdq      gap      omega  full diag
   1    -75.3050376 -0.753050E+02  0.885E-02    1.80       0.0  T
   2    -75.3050397 -0.209859E-05  0.527E-02    1.79       1.0  T
   3    -75.3050392  0.501668E-06  0.528E-03    1.79       2.8  T
   4    -75.3050402 -0.103391E-05  0.214E-03    1.79       6.8  T
   5    -75.3050403 -0.666291E-07  0.107E-03    1.79      13.6  T
   6    -75.3050403 -0.686504E-08  0.497E-04    1.79      29.3  T
   7    -75.3050403 -0.580258E-08  0.194E-04    1.79      75.3  T
     SCC iter.                  ...        0 min,  0.020 sec
     gradient                   ...        0 min,  0.006 sec
 * total energy  :   -74.2999991 Eh     change       -0.1195493E-03 Eh
   gradient norm :     0.0047902 Eh/α   predicted    -0.1034417E-03 ( -13.47%)
   displ. norm   :     0.2743925 α      lambda        0.5449995E-04
   maximum displ.:     0.1403365 α      in ANC's #2, #14, #4, ...

........................................................................
.............................. CYCLE   14 ..............................
........................................................................

 iter      E             dE          RMSdq      gap      omega  full diag
   1    -75.3040463 -0.753040E+02  0.892E-02    1.80       0.0  T
   2    -75.3040484 -0.211237E-05  0.531E-02    1.80       1.0  T
   3    -75.3040478  0.589685E-06  0.545E-03    1.80       2.7  T
   4    -75.3040490 -0.114502E-05  0.214E-03    1.80       6.8  T
   5    -75.3040491 -0.644380E-07  0.106E-03    1.80      13.7  T
   6    -75.3040491 -0.697307E-08  0.442E-04    1.80      33.0  T
   7    -75.3040491 -0.364956E-08  0.194E-04    1.80      75.1  T
     SCC iter.                  ...        0 min,  0.019 sec
     gradient                   ...        0 min,  0.006 sec
 * total energy  :   -74.2999619 Eh     change        0.3717498E-04 Eh
   gradient norm :     0.0109847 Eh/α   predicted     0.2929694E-04 ( -21.19%)
   displ. norm   :     0.1000173 α      lambda       -0.1667023E-03
   maximum displ.:     0.0495339 α      in ANC's #2, #9, #14, ...

........................................................................
.............................. CYCLE   15 ..............................
........................................................................

 iter      E             dE          RMSdq      gap      omega  full diag
   1    -75.3041453 -0.753041E+02  0.357E-02    1.80       0.0  T
   2    -75.3041467 -0.144387E-05  0.211E-02    1.80       1.0  T
   3    -75.3041461  0.622634E-06  0.491E-03    1.80       3.0  T
   4    -75.3041469 -0.768481E-06  0.181E-03    1.80       8.0  T
   5    -75.3041470 -0.121432E-06  0.809E-04    1.80      18.0  T
   6    -75.3041470 -0.894310E-08  0.429E-04    1.80      34.0  T
     SCC iter.                  ...        0 min,  0.016 sec
     gradient                   ...        0 min,  0.006 sec
 * total energy  :   -74.3000471 Eh     change       -0.8521209E-04 Eh
   gradient norm :     0.0057203 Eh/α   predicted    -0.8418988E-04 (  -1.20%)
   displ. norm   :     0.1033616 α      lambda       -0.8657914E-04
   maximum displ.:     0.0543618 α      in ANC's #14, #13, #15, ...

........................................................................
.............................. CYCLE   16 ..............................
........................................................................

 iter      E             dE          RMSdq      gap      omega  full diag
   1    -75.3068493 -0.753068E+02  0.302E-02    1.80       0.0  T
   2    -75.3068502 -0.920570E-06  0.180E-02    1.80       1.0  T
   3    -75.3068496  0.645200E-06  0.462E-03    1.80       3.2  T
   4    -75.3068503 -0.717892E-06  0.177E-03    1.80       8.3  T
   5    -75.3068504 -0.118409E-06  0.628E-04    1.80      23.2  T
   6    -75.3068504 -0.349524E-08  0.314E-04    1.80      46.4  T
     SCC iter.                  ...        0 min,  0.015 sec
     gradient                   ...        0 min,  0.006 sec
 * total energy  :   -74.3000753 Eh     change       -0.2821355E-04 Eh
   gradient norm :     0.0038383 Eh/α   predicted    -0.4376064E-04 (  55.11%)
   displ. norm   :     0.1192417 α      lambda       -0.5845028E-04
   maximum displ.:     0.0649042 α      in ANC's #2, #6, #4, ...

........................................................................
.............................. CYCLE   17 ..............................
........................................................................

 iter      E             dE          RMSdq      gap      omega  full diag
   1    -75.3053625 -0.753054E+02  0.402E-02    1.80       0.0  T
   2    -75.3053630 -0.442612E-06  0.239E-02    1.80       1.0  T
   3    -75.3053627  0.277893E-06  0.291E-03    1.80       5.0  T
   4    -75.3053630 -0.336081E-06  0.128E-03    1.80      11.4  T
   5    -75.3053631 -0.534715E-07  0.540E-04    1.80      27.0  T
   6    -75.3053631 -0.186741E-08  0.240E-04    1.80      60.7  T
     SCC iter.                  ...        0 min,  0.015 sec
     gradient                   ...        0 min,  0.006 sec
 * total energy  :   -74.3001186 Eh     change       -0.4327030E-04 Eh
   gradient norm :     0.0014424 Eh/α   predicted    -0.2964282E-04 ( -31.49%)
   displ. norm   :     0.4204036 α      lambda       -0.7608766E-04
   maximum displ.:     0.2098840 α      in ANC's #2, #4, #6, ...

........................................................................
.............................. CYCLE   18 ..............................
........................................................................

 iter      E             dE          RMSdq      gap      omega  full diag
   1    -75.3015435 -0.753015E+02  0.138E-01    1.81       0.0  T
   2    -75.3015462 -0.276332E-05  0.820E-02    1.81       1.0  T
   3    -75.3015465 -0.302128E-06  0.568E-03    1.81       2.6  T
   4    -75.3015474 -0.871207E-06  0.291E-03    1.81       5.0  T
   5    -75.3015474 -0.492464E-07  0.133E-03    1.81      11.0  T
   6    -75.3015475 -0.342894E-07  0.417E-04    1.81      34.9  T
   7    -75.3015475 -0.145528E-08  0.228E-04    1.81      64.0  T
     SCC iter.                  ...        0 min,  0.030 sec
     gradient                   ...        0 min,  0.006 sec
 * total energy  :   -74.3001277 Eh     change       -0.9137686E-05 Eh
   gradient norm :     0.0062234 Eh/α   predicted    -0.4103300E-04 ( 349.05%)
   displ. norm   :     0.0714818 α      lambda       -0.7588461E-04
   maximum displ.:     0.0256271 α      in ANC's #13, #15, #2, ...

........................................................................
.............................. CYCLE   19 ..............................
........................................................................

 iter      E             dE          RMSdq      gap      omega  full diag
   1    -75.3036599 -0.753037E+02  0.246E-02    1.81       0.0  T
   2    -75.3036603 -0.324504E-06  0.149E-02    1.81       1.0  T
   3    -75.3036600  0.225588E-06  0.273E-03    1.81       5.3  T
   4    -75.3036603 -0.298600E-06  0.108E-03    1.81      13.5  T
   5    -75.3036604 -0.335667E-07  0.508E-04    1.81      28.7  T
   6    -75.3036604 -0.179384E-08  0.221E-04    1.81      66.0  T
     SCC iter.                  ...        0 min,  0.017 sec
     gradient                   ...        0 min,  0.006 sec
 * total energy  :   -74.3001721 Eh     change       -0.4439203E-04 Eh
   gradient norm :     0.0026344 Eh/α   predicted    -0.3813803E-04 ( -14.09%)
   displ. norm   :     0.0556677 α      lambda       -0.2844521E-04
   maximum displ.:     0.0226261 α      in ANC's #14, #10, #11, ...

........................................................................
.............................. CYCLE   20 ..............................
........................................................................

 iter      E             dE          RMSdq      gap      omega  full diag
   1    -75.3051239 -0.753051E+02  0.156E-02    1.81       0.0  T
   2    -75.3051241 -0.173040E-06  0.934E-03    1.81       1.6  T
   3    -75.3051239  0.151771E-06  0.205E-03    1.81       7.1  T
   4    -75.3051241 -0.191564E-06  0.605E-04    1.81      24.1  T
   5    -75.3051241 -0.838327E-08  0.305E-04    1.81      47.8  T
     SCC iter.                  ...        0 min,  0.014 sec
     gradient                   ...        0 min,  0.005 sec
 * total energy  :   -74.3001892 Eh     change       -0.1706336E-04 Eh
   gradient norm :     0.0017450 Eh/α   predicted    -0.1426904E-04 ( -16.38%)
   displ. norm   :     0.1075734 α      lambda       -0.2042020E-04
   maximum displ.:     0.0547159 α      in ANC's #4, #2, #5, ...
 * RMSD in coord.:     0.4294506 α      energy gain  -0.4055160E-01 Eh

generating ANC from exact Hessian ...
Using Lindh-Hessian (1995)
 Shifting diagonal of input Hessian by   9.915417116298928E-003
 Lowest  eigenvalues of input Hessian
    0.000000    0.000000    0.000000    0.000000    0.000000    0.000000
    0.010000    0.010374    0.010507    0.010572    0.010964    0.011361
    0.011854    0.012141    0.012466    0.012863    0.014490    0.014747
 Highest eigenvalues
    1.938612    2.010714    2.011670    2.083826    2.124678    2.169283
 

........................................................................
.............................. CYCLE   21 ..............................
........................................................................

 iter      E             dE          RMSdq      gap      omega  full diag
   1    -75.3060322 -0.753060E+02  0.330E-02    1.81       0.0  T
   2    -75.3060326 -0.324358E-06  0.195E-02    1.81       1.0  T
   3    -75.3060320  0.549767E-06  0.364E-03    1.81       4.0  T
   4    -75.3060327 -0.650043E-06  0.906E-04    1.81      16.1  T
   5    -75.3060327 -0.203930E-07  0.481E-04    1.81      30.3  T
     SCC iter.                  ...        0 min,  0.014 sec
     gradient                   ...        0 min,  0.005 sec
 * total energy  :   -74.3002114 Eh     change       -0.2223000E-04 Eh
   gradient norm :     0.0020100 Eh/α   predicted     0.0000000E+00 (-100.00%)
   displ. norm   :     0.0231633 α      lambda       -0.1413093E-04
   maximum displ.:     0.0113853 α      in ANC's #5, #4, #16, ...

........................................................................
.............................. CYCLE   22 ..............................
........................................................................

 iter      E             dE          RMSdq      gap      omega  full diag
   1    -75.3053154 -0.753053E+02  0.875E-03    1.81       0.0  T
   2    -75.3053154 -0.575108E-07  0.526E-03    1.81       2.8  T
   3    -75.3053154  0.547320E-07  0.122E-03    1.81      11.9  T
   4    -75.3053154 -0.630139E-07  0.404E-04    1.81      36.1  T
   5    -75.3053154 -0.583317E-08  0.163E-04    1.81      89.3  T
     SCC iter.                  ...        0 min,  0.017 sec
     gradient                   ...        0 min,  0.005 sec
 * total energy  :   -74.3002223 Eh     change       -0.1094218E-04 Eh
   gradient norm :     0.0007214 Eh/α   predicted    -0.7079564E-05 ( -35.30%)
   displ. norm   :     0.0987965 α      lambda       -0.2104075E-04
   maximum displ.:     0.0512015 α      in ANC's #5, #4, #16, ...

........................................................................
.............................. CYCLE   23 ..............................
........................................................................

 iter      E             dE          RMSdq      gap      omega  full diag
   1    -75.3039282 -0.753039E+02  0.320E-02    1.81       0.0  T
   2    -75.3039286 -0.315532E-06  0.191E-02    1.81       1.0  T
   3    -75.3039283  0.248006E-06  0.269E-03    1.81       5.4  T
   4    -75.3039286 -0.323913E-06  0.866E-04    1.81      16.8  T
   5    -75.3039287 -0.171837E-07  0.471E-04    1.81      31.0  T
     SCC iter.                  ...        0 min,  0.014 sec
     gradient                   ...        0 min,  0.006 sec
 * total energy  :   -74.3002397 Eh     change       -0.1733498E-04 Eh
   gradient norm :     0.0025556 Eh/α   predicted    -0.1056642E-04 ( -39.05%)
   displ. norm   :     0.0512588 α      lambda       -0.1318199E-04
   maximum displ.:     0.0271992 α      in ANC's #5, #4, #2, ...

........................................................................
.............................. CYCLE   24 ..............................
........................................................................

 iter      E             dE          RMSdq      gap      omega  full diag
   1    -75.3041310 -0.753041E+02  0.158E-02    1.81       0.0  T
   2    -75.3041310 -0.221495E-07  0.932E-03    1.81       1.6  T
   3    -75.3041310  0.172777E-07  0.812E-04    1.81      18.0  T
   4    -75.3041310 -0.279658E-07  0.290E-04    1.81      50.3  T
     SCC iter.                  ...        0 min,  0.011 sec
     gradient                   ...        0 min,  0.005 sec
 * total energy  :   -74.3002519 Eh     change       -0.1226840E-04 Eh
   gradient norm :     0.0023783 Eh/α   predicted    -0.6608894E-05 ( -46.13%)
   displ. norm   :     0.2054826 α      lambda       -0.5325570E-04
   maximum displ.:     0.1061323 α      in ANC's #5, #4, #2, ...

........................................................................
.............................. CYCLE   25 ..............................
........................................................................

 iter      E             dE          RMSdq      gap      omega  full diag
   1    -75.3048834 -0.753049E+02  0.633E-02    1.81       0.0  T
   2    -75.3048838 -0.359650E-06  0.374E-02    1.81       1.0  T
   3    -75.3048838  0.244988E-07  0.217E-03    1.81       6.7  T
   4    -75.3048839 -0.174691E-06  0.999E-04    1.81      14.6  T
   5    -75.3048839 -0.834807E-08  0.497E-04    1.81      29.4  T
     SCC iter.                  ...        0 min,  0.014 sec
     gradient                   ...        0 min,  0.006 sec
 * total energy  :   -74.3002943 Eh     change       -0.4240221E-04 Eh
   gradient norm :     0.0013292 Eh/α   predicted    -0.2779477E-04 ( -34.45%)
   displ. norm   :     0.4191173 α      lambda       -0.4820065E-04
   maximum displ.:     0.2194520 α      in ANC's #5, #4, #2, ...

........................................................................
.............................. CYCLE   26 ..............................
........................................................................

 iter      E             dE          RMSdq      gap      omega  full diag
   1    -75.3042854 -0.753043E+02  0.130E-01    1.81       0.0  T
   2    -75.3042867 -0.131502E-05  0.768E-02    1.81       1.0  T
   3    -75.3042866  0.727700E-07  0.424E-03    1.81       3.4  T
   4    -75.3042873 -0.690450E-06  0.201E-03    1.81       7.2  T
   5    -75.3042873 -0.233543E-07  0.979E-04    1.81      14.9  T
   6    -75.3042873 -0.173478E-07  0.451E-04    1.81      32.3  T
     SCC iter.                  ...        0 min,  0.017 sec
     gradient                   ...        0 min,  0.006 sec
 * total energy  :   -74.3003411 Eh     change       -0.4680076E-04 Eh
   gradient norm :     0.0020699 Eh/α   predicted    -0.2598281E-04 ( -44.48%)
   displ. norm   :     0.1373383 α      lambda       -0.2458063E-04
   maximum displ.:     0.0739131 α      in ANC's #5, #4, #2, ...

........................................................................
.............................. CYCLE   27 ..............................
........................................................................

 iter      E             dE          RMSdq      gap      omega  full diag
   1    -75.3048543 -0.753049E+02  0.424E-02    1.81       0.0  T
   2    -75.3048545 -0.133680E-06  0.250E-02    1.81       1.0  T
   3    -75.3048545 -0.213967E-07  0.118E-03    1.81      12.4  T
   4    -75.3048545 -0.381289E-07  0.613E-04    1.81      23.8  T
   5    -75.3048545 -0.297179E-08  0.263E-04    1.81      55.4  T
     SCC iter.                  ...        0 min,  0.015 sec
     gradient                   ...        0 min,  0.010 sec
 * total energy  :   -74.3003629 Eh     change       -0.2174804E-04 Eh
   gradient norm :     0.0015077 Eh/α   predicted    -0.1252265E-04 ( -42.42%)
   displ. norm   :     0.4368531 α      lambda       -0.5131846E-04
   maximum displ.:     0.2348257 α      in ANC's #5, #4, #2, ...

........................................................................
.............................. CYCLE   28 ..............................
........................................................................

 iter      E             dE          RMSdq      gap      omega  full diag
   1    -75.3052305 -0.753052E+02  0.135E-01    1.81       0.0  T
   2    -75.3052318 -0.134343E-05  0.799E-02    1.82       1.0  T
   3    -75.3052319 -0.680005E-07  0.402E-03    1.82       3.6  T
   4    -75.3052324 -0.536347E-06  0.195E-03    1.82       7.5  T
   5    -75.3052325 -0.260966E-07  0.912E-04    1.82      16.0  T
   6    -75.3052325 -0.104722E-07  0.412E-04    1.82      35.4  T
     SCC iter.                  ...        0 min,  0.030 sec
     gradient                   ...        0 min,  0.007 sec
 * total energy  :   -74.3004223 Eh     change       -0.5936828E-04 Eh
   gradient norm :     0.0015652 Eh/α   predicted    -0.2783857E-04 ( -53.11%)
   displ. norm   :     0.4753109 α      lambda       -0.4280160E-04
   maximum displ.:     0.2543913 α      in ANC's #5, #4, #2, ...

........................................................................
.............................. CYCLE   29 ..............................
........................................................................

 iter      E             dE          RMSdq      gap      omega  full diag
   1    -75.3035790 -0.753036E+02  0.147E-01    1.82       0.0  T
   2    -75.3035805 -0.150927E-05  0.866E-02    1.82       1.0  T
   3    -75.3035805  0.483009E-07  0.471E-03    1.82       3.1  T
   4    -75.3035812 -0.764116E-06  0.221E-03    1.82       6.6  T
   5    -75.3035812 -0.214054E-07  0.120E-03    1.82      12.2  T
   6    -75.3035813 -0.292893E-07  0.437E-04    1.82      33.4  T
   7    -75.3035813 -0.493471E-08  0.162E-04    1.82      90.0  T
     SCC iter.                  ...        0 min,  0.020 sec
     gradient                   ...        0 min,  0.007 sec
 * total energy  :   -74.3004694 Eh     change       -0.4713816E-04 Eh
   gradient norm :     0.0022157 Eh/α   predicted    -0.2355096E-04 ( -50.04%)
   displ. norm   :     0.2855315 α      lambda       -0.5388894E-04
   maximum displ.:     0.1448758 α      in ANC's #5, #4, #1, ...

........................................................................
.............................. CYCLE   30 ..............................
........................................................................

 iter      E             dE          RMSdq      gap      omega  full diag
   1    -75.3051113 -0.753051E+02  0.839E-02    1.82       0.0  T
   2    -75.3051118 -0.500088E-06  0.494E-02    1.82       1.0  T
   3    -75.3051114  0.361242E-06  0.367E-03    1.82       4.0  T
   4    -75.3051120 -0.576741E-06  0.132E-03    1.82      11.1  T
   5    -75.3051120 -0.225152E-07  0.721E-04    1.82      20.2  T
   6    -75.3051120 -0.585878E-08  0.242E-04    1.82      60.2  T
     SCC iter.                  ...        0 min,  0.016 sec
     gradient                   ...        0 min,  0.005 sec
 * total energy  :   -74.3005074 Eh     change       -0.3798767E-04 Eh
   gradient norm :     0.0018966 Eh/α   predicted    -0.2915322E-04 ( -23.26%)
   displ. norm   :     0.4897199 α      lambda       -0.3717295E-04
   maximum displ.:     0.2541669 α      in ANC's #5, #4, #1, ...

........................................................................
.............................. CYCLE   31 ..............................
........................................................................

 iter      E             dE          RMSdq      gap      omega  full diag
   1    -75.3040623 -0.753041E+02  0.146E-01    1.83       0.0  T
   2    -75.3040637 -0.143028E-05  0.863E-02    1.83       1.0  T
   3    -75.3040636  0.124231E-06  0.464E-03    1.83       3.1  T
   4    -75.3040644 -0.826084E-06  0.205E-03    1.83       7.1  T
   5    -75.3040644 -0.956642E-08  0.106E-03    1.83      13.7  T
   6    -75.3040645 -0.235132E-07  0.412E-04    1.83      35.4  T
   7    -75.3040645 -0.484427E-08  0.153E-04    1.83      95.5  T
     SCC iter.                  ...        0 min,  0.021 sec
     gradient                   ...        0 min,  0.005 sec
 * total energy  :   -74.3005433 Eh     change       -0.3588543E-04 Eh
   gradient norm :     0.0021833 Eh/α   predicted    -0.2056775E-04 ( -42.68%)
   displ. norm   :     0.1419639 α      lambda       -0.3568318E-04
   maximum displ.:     0.0703335 α      in ANC's #1, #2, #5, ...

........................................................................
.............................. CYCLE   32 ..............................
........................................................................

 iter      E             dE          RMSdq      gap      omega  full diag
   1    -75.3063190 -0.753063E+02  0.379E-02    1.83       0.0  T
   2    -75.3063192 -0.190923E-06  0.223E-02    1.83       1.0  T
   3    -75.3063190  0.154538E-06  0.207E-03    1.83       7.1  T
   4    -75.3063192 -0.202807E-06  0.705E-04    1.83      20.7  T
   5    -75.3063192 -0.132493E-07  0.355E-04    1.83      41.1  T
     SCC iter.                  ...        0 min,  0.024 sec
     gradient                   ...        0 min,  0.005 sec
 * total energy  :   -74.3005675 Eh     change       -0.2426189E-04 Eh
   gradient norm :     0.0015307 Eh/α   predicted    -0.1821205E-04 ( -24.94%)
   displ. norm   :     0.3917217 α      lambda       -0.3424445E-04
   maximum displ.:     0.1881231 α      in ANC's #1, #4, #5, ...

........................................................................
.............................. CYCLE   33 ..............................
........................................................................

 iter      E             dE          RMSdq      gap      omega  full diag
   1    -75.3058137 -0.753058E+02  0.113E-01    1.83       0.0  T
   2    -75.3058146 -0.962224E-06  0.664E-02    1.83       1.0  T
   3    -75.3058140  0.676225E-06  0.458E-03    1.83       3.2  T
   4    -75.3058151 -0.115732E-05  0.152E-03    1.83       9.6  T
   5    -75.3058151 -0.118093E-07  0.681E-04    1.83      21.4  T
   6    -75.3058151 -0.430967E-08  0.255E-04    1.83      57.3  T
     SCC iter.                  ...        0 min,  0.020 sec
     gradient                   ...        0 min,  0.005 sec
 * total energy  :   -74.3006051 Eh     change       -0.3758103E-04 Eh
   gradient norm :     0.0019337 Eh/α   predicted    -0.1829230E-04 ( -51.33%)
   displ. norm   :     0.2474518 α      lambda       -0.2607117E-04
   maximum displ.:     0.1306053 α      in ANC's #1, #4, #2, ...

........................................................................
.............................. CYCLE   34 ..............................
........................................................................

 iter      E             dE          RMSdq      gap      omega  full diag
   1    -75.3056341 -0.753056E+02  0.677E-02    1.83       0.0  T
   2    -75.3056346 -0.511276E-06  0.399E-02    1.83       1.0  T
   3    -75.3056339  0.765333E-06  0.416E-03    1.83       3.5  T
   4    -75.3056349 -0.995777E-06  0.113E-03    1.83      12.9  T
   5    -75.3056349 -0.110823E-07  0.700E-04    1.83      20.8  T
   6    -75.3056349 -0.775532E-08  0.307E-04    1.83      47.5  T
     SCC iter.                  ...        0 min,  0.025 sec
     gradient                   ...        0 min,  0.007 sec
 * total energy  :   -74.3006323 Eh     change       -0.2715444E-04 Eh
   gradient norm :     0.0016797 Eh/α   predicted    -0.1339387E-04 ( -50.68%)
   displ. norm   :     0.1431749 α      lambda       -0.1707023E-04
   maximum displ.:     0.0848104 α      in ANC's #1, #4, #2, ...

........................................................................
.............................. CYCLE   35 ..............................
........................................................................

 iter      E             dE          RMSdq      gap      omega  full diag
   1    -75.3057219 -0.753057E+02  0.382E-02    1.83       0.0  T
   2    -75.3057221 -0.192714E-06  0.225E-02    1.83       1.0  T
   3    -75.3057219  0.173526E-06  0.208E-03    1.83       7.0  T
   4    -75.3057222 -0.248719E-06  0.618E-04    1.83      23.6  T
   5    -75.3057222 -0.478065E-08  0.280E-04    1.83      52.1  T
     SCC iter.                  ...        0 min,  0.021 sec
     gradient                   ...        0 min,  0.008 sec
 * total energy  :   -74.3006477 Eh     change       -0.1540683E-04 Eh
   gradient norm :     0.0012938 Eh/α   predicted    -0.8613436E-05 ( -44.09%)
   displ. norm   :     0.0816366 α      lambda       -0.1080311E-04
   maximum displ.:     0.0532362 α      in ANC's #1, #4, #10, ...

........................................................................
.............................. CYCLE   36 ..............................
........................................................................

 iter      E             dE          RMSdq      gap      omega  full diag
   1    -75.3059864 -0.753060E+02  0.210E-02    1.83       0.0  T
   2    -75.3059865 -0.853808E-07  0.124E-02    1.83       1.2  T
   3    -75.3059863  0.212506E-06  0.232E-03    1.83       6.3  T
   4    -75.3059865 -0.243862E-06  0.465E-04    1.83      31.4  T
   5    -75.3059865 -0.491747E-08  0.239E-04    1.83      60.9  T
     SCC iter.                  ...        0 min,  0.016 sec
     gradient                   ...        0 min,  0.006 sec
 * total energy  :   -74.3006578 Eh     change       -0.1014394E-04 Eh
   gradient norm :     0.0010364 Eh/α   predicted    -0.5419489E-05 ( -46.57%)
   displ. norm   :     0.0738288 α      lambda       -0.8722341E-05
   maximum displ.:     0.0503592 α      in ANC's #1, #4, #3, ...

........................................................................
.............................. CYCLE   37 ..............................
........................................................................

 iter      E             dE          RMSdq      gap      omega  full diag
   1    -75.3056578 -0.753057E+02  0.197E-02    1.83       0.0  T
   2    -75.3056578 -0.463902E-07  0.116E-02    1.82       1.3  T
   3    -75.3056577  0.126934E-06  0.169E-03    1.82       8.6  T
   4    -75.3056578 -0.149155E-06  0.385E-04    1.82      37.9  T
   5    -75.3056578 -0.270829E-08  0.206E-04    1.82      71.0  T
     SCC iter.                  ...        0 min,  0.020 sec
     gradient                   ...        0 min,  0.009 sec
 * total energy  :   -74.3006688 Eh     change       -0.1100070E-04 Eh
   gradient norm :     0.0011772 Eh/α   predicted    -0.4376015E-05 ( -60.22%)
   displ. norm   :     0.1401757 α      lambda       -0.1852946E-04
   maximum displ.:     0.0912976 α      in ANC's #1, #4, #3, ...

........................................................................
.............................. CYCLE   38 ..............................
........................................................................

 iter      E             dE          RMSdq      gap      omega  full diag
   1    -75.3060529 -0.753061E+02  0.327E-02    1.83       0.0  T
   2    -75.3060532 -0.312369E-06  0.193E-02    1.83       1.0  T
   3    -75.3060529  0.343615E-06  0.295E-03    1.83       4.9  T
   4    -75.3060533 -0.398952E-06  0.889E-04    1.83      16.4  T
   5    -75.3060533 -0.247178E-07  0.384E-04    1.83      38.0  T
     SCC iter.                  ...        0 min,  0.022 sec
     gradient                   ...        0 min,  0.006 sec
 * total energy  :   -74.3006885 Eh     change       -0.1969372E-04 Eh
   gradient norm :     0.0016333 Eh/α   predicted    -0.9347265E-05 ( -52.54%)
   displ. norm   :     0.1734344 α      lambda       -0.1649863E-04
   maximum displ.:     0.1172374 α      in ANC's #1, #4, #3, ...

........................................................................
.............................. CYCLE   39 ..............................
........................................................................

 iter      E             dE          RMSdq      gap      omega  full diag
   1    -75.3054903 -0.753055E+02  0.476E-02    1.83       0.0  T
   2    -75.3054904 -0.156194E-06  0.280E-02    1.82       1.0  T
   3    -75.3054902  0.183978E-06  0.212E-03    1.82       6.9  T
   4    -75.3054905 -0.256246E-06  0.611E-04    1.82      23.9  T
   5    -75.3054905 -0.380679E-08  0.353E-04    1.82      41.3  T
     SCC iter.                  ...        0 min,  0.018 sec
     gradient                   ...        0 min,  0.009 sec
 * total energy  :   -74.3007058 Eh     change       -0.1725332E-04 Eh
   gradient norm :     0.0014683 Eh/α   predicted    -0.8360949E-05 ( -51.54%)
   displ. norm   :     0.1687073 α      lambda       -0.1472976E-04
   maximum displ.:     0.1191897 α      in ANC's #1, #4, #3, ...

........................................................................
.............................. CYCLE   40 ..............................
........................................................................

 iter      E             dE          RMSdq      gap      omega  full diag
   1    -75.3057491 -0.753057E+02  0.456E-02    1.83       0.0  T
   2    -75.3057493 -0.123831E-06  0.268E-02    1.83       1.0  T
   3    -75.3057492  0.101110E-06  0.164E-03    1.83       8.9  T
   4    -75.3057493 -0.162992E-06  0.467E-04    1.83      31.3  T
   5    -75.3057493 -0.117028E-08  0.242E-04    1.83      60.2  T
     SCC iter.                  ...        0 min,  0.024 sec
     gradient                   ...        0 min,  0.011 sec
 * total energy  :   -74.3007241 Eh     change       -0.1831941E-04 Eh
   gradient norm :     0.0012538 Eh/α   predicted    -0.7459391E-05 ( -59.28%)
   displ. norm   :     0.2946755 α      lambda       -0.2619277E-04
   maximum displ.:     0.2069346 α      in ANC's #1, #4, #3, ...

........................................................................
.............................. CYCLE   41 ..............................
........................................................................

 iter      E             dE          RMSdq      gap      omega  full diag
   1    -75.3061233 -0.753061E+02  0.813E-02    1.83       0.0  T
   2    -75.3061237 -0.476521E-06  0.478E-02    1.83       1.0  T
   3    -75.3061225  0.120081E-05  0.537E-03    1.83       2.7  T
   4    -75.3061240 -0.144123E-05  0.103E-03    1.83      14.2  T
   5    -75.3061240 -0.188207E-07  0.568E-04    1.83      25.7  T
   6    -75.3061240 -0.370756E-08  0.242E-04    1.83      60.2  T
     SCC iter.                  ...        0 min,  0.026 sec
     gradient                   ...        0 min,  0.006 sec
 * total energy  :   -74.3007554 Eh     change       -0.3132144E-04 Eh
   gradient norm :     0.0019256 Eh/α   predicted    -0.1360617E-04 ( -56.56%)
   displ. norm   :     0.4052974 α      lambda       -0.3321942E-04
   maximum displ.:     0.2854527 α      in ANC's #1, #4, #3, ...

........................................................................
.............................. CYCLE   42 ..............................
........................................................................

 iter      E             dE          RMSdq      gap      omega  full diag
   1    -75.3057781 -0.753058E+02  0.111E-01    1.82       0.0  T
   2    -75.3057791 -0.102352E-05  0.651E-02    1.83       1.0  T
   3    -75.3057782  0.936642E-06  0.509E-03    1.83       2.9  T
   4    -75.3057795 -0.131415E-05  0.139E-03    1.83      10.5  T
   5    -75.3057795 -0.298557E-07  0.838E-04    1.83      17.4  T
   6    -75.3057795 -0.113273E-07  0.365E-04    1.83      40.0  T
     SCC iter.                  ...        0 min,  0.019 sec
     gradient                   ...        0 min,  0.006 sec
 * total energy  :   -74.3007921 Eh     change       -0.3671577E-04 Eh
   gradient norm :     0.0023238 Eh/α   predicted    -0.1782641E-04 ( -51.45%)
   displ. norm   :     0.2685059 α      lambda       -0.3436267E-04
   maximum displ.:     0.2001512 α      in ANC's #1, #4, #3, ...
 * RMSD in coord.:     0.6521201 α      energy gain  -0.6029586E-03 Eh

generating ANC from exact Hessian ...
Using Lindh-Hessian (1995)
 Shifting diagonal of input Hessian by   9.917738381970109E-003
 Lowest  eigenvalues of input Hessian
    0.000000    0.000000    0.000000    0.000000    0.000000    0.000000
    0.010000    0.010394    0.010486    0.010592    0.010915    0.011381
    0.011820    0.012192    0.012543    0.012804    0.014572    0.014948
 Highest eigenvalues
    1.937938    2.010630    2.012413    2.084633    2.125723    2.172507
 

........................................................................
.............................. CYCLE   43 ..............................
........................................................................

 iter      E             dE          RMSdq      gap      omega  full diag
   1    -75.3065816 -0.753066E+02  0.661E-02    1.83       0.0  T
   2    -75.3065820 -0.336910E-06  0.388E-02    1.83       1.0  T
   3    -75.3065818  0.139636E-06  0.239E-03    1.83       6.1  T
   4    -75.3065821 -0.284022E-06  0.772E-04    1.83      18.9  T
   5    -75.3065821 -0.418176E-08  0.383E-04    1.83      38.1  T
     SCC iter.                  ...        0 min,  0.016 sec
     gradient                   ...        0 min,  0.008 sec
 * total energy  :   -74.3008180 Eh     change       -0.2584846E-04 Eh
   gradient norm :     0.0019755 Eh/α   predicted     0.0000000E+00 (-100.00%)
   displ. norm   :     0.0325833 α      lambda       -0.1032227E-04
   maximum displ.:     0.0192402 α      in ANC's #12, #1, #3, ...

........................................................................
.............................. CYCLE   44 ..............................
........................................................................

 iter      E             dE          RMSdq      gap      omega  full diag
   1    -75.3063539 -0.753064E+02  0.103E-02    1.83       0.0  T
   2    -75.3063540 -0.846275E-07  0.607E-03    1.83       2.4  T
   3    -75.3063539  0.112276E-06  0.192E-03    1.83       7.6  T
   4    -75.3063541 -0.136682E-06  0.391E-04    1.83      37.3  T
   5    -75.3063541 -0.348014E-08  0.228E-04    1.83      64.1  T
     SCC iter.                  ...        0 min,  0.016 sec
     gradient                   ...        0 min,  0.006 sec
 * total energy  :   -74.3008298 Eh     change       -0.1180849E-04 Eh
   gradient norm :     0.0007728 Eh/α   predicted    -0.5739185E-05 ( -51.40%)
   displ. norm   :     0.0636559 α      lambda       -0.1130757E-04
   maximum displ.:     0.0354250 α      in ANC's #12, #1, #3, ...

........................................................................
.............................. CYCLE   45 ..............................
........................................................................

 iter      E             dE          RMSdq      gap      omega  full diag
   1    -75.3060834 -0.753061E+02  0.161E-02    1.82       0.0  T
   2    -75.3060835 -0.101313E-06  0.954E-03    1.82       1.5  T
   3    -75.3060834  0.123732E-06  0.202E-03    1.82       7.2  T
   4    -75.3060835 -0.159870E-06  0.467E-04    1.82      31.2  T
   5    -75.3060835 -0.227929E-08  0.295E-04    1.82      49.4  T
     SCC iter.                  ...        0 min,  0.014 sec
     gradient                   ...        0 min,  0.006 sec
 * total energy  :   -74.3008405 Eh     change       -0.1072821E-04 Eh
   gradient norm :     0.0011277 Eh/α   predicted    -0.5677034E-05 ( -47.08%)
   displ. norm   :     0.0708976 α      lambda       -0.8043396E-05
   maximum displ.:     0.0350498 α      in ANC's #1, #12, #3, ...

........................................................................
.............................. CYCLE   46 ..............................
........................................................................

 iter      E             dE          RMSdq      gap      omega  full diag
   1    -75.3059948 -0.753060E+02  0.170E-02    1.82       0.0  T
   2    -75.3059949 -0.466101E-07  0.101E-02    1.82       1.4  T
   3    -75.3059948  0.750572E-07  0.153E-03    1.82       9.5  T
   4    -75.3059949 -0.102632E-06  0.443E-04    1.82      32.9  T
   5    -75.3059949 -0.128007E-08  0.283E-04    1.82      51.5  T
     SCC iter.                  ...        0 min,  0.014 sec
     gradient                   ...        0 min,  0.006 sec
 * total energy  :   -74.3008490 Eh     change       -0.8480630E-05 Eh
   gradient norm :     0.0012696 Eh/α   predicted    -0.4031709E-05 ( -52.46%)
   displ. norm   :     0.0917563 α      lambda       -0.8938249E-05
   maximum displ.:     0.0489943 α      in ANC's #1, #3, #12, ...

........................................................................
.............................. CYCLE   47 ..............................
........................................................................

 iter      E             dE          RMSdq      gap      omega  full diag
   1    -75.3059813 -0.753060E+02  0.204E-02    1.82       0.0  T
   2    -75.3059813 -0.546615E-07  0.121E-02    1.82       1.2  T
   3    -75.3059813  0.134886E-07  0.979E-04    1.82      14.9  T
   4    -75.3059814 -0.405659E-07  0.431E-04    1.82      33.9  T
     SCC iter.                  ...        0 min,  0.012 sec
     gradient                   ...        0 min,  0.006 sec
 * total energy  :   -74.3008600 Eh     change       -0.1100558E-04 Eh
   gradient norm :     0.0009894 Eh/α   predicted    -0.4488039E-05 ( -59.22%)
   displ. norm   :     0.1312488 α      lambda       -0.1195663E-04
   maximum displ.:     0.0750979 α      in ANC's #1, #3, #10, ...

........................................................................
.............................. CYCLE   48 ..............................
........................................................................

 iter      E             dE          RMSdq      gap      omega  full diag
   1    -75.3060239 -0.753060E+02  0.291E-02    1.82       0.0  T
   2    -75.3060240 -0.121803E-06  0.172E-02    1.82       1.0  T
   3    -75.3060239  0.120285E-06  0.206E-03    1.82       7.1  T
   4    -75.3060241 -0.174396E-06  0.687E-04    1.82      21.2  T
   5    -75.3060241 -0.473902E-08  0.380E-04    1.82      38.4  T
     SCC iter.                  ...        0 min,  0.013 sec
     gradient                   ...        0 min,  0.005 sec
 * total energy  :   -74.3008735 Eh     change       -0.1347281E-04 Eh
   gradient norm :     0.0005486 Eh/α   predicted    -0.6024618E-05 ( -55.28%)
   displ. norm   :     0.1032995 α      lambda       -0.7040672E-05
   maximum displ.:     0.0654139 α      in ANC's #1, #3, #10, ...

........................................................................
.............................. CYCLE   49 ..............................
........................................................................

 iter      E             dE          RMSdq      gap      omega  full diag
   1    -75.3061860 -0.753062E+02  0.235E-02    1.82       0.0  T
   2    -75.3061860 -0.695444E-07  0.139E-02    1.82       1.1  T
   3    -75.3061860  0.435377E-07  0.137E-03    1.82      10.6  T
   4    -75.3061861 -0.716093E-07  0.525E-04    1.82      27.8  T
   5    -75.3061861 -0.354611E-08  0.276E-04    1.82      52.8  T
     SCC iter.                  ...        0 min,  0.013 sec
     gradient                   ...        0 min,  0.005 sec
 * total energy  :   -74.3008815 Eh     change       -0.8069702E-05 Eh
   gradient norm :     0.0005626 Eh/α   predicted    -0.3538273E-05 ( -56.15%)
   displ. norm   :     0.0660381 α      lambda       -0.4621771E-05
   maximum displ.:     0.0466150 α      in ANC's #1, #3, #10, ...

........................................................................
.............................. CYCLE   50 ..............................
........................................................................

 iter      E             dE          RMSdq      gap      omega  full diag
   1    -75.3063948 -0.753064E+02  0.157E-02    1.82       0.0  T
   2    -75.3063948 -0.300927E-07  0.929E-03    1.82       1.6  T
   3    -75.3063947  0.825739E-07  0.144E-03    1.82      10.2  T
   4    -75.3063948 -0.989823E-07  0.332E-04    1.82      43.9  T
   5    -75.3063948 -0.152266E-08  0.187E-04    1.82      77.8  T
     SCC iter.                  ...        0 min,  0.014 sec
     gradient                   ...        0 min,  0.006 sec
 * total energy  :   -74.3008876 Eh     change       -0.6085183E-05 Eh
   gradient norm :     0.0005412 Eh/α   predicted    -0.2316697E-05 ( -61.93%)
   displ. norm   :     0.0676084 α      lambda       -0.5874539E-05
   maximum displ.:     0.0482340 α      in ANC's #1, #3, #12, ...

........................................................................
.............................. CYCLE   51 ..............................
........................................................................

 iter      E             dE          RMSdq      gap      omega  full diag
   1    -75.3065498 -0.753065E+02  0.172E-02    1.83       0.0  T
   2    -75.3065498 -0.310218E-07  0.101E-02    1.83       1.4  T
   3    -75.3065497  0.890112E-07  0.143E-03    1.83      10.2  T
   4    -75.3065498 -0.105742E-06  0.323E-04    1.83      45.1  T
   5    -75.3065498 -0.194036E-08  0.174E-04    1.83      83.6  T
     SCC iter.                  ...        0 min,  0.021 sec
     gradient                   ...        0 min,  0.015 sec
 * total energy  :   -74.3008958 Eh     change       -0.8127838E-05 Eh
   gradient norm :     0.0005421 Eh/α   predicted    -0.2947254E-05 ( -63.74%)
   displ. norm   :     0.1135357 α      lambda       -0.1006470E-04
   maximum displ.:     0.0785990 α      in ANC's #1, #3, #12, ...

........................................................................
.............................. CYCLE   52 ..............................
........................................................................

 iter      E             dE          RMSdq      gap      omega  full diag
   1    -75.3065316 -0.753065E+02  0.289E-02    1.83       0.0  T
   2    -75.3065317 -0.798925E-07  0.170E-02    1.83       1.0  T
   3    -75.3065314  0.310152E-06  0.267E-03    1.83       5.5  T
   4    -75.3065318 -0.362072E-06  0.501E-04    1.83      29.1  T
   5    -75.3065318 -0.412048E-08  0.283E-04    1.83      51.5  T
     SCC iter.                  ...        0 min,  0.016 sec
     gradient                   ...        0 min,  0.006 sec
 * total energy  :   -74.3009092 Eh     change       -0.1349829E-04 Eh
   gradient norm :     0.0005424 Eh/α   predicted    -0.5064668E-05 ( -62.48%)
   displ. norm   :     0.1672664 α      lambda       -0.1299761E-04
   maximum displ.:     0.1151631 α      in ANC's #1, #3, #12, ...

........................................................................
.............................. CYCLE   53 ..............................
........................................................................

 iter      E             dE          RMSdq      gap      omega  full diag
   1    -75.3064204 -0.753064E+02  0.427E-02    1.83       0.0  T
   2    -75.3064206 -0.162944E-06  0.252E-02    1.83       1.0  T
   3    -75.3064201  0.515770E-06  0.349E-03    1.83       4.2  T
   4    -75.3064207 -0.616006E-06  0.671E-04    1.83      21.7  T
   5    -75.3064207 -0.534166E-08  0.400E-04    1.83      36.4  T
     SCC iter.                  ...        0 min,  0.013 sec
     gradient                   ...        0 min,  0.006 sec
 * total energy  :   -74.3009259 Eh     change       -0.1667711E-04 Eh
   gradient norm :     0.0006411 Eh/α   predicted    -0.6582305E-05 ( -60.53%)
   displ. norm   :     0.1827635 α      lambda       -0.1174213E-04
   maximum displ.:     0.1274388 α      in ANC's #1, #3, #7, ...

........................................................................
.............................. CYCLE   54 ..............................
........................................................................

 iter      E             dE          RMSdq      gap      omega  full diag
   1    -75.3062662 -0.753063E+02  0.464E-02    1.84       0.0  T
   2    -75.3062664 -0.194704E-06  0.273E-02    1.84       1.0  T
   3    -75.3062660  0.491923E-06  0.349E-03    1.84       4.2  T
   4    -75.3062666 -0.604542E-06  0.703E-04    1.84      20.7  T
   5    -75.3062666 -0.382225E-08  0.435E-04    1.84      33.5  T
     SCC iter.                  ...        0 min,  0.014 sec
     gradient                   ...        0 min,  0.006 sec
 * total energy  :   -74.3009411 Eh     change       -0.1519418E-04 Eh
   gradient norm :     0.0006736 Eh/α   predicted    -0.5959380E-05 ( -60.78%)
   displ. norm   :     0.1727749 α      lambda       -0.1021010E-04
   maximum displ.:     0.1218866 α      in ANC's #1, #3, #7, ...

........................................................................
.............................. CYCLE   55 ..............................
........................................................................

 iter      E             dE          RMSdq      gap      omega  full diag
   1    -75.3062452 -0.753062E+02  0.436E-02    1.84       0.0  T
   2    -75.3062454 -0.183826E-06  0.256E-02    1.84       1.0  T
   3    -75.3062451  0.310135E-06  0.282E-03    1.84       5.2  T
   4    -75.3062455 -0.403474E-06  0.645E-04    1.84      22.6  T
   5    -75.3062455 -0.254667E-08  0.398E-04    1.84      36.6  T
     SCC iter.                  ...        0 min,  0.013 sec
     gradient                   ...        0 min,  0.006 sec
 * total energy  :   -74.3009549 Eh     change       -0.1376383E-04 Eh
   gradient norm :     0.0005931 Eh/α   predicted    -0.5173088E-05 ( -62.42%)
   displ. norm   :     0.1873367 α      lambda       -0.1115101E-04
   maximum displ.:     0.1323432 α      in ANC's #1, #3, #7, ...

........................................................................
.............................. CYCLE   56 ..............................
........................................................................

 iter      E             dE          RMSdq      gap      omega  full diag
   1    -75.3062575 -0.753063E+02  0.465E-02    1.84       0.0  T
   2    -75.3062577 -0.212724E-06  0.273E-02    1.84       1.0  T
   3    -75.3062575  0.210301E-06  0.245E-03    1.84       6.0  T
   4    -75.3062578 -0.312620E-06  0.697E-04    1.84      20.9  T
   5    -75.3062578 -0.283509E-08  0.406E-04    1.84      35.9  T
     SCC iter.                  ...        0 min,  0.014 sec
     gradient                   ...        0 min,  0.006 sec
 * total energy  :   -74.3009701 Eh     change       -0.1522359E-04 Eh
   gradient norm :     0.0005154 Eh/α   predicted    -0.5662962E-05 ( -62.80%)
   displ. norm   :     0.2348980 α      lambda       -0.1368923E-04
   maximum displ.:     0.1655207 α      in ANC's #1, #3, #7, ...

........................................................................
.............................. CYCLE   57 ..............................
........................................................................

 iter      E             dE          RMSdq      gap      omega  full diag
   1    -75.3061697 -0.753062E+02  0.572E-02    1.84       0.0  T
   2    -75.3061700 -0.326752E-06  0.336E-02    1.84       1.0  T
   3    -75.3061697  0.262413E-06  0.286E-03    1.84       5.1  T
   4    -75.3061702 -0.414816E-06  0.873E-04    1.84      16.7  T
   5    -75.3061702 -0.567073E-08  0.498E-04    1.84      29.3  T
     SCC iter.                  ...        0 min,  0.014 sec
     gradient                   ...        0 min,  0.006 sec
 * total energy  :   -74.3009884 Eh     change       -0.1830384E-04 Eh
   gradient norm :     0.0006591 Eh/α   predicted    -0.7013632E-05 ( -61.68%)
   displ. norm   :     0.2578474 α      lambda       -0.1430464E-04
   maximum displ.:     0.1831569 α      in ANC's #1, #3, #7, ...

........................................................................
.............................. CYCLE   58 ..............................
........................................................................

 iter      E             dE          RMSdq      gap      omega  full diag
   1    -75.3062336 -0.753062E+02  0.610E-02    1.85       0.0  T
   2    -75.3062340 -0.358346E-06  0.359E-02    1.85       1.0  T
   3    -75.3062338  0.172917E-06  0.259E-03    1.85       5.6  T
   4    -75.3062342 -0.343855E-06  0.936E-04    1.85      15.6  T
   5    -75.3062342 -0.746022E-08  0.461E-04    1.85      31.6  T
     SCC iter.                  ...        0 min,  0.013 sec
     gradient                   ...        0 min,  0.006 sec
 * total energy  :   -74.3010072 Eh     change       -0.1878075E-04 Eh
   gradient norm :     0.0007455 Eh/α   predicted    -0.7365697E-05 ( -60.78%)
   displ. norm   :     0.2484505 α      lambda       -0.1300772E-04
   maximum displ.:     0.1792122 α      in ANC's #1, #3, #7, ...

........................................................................
.............................. CYCLE   59 ..............................
........................................................................

 iter      E             dE          RMSdq      gap      omega  full diag
   1    -75.3064134 -0.753064E+02  0.569E-02    1.85       0.0  T
   2    -75.3064138 -0.303670E-06  0.335E-02    1.85       1.0  T
   3    -75.3064136  0.142661E-06  0.246E-03    1.85       5.9  T
   4    -75.3064139 -0.287210E-06  0.900E-04    1.85      16.2  T
   5    -75.3064139 -0.573445E-08  0.491E-04    1.85      29.7  T
     SCC iter.                  ...        0 min,  0.014 sec
     gradient                   ...        0 min,  0.006 sec
 * total energy  :   -74.3010243 Eh     change       -0.1712286E-04 Eh
   gradient norm :     0.0007847 Eh/α   predicted    -0.6683060E-05 ( -60.97%)
   displ. norm   :     0.2123421 α      lambda       -0.1107707E-04
   maximum displ.:     0.1562801 α      in ANC's #1, #3, #7, ...

........................................................................
.............................. CYCLE   60 ..............................
........................................................................

 iter      E             dE          RMSdq      gap      omega  full diag
   1    -75.3067084 -0.753067E+02  0.473E-02    1.85       0.0  T
   2    -75.3067086 -0.198234E-06  0.278E-02    1.85       1.0  T
   3    -75.3067085  0.414649E-07  0.173E-03    1.85       8.4  T
   4    -75.3067087 -0.139728E-06  0.723E-04    1.85      20.2  T
   5    -75.3067087 -0.395029E-08  0.311E-04    1.85      46.9  T
     SCC iter.                  ...        0 min,  0.014 sec
     gradient                   ...        0 min,  0.006 sec
 * total energy  :   -74.3010393 Eh     change       -0.1497695E-04 Eh
   gradient norm :     0.0006222 Eh/α   predicted    -0.5651261E-05 ( -62.27%)
   displ. norm   :     0.1891434 α      lambda       -0.1013990E-04
   maximum displ.:     0.1415586 α      in ANC's #1, #3, #2, ...

........................................................................
[...]
C10-C9-C8-C3=178.63           C10-C9-C8-C17=357.32          H32-C9-C8-C3=357.94           H32-C9-C8-C17=176.62          
C11-C10-C9-C8=  0.77          C11-C10-C9-H32=181.45         H33-C10-C9-C8=180.30          H33-C10-C9-H32=  0.98         
           -------------------------------------------------
          |                Final Singlepoint                |
           -------------------------------------------------

          ...................................................
          :                      SETUP                      :
          :.................................................:
          :  # basis functions                 122          :
          :  # atomic orbitals                 122          :
          :  # shells                           72          :
          :  # electrons                       132          :
          :  max. iterations                   250          :
          :  Hamiltonian                  GFN2-xTB          :
          :  restarted?                      false          :
          :  GBSA solvation                  false          :
          :  PC potential                    false          :
          :  electronic temp.          300.0000000     K    :
          :  accuracy                    1.0000000          :
          :  -> integral cutoff          0.2500000E+02      :
          :  -> integral neglect         0.1000000E-07      :
          :  -> SCF convergence          0.1000000E-05 Eh   :
          :  -> wf. convergence          0.1000000E-03 e    :
          :  Broyden damping             0.4000000          :
          :  net charge                          0          :
          :  unpaired electrons                  0          :
          ...................................................

 iter      E             dE          RMSdq      gap      omega  full diag
   1    -75.3071244 -0.753071E+02  0.727E-05    1.85       0.0  T
   2    -75.3071244 -0.161151E-10  0.528E-05    1.85     276.3  T
   3    -75.3071244 -0.592877E-10  0.313E-05    1.85     465.6  T

   *** convergence criteria satisfied after 3 iterations ***

         #    Occupation            Energy/Eh            Energy/eV
      -------------------------------------------------------------
         1        2.0000           -0.7176453             -19.5281
       ...           ...                  ...                  ...
        60        2.0000           -0.4190404             -11.4027
        61        2.0000           -0.4136315             -11.2555
        62        2.0000           -0.4075958             -11.0912
        63        2.0000           -0.4043829             -11.0038
        64        2.0000           -0.3960847             -10.7780
        65        2.0000           -0.3839792             -10.4486
        66        2.0000           -0.3615078              -9.8371 (HOMO)
        67                         -0.2936380              -7.9903 (LUMO)
        68                         -0.2305138              -6.2726
        69                         -0.2267320              -6.1697
        70                         -0.2252604              -6.1296
        71                         -0.2151198              -5.8537
       ...                                ...                  ...
       122                          0.6972772              18.9739
      -------------------------------------------------------------
                  HL-Gap            0.0678698 Eh            1.8468 eV
             Fermi-level           -0.3275729 Eh           -8.9137 eV

 SCC (total)                   0 d,  0 h,  0 min,  0.028 sec
 SCC setup                      ...        0 min,  0.001 sec (  4.097%)
 Dispersion                     ...        0 min,  0.000 sec (  1.654%)
 classical contributions        ...        0 min,  0.000 sec (  0.827%)
 integral evaluation            ...        0 min,  0.002 sec (  6.319%)
 iterations                     ...        0 min,  0.015 sec ( 56.129%)
 molecular gradient             ...        0 min,  0.008 sec ( 29.456%)
 printout                       ...        0 min,  0.000 sec (  1.414%)

         :::::::::::::::::::::::::::::::::::::::::::::::::::::
         ::                     SUMMARY                     ::
         :::::::::::::::::::::::::::::::::::::::::::::::::::::
         :: total energy             -74.301130183745 Eh    ::
         :: gradient norm              0.000192959065 Eh/a0 ::
         :: HOMO-LUMO gap              1.846831320086 eV    ::
         ::.................................................::
         :: SCC energy               -75.306940012345 Eh    ::
         :: -> isotropic ES            0.103678718923 Eh    ::
         :: -> anisotropic ES          0.001986892030 Eh    ::
         :: -> anisotropic XC          0.020328864378 Eh    ::
         :: -> dispersion             -0.047192290468 Eh    ::
         :: repulsion energy           1.005809828600 Eh    ::
         :: add. restraining           0.000000000000 Eh    ::
         :: total charge               0.000000000000 e     ::
         :::::::::::::::::::::::::::::::::::::::::::::::::::::

           -------------------------------------------------
          |                Property Printout                |
           -------------------------------------------------

    * Orbital Energies and Occupations

         #    Occupation            Energy/Eh            Energy/eV
      -------------------------------------------------------------
         1        2.0000           -0.7176453             -19.5281
       ...           ...                  ...                  ...
        54        2.0000           -0.4455143             -12.1231
        55        2.0000           -0.4439599             -12.0808
        56        2.0000           -0.4353965             -11.8477
        57        2.0000           -0.4261729             -11.5968
        58        2.0000           -0.4242412             -11.5442
        59        2.0000           -0.4232070             -11.5160
        60        2.0000           -0.4190404             -11.4027
        61        2.0000           -0.4136315             -11.2555
        62        2.0000           -0.4075958             -11.0912
        63        2.0000           -0.4043829             -11.0038
        64        2.0000           -0.3960847             -10.7780
        65        2.0000           -0.3839792             -10.4486
        66        2.0000           -0.3615078              -9.8371 (HOMO)
        67                         -0.2936380              -7.9903 (LUMO)
        68                         -0.2305138              -6.2726
        69                         -0.2267320              -6.1697
        70                         -0.2252604              -6.1296
        71                         -0.2151198              -5.8537
        72                         -0.1603758              -4.3640
        73                         -0.0957969              -2.6068
        74                         -0.0850563              -2.3145
        75                          0.0145051               0.3947
        76                          0.0179207               0.4876
        77                          0.0265533               0.7226
       ...                                ...                  ...
       122                          0.6972772              18.9739
      -------------------------------------------------------------
                  HL-Gap            0.0678698 Eh            1.8468 eV
             Fermi-level           -0.3275729 Eh           -8.9137 eV

     #   Z          covCN         q      C6AA      α(0)
     1   8 O        0.857    -0.370    21.083     6.156
     2   6 C        2.828     0.215    23.469     7.938
     3   6 C        3.677     0.250    16.946     5.897
     4   8 O        1.700    -0.325    19.437     5.952
     5   6 C        3.637     0.045    20.180     6.462
     6   8 O        1.700    -0.324    19.409     5.948
     7   6 C        3.632     0.040    20.283     6.483
     8   6 C        2.973    -0.029    28.719     8.790
     9   6 C        2.923    -0.037    28.920     8.819
    10   6 C        2.917    -0.067    29.681     8.934
    11   6 C        2.864     0.146    24.830     8.168
    12   8 O        1.706    -0.263    18.367     5.786
    13   6 C        3.693     0.078    19.442     6.309
    14   6 C        3.673     0.081    19.458     6.322
    15   8 O        1.656    -0.431    21.465     6.254
    16   6 C        2.920    -0.055    29.359     8.886
    17   6 C        2.922    -0.030    28.743     8.792
    18   6 C        2.893    -0.061    29.517     8.908
    19   6 C        2.908    -0.007    28.204     8.708
    20   6 C        2.970     0.017    27.618     8.620
    21   6 C        2.928    -0.029    28.714     8.788
    22   6 C        2.916    -0.028    28.690     8.783
    23   6 C        2.920    -0.025    28.627     8.774
    24   6 C        2.917    -0.027    28.681     8.782
    25   6 C        2.923    -0.028    28.693     8.784
    26   1 H        0.924     0.041     2.432     2.439
    27   1 H        0.924     0.049     2.330     2.387
    28   1 H        0.925     0.055     2.258     2.350
    29   1 H        0.924     0.030     2.591     2.517
    30   1 H        0.924     0.057     2.240     2.341
    31   1 H        0.925     0.060     2.200     2.319
    32   1 H        0.926     0.050     2.325     2.385
    33   1 H        0.926     0.037     2.490     2.467
    34   1 H        0.924     0.057     2.230     2.335
    35   1 H        0.923     0.032     2.563     2.504
    36   1 H        0.924     0.043     2.415     2.430
    37   1 H        0.923     0.026     2.638     2.540
    38   1 H        0.805     0.293     0.743     1.354
    39   1 H        0.926     0.053     2.286     2.364
    40   1 H        0.926     0.054     2.275     2.359
    41   1 H        0.926     0.064     2.150     2.293
    42   1 H        0.925     0.070     2.087     2.259
    43   1 H        0.926     0.041     2.439     2.442
    44   1 H        0.926     0.036     2.496     2.471
    45   1 H        0.926     0.036     2.496     2.471
    46   1 H        0.926     0.036     2.496     2.471
    47   1 H        0.926     0.043     2.405     2.425

 Mol. C6AA /au·bohr⁶  :      24542.133696
 Mol. C8AA /au·bohr⁸  :     577465.378592
 Mol. α(0) /au        :        243.967196


Wiberg/Mayer (AO) data.
largest (>0.10) Wiberg bond orders for each atom

 ---------------------------------------------------------------------------
     #   Z sym  total        # sym  WBO       # sym  WBO       # sym  WBO
 ---------------------------------------------------------------------------
     1   8 O    2.053 --     2 C    1.789
     2   6 C    3.923 --     1 O    1.789    18 C    1.082     3 C    0.910
     3   6 C    3.924 --     4 O    0.970     6 O    0.964     8 C    0.935
                             2 C    0.910
     4   8 O    2.077 --     5 C    0.976     3 C    0.970
     5   6 C    3.942 --    27 H    0.979    26 H    0.979    28 H    0.979
                             4 O    0.976
     6   8 O    2.086 --     7 C    0.981     3 C    0.964
     7   6 C    3.942 --     6 O    0.981    31 H    0.978    29 H    0.976
                            30 H    0.975
     8   6 C    3.982 --     9 C    1.412    17 C    1.390     3 C    0.935
     9   6 C    3.990 --    10 C    1.442     8 C    1.412    32 H    0.965
                            16 C    0.107
    10   6 C    3.987 --     9 C    1.442    11 C    1.371    33 H    0.966
                            17 C    0.100
    11   6 C    3.932 --    10 C    1.371    16 C    1.344    12 O    1.067
    12   8 O    2.238 --    11 C    1.067    13 C    0.974
    13   6 C    3.951 --    14 C    0.999    12 O    0.974    35 H    0.967
                            34 H    0.964
    14   6 C    3.962 --    15 O    1.003    13 C    0.999    36 H    0.970
                            37 H    0.969
    15   8 O    1.957 --    14 C    1.003    38 H    0.900
    16   6 C    3.985 --    17 C    1.474    11 C    1.344    39 H    0.967
                             9 C    0.107
    17   6 C    3.990 --    16 C    1.474     8 C    1.390    40 H    0.965
                            10 C    0.100
    18   6 C    3.987 --    19 C    1.743     2 C    1.082    41 H    0.958
    19   6 C    3.979 --    18 C    1.743    20 C    1.123    42 H    0.957
    20   6 C    3.990 --    21 C    1.361    25 C    1.358    19 C    1.123
    21   6 C    3.990 --    22 C    1.461    20 C    1.361    43 H    0.968
                            24 C    0.103
    22   6 C    3.992 --    21 C    1.461    23 C    1.429    44 H    0.970
                            25 C    0.104
    23   6 C    3.979 --    22 C    1.429    24 C    1.424    45 H    0.971
    24   6 C    3.992 --    25 C    1.467    23 C    1.424    46 H    0.970
                            21 C    0.103
    25   6 C    3.990 --    24 C    1.467    20 C    1.358    47 H    0.966
                            22 C    0.104
    26   1 H    0.998 --     5 C    0.979
    27   1 H    0.997 --     5 C    0.979
    28   1 H    0.996 --     5 C    0.979
    29   1 H    0.999 --     7 C    0.976
    30   1 H    0.997 --     7 C    0.975
    31   1 H    0.996 --     7 C    0.978
    32   1 H    0.997 --     9 C    0.965
    33   1 H    0.998 --    10 C    0.966
    34   1 H    0.997 --    13 C    0.964
    35   1 H    0.999 --    13 C    0.967
    36   1 H    0.998 --    14 C    0.970
    37   1 H    0.999 --    14 C    0.969
    38   1 H    0.914 --    15 O    0.900
    39   1 H    0.996 --    16 C    0.967
    40   1 H    0.996 --    17 C    0.965
    41   1 H    0.996 --    18 C    0.958
    42   1 H    0.995 --    19 C    0.957
    43   1 H    0.998 --    21 C    0.968
    44   1 H    0.998 --    22 C    0.970
    45   1 H    0.998 --    23 C    0.971
    46   1 H    0.998 --    24 C    0.970
    47   1 H    0.998 --    25 C    0.966
 ---------------------------------------------------------------------------

Topologies differ in total number of bonds
Writing topology from bond orders to xtbtopo.mol

molecular dipole:
                 x           y           z       tot (Debye)
 q only:        0.175       1.017      -0.964
   full:        0.440       1.243      -1.031       4.255
molecular quadrupole (traceless):
                xx          xy          yy          xz          yz          zz
 q only:       13.908       2.749      -2.335      -0.008       1.441     -11.573
  q+dip:       14.248       4.576      -5.728      -2.639       2.046      -8.520
   full:       15.018       6.213      -2.812      -2.117       0.646     -12.206

           -------------------------------------------------
          |                Geometry Summary                 |
           -------------------------------------------------

      molecular mass/u    :      342.3864391
   center of mass at/Å    :       -0.0861911      -0.0361716       0.0277245
  moments of inertia/u·Å² :        0.1708320E+04   0.5310347E+04   0.6183199E+04
rotational constants/cm⁻¹ :        0.9867962E-02   0.3174488E-02   0.2726361E-02

 * 44 selected distances

     #   Z          #   Z                                           value/Å
     1   8 O        2   6 C                                       1.2143926
     3   6 C        4   8 O                                       1.4119256
     4   8 O        5   6 C                                       1.4154792
     3   6 C        6   8 O                                       1.4120783
     6   8 O        7   6 C                                       1.4088594
     8   6 C        9   6 C                                       1.3889434
     9   6 C       10   6 C                                       1.3844246
    10   6 C       11   6 C                                       1.3906091
    11   6 C       12   8 O                                       1.3583204
    12   8 O       13   6 C                                       1.4104047
    13   6 C       14   6 C                                       1.5263192 (max)
    14   6 C       15   8 O                                       1.4079575
    11   6 C       16   6 C                                       1.3957515
     8   6 C       17   6 C                                       1.3916416
    16   6 C       17   6 C                                       1.3773228
    18   6 C       19   6 C                                       1.3431099
    20   6 C       21   6 C                                       1.3987231
    21   6 C       22   6 C                                       1.3809567
    22   6 C       23   6 C                                       1.3856474
    23   6 C       24   6 C                                       1.3865797
    20   6 C       25   6 C                                       1.3983178
    24   6 C       25   6 C                                       1.3805003
     5   6 C       26   1 H                                       1.0924564
     5   6 C       27   1 H                                       1.0921008
     5   6 C       28   1 H                                       1.0894935
     7   6 C       29   1 H                                       1.0951803
     7   6 C       30   1 H                                       1.0911805
     7   6 C       31   1 H                                       1.0892988
     9   6 C       32   1 H                                       1.0791481
    10   6 C       33   1 H                                       1.0784506
    13   6 C       34   1 H                                       1.0965006
    13   6 C       35   1 H                                       1.0985673
    14   6 C       36   1 H                                       1.0967940
    14   6 C       37   1 H                                       1.1000067
    15   8 O       38   1 H                                       0.9623566 (min)
    16   6 C       39   1 H                                       1.0784760
    17   6 C       40   1 H                                       1.0781069
    18   6 C       41   1 H                                       1.0764296
    19   6 C       42   1 H                                       1.0845570
    21   6 C       43   1 H                                       1.0805580
    22   6 C       44   1 H                                       1.0801707
    23   6 C       45   1 H                                       1.0799128
    24   6 C       46   1 H                                       1.0802433
    25   6 C       47   1 H                                       1.0786122

 * 4 distinct bonds (by element types)

   Z      Z             #   av. dist./Å        max./Å        min./Å
   1 H    6 C          21     1.0864878     1.1000067     1.0764296
   6 C    6 C          14     1.3949177     1.5263192     1.3431099
   1 H    8 O           1     0.9623566     0.9623566     0.9623566
   6 C    8 O           8     1.3799272     1.4154792     1.2143926


optimized geometry written to: xtbopt.xyz


           -------------------------------------------------
          | TOTAL ENERGY              -74.301130183745 Eh   |
          | GRADIENT NORM               0.000192959065 Eh/α |
          | HOMO-LUMO GAP               1.846831320086 eV   |
           -------------------------------------------------

------------------------------------------------------------------------
 * finished run on 2025/12/01 at 14:19:35.150     
------------------------------------------------------------------------
 total:
 * wall-time:     0 d,  0 h,  0 min,  2.261 sec
 *  cpu-time:     0 d,  0 h,  0 min, 51.026 sec
 * ratio c/w:    22.572 speedup
 SCF:
 * wall-time:     0 d,  0 h,  0 min,  0.062 sec
 *  cpu-time:     0 d,  0 h,  0 min,  1.397 sec
 * ratio c/w:    22.678 speedup
 ANC optimizer:
 * wall-time:     0 d,  0 h,  0 min,  2.165 sec
 *  cpu-time:     0 d,  0 h,  0 min, 49.308 sec
 * ratio c/w:    22.776 speedup

normal termination of xtb
