      -----------------------------------------------------------      
     |                   =====================                   |     
     |                           x T B                           |     
     |                   =====================                   |     
     |                         S. Grimme                         |     
     |          Mulliken Center for Theoretical Chemistry        |     
     |                    University of Bonn                     |     
      -----------------------------------------------------------      

   * xtb version 6.7.1 (edcfbbe) compiled by 'albert@albert-system' on 2024-07-22

   xtb is free software: you can redistribute it and/or modify it under
   the terms of the GNU Lesser General Public License as published by
   the Free Software Foundation, either version 3 of the License, or
   (at your option) any later version.
   
   xtb is distributed in the hope that it will be useful,
   but WITHOUT ANY WARRANTY; without even the implied warranty of
   MERCHANTABILITY or FITNESS FOR A PARTICULAR PURPOSE.  See the
   GNU Lesser General Public License for more details.
   
   Cite this work as:
   * C. Bannwarth, E. Caldeweyher, S. Ehlert, A. Hansen, P. Pracht,
     J. Seibert, S. Spicher, S. Grimme, WIREs Comput. Mol. Sci., 2020, 11,
     e01493. DOI: 10.1002/wcms.1493
   
   for GFN2-xTB:
   * C. Bannwarth, S. Ehlert and S. Grimme., J. Chem. Theory Comput., 2019,
     15, 1652-1671. DOI: 10.1021/acs.jctc.8b01176
   for GFN1-xTB:
   * S. Grimme, C. Bannwarth, P. Shushkov, J. Chem. Theory Comput., 2017,
     13, 1989-2009. DOI: 10.1021/acs.jctc.7b00118
   for GFN0-xTB:
   * P. Pracht, E. Caldeweyher, S. Ehlert, S. Grimme, ChemRxiv, 2019, preprint.
     DOI: 10.26434/chemrxiv.8326202.v1
   for GFN-FF:
   * S. Spicher and S. Grimme, Angew. Chem. Int. Ed., 2020, 59, 15665-15673.
     DOI: 10.1002/anie.202004239
   
   for ALPB and GBSA implicit solvation:
   * S. Ehlert, M. Stahn, S. Spicher, S. Grimme, J. Chem. Theory Comput.,
     2021, 17, 4250-4261. DOI: 10.1021/acs.jctc.1c00471
   
   for ddCOSMO and CPCM-X implicit solvation:
   * M. Stahn, S. Ehlert, S. Grimme, J. Phys. Chem. A,
     2023, XX, XXXX-XXXX. DOI: 10.1021/acs.jpca.3c04382
   
   for DFT-D4:
   * E. Caldeweyher, C. Bannwarth and S. Grimme, J. Chem. Phys., 2017,
     147, 034112. DOI: 10.1063/1.4993215
   * E. Caldeweyher, S. Ehlert, A. Hansen, H. Neugebauer, S. Spicher,
     C. Bannwarth and S. Grimme, J. Chem. Phys., 2019, 150, 154122.
     DOI: 10.1063/1.5090222
   * E. Caldeweyher, J.-M. Mewes, S. Ehlert and S. Grimme, Phys. Chem. Chem. Phys.
     2020, 22, 8499-8512. DOI: 10.1039/D0CP00502A
   
   for sTDA-xTB:
   * S. Grimme and C. Bannwarth, J. Chem. Phys., 2016, 145, 054103.
     DOI: 10.1063/1.4959605
   
   in the mass-spec context:
   * V. Asgeirsson, C. Bauer and S. Grimme, Chem. Sci., 2017, 8, 4879.
     DOI: 10.1039/c7sc00601b
   * J. Koopman and S. Grimme, ACS Omega 2019, 4, 12, 15120-15133.
     DOI: 10.1021/acsomega.9b02011
   
   for metadynamics refer to:
   * S. Grimme, J. Chem. Theory Comput., 2019, 155, 2847-2862
     DOI: 10.1021/acs.jctc.9b00143
   
   for SPH calculations refer to:
   * S. Spicher and S. Grimme, J. Chem. Theory Comput., 2021, 17, 1701-1714
     DOI: 10.1021/acs.jctc.0c01306
   
   for ONIOM refer to:
   * C. Plett, A. Katbashev, S. Ehlert, S. Grimme, M. Bursch,
     Phys. Chem. Chem. Phys., 2023, 25, 17860-17868. DOI: 10.1039/D3CP02178E
   
   for DIPRO refer to:
   * J. Kohn, N. Gildemeister, S. Grimme, D. Fazzi, A. Hansen,
     J. Chem. Phys., 2023, just accepted.
   
   for PTB refer to:
   * S. Grimme, M. Mueller, A. Hansen, J. Chem. Phys., 2023, 158, 124111.
     DOI: 10.1063/5.0137838
   
   with help from (in alphabetical order)
   P. Atkinson, C. Bannwarth, F. Bohle, G. Brandenburg, E. Caldeweyher
   M. Checinski, S. Dohm, S. Ehlert, S. Ehrlich, I. Gerasimov, C. Hölzer
   A. Katbashev, J. Kohn, J. Koopman, C. Lavigne, S. Lehtola, F. März, M. Müller,
   F. Musil, H. Neugebauer, J. Pisarek, C. Plett, P. Pracht, F. Pultar,
   J. Seibert, P. Shushkov, S. Spicher, M. Stahn, M. Steiner, T. Strunk,
   J. Stückrath, T. Rose, and J. Unsleber
   
 * started run on 2025/12/01 at 14:19:40.478     
   ID    Z sym.   atoms
    1    6 C      1-3, 6-16, 18, 20-22
    2    8 O      4, 5, 17, 19
    3    1 H      23-46

           -------------------------------------------------
          |                Calculation Setup                |
           -------------------------------------------------

          program call               : xtb pipeline_data/3_conformer_xyz/acrylates/rdkit/VEBCLRKUSAGCDF-RWLZTCESSA-N_conf90.xyz --opt --gfn 2-xTB --iterations 250
          coordinate file            : pipeline_data/3_conformer_xyz/acrylates/rdkit/VEBCLRKUSAGCDF-RWLZTCESSA-N_conf90.xyz
          omp threads                :                    24

########################################################################
[WARNING] Please study the warnings concerning your input carefully
-1- readin_getIntValue: could not parse '2-xTB'
########################################################################

           -------------------------------------------------
          |                 G F N 2 - x T B                 |
           -------------------------------------------------

        Reference                      10.1021/acs.jctc.8b01176
      * Hamiltonian:
        H0-scaling (s, p, d)           1.850000    2.230000    2.230000
        zeta-weighting                 0.500000
      * Dispersion:
        s8                             2.700000
        a1                             0.520000
        a2                             5.000000
        s9                             5.000000
      * Repulsion:
        kExp                           1.500000    1.000000
        rExp                           1.000000
      * Coulomb:
        alpha                          2.000000
        third order                    shell-resolved
        anisotropic                    true
        a3                             3.000000
        a5                             4.000000
        cn-shift                       1.200000
        cn-exp                         4.000000
        max-rad                        5.000000

q/qsh data taken from xtbrestart
CAMM data taken from xtbrestart

          ...................................................
          :                      SETUP                      :
          :.................................................:
          :  # basis functions                 112          :
          :  # atomic orbitals                 112          :
          :  # shells                           68          :
          :  # electrons                       120          :
          :  max. iterations                   250          :
          :  Hamiltonian                  GFN2-xTB          :
          :  restarted?                       true          :
          :  GBSA solvation                  false          :
          :  PC potential                    false          :
          :  electronic temp.          300.0000000     K    :
          :  accuracy                    1.0000000          :
          :  -> integral cutoff          0.2500000E+02      :
          :  -> integral neglect         0.1000000E-07      :
          :  -> SCF convergence          0.1000000E-05 Eh   :
          :  -> wf. convergence          0.1000000E-03 e    :
          :  Broyden damping             0.4000000          :
          :  net charge                          0          :
          :  unpaired electrons                  0          :
          ...................................................

 iter      E             dE          RMSdq      gap      omega  full diag
   1    -67.8158543 -0.678159E+02  0.467E+00    3.15       0.0  T
   2    -67.8226834 -0.682914E-02  0.279E+00    3.01       1.0  T
   3    -67.8199614  0.272206E-02  0.379E-01    3.10       1.0  T
   4    -67.8244759 -0.451448E-02  0.160E-01    3.08       1.0  T
   5    -67.8249418 -0.465925E-03  0.757E-02    3.05       1.0  T
   6    -67.8249674 -0.255823E-04  0.303E-02    3.08       1.0  T
   7    -67.8249834 -0.160656E-04  0.858E-03    3.06       1.7  T
   8    -67.8249839 -0.506143E-06  0.544E-03    3.07       2.7  T
   9    -67.8249844 -0.470939E-06  0.223E-03    3.07       6.6  T
  10    -67.8249845 -0.102358E-06  0.719E-04    3.07      20.5  T
  11    -67.8249845 -0.170633E-08  0.249E-04    3.07      59.2  T

   *** convergence criteria satisfied after 11 iterations ***

         #    Occupation            Energy/Eh            Energy/eV
      -------------------------------------------------------------
         1        2.0000           -0.7337464             -19.9663
       ...           ...                  ...                  ...
        54        2.0000           -0.4293449             -11.6831
        55        2.0000           -0.4273484             -11.6287
        56        2.0000           -0.4231438             -11.5143
        57        2.0000           -0.4193986             -11.4124
        58        2.0000           -0.4117854             -11.2052
        59        2.0000           -0.4106892             -11.1754
        60        2.0000           -0.4035471             -10.9811 (HOMO)
        61                         -0.2908745              -7.9151 (LUMO)
        62                         -0.2856259              -7.7723
        63                         -0.1767400              -4.8093
        64                         -0.1699686              -4.6251
        65                         -0.0262891              -0.7154
       ...                                ...                  ...
       112                          0.6501363              17.6911
      -------------------------------------------------------------
                  HL-Gap            0.1126727 Eh            3.0660 eV
             Fermi-level           -0.3472108 Eh           -9.4481 eV

 SCC (total)                   0 d,  0 h,  0 min,  0.045 sec
 SCC setup                      ...        0 min,  0.000 sec (  0.767%)
 Dispersion                     ...        0 min,  0.001 sec (  2.263%)
 classical contributions        ...        0 min,  0.000 sec (  0.421%)
 integral evaluation            ...        0 min,  0.002 sec (  3.892%)
 iterations                     ...        0 min,  0.035 sec ( 78.546%)
 molecular gradient             ...        0 min,  0.006 sec ( 13.484%)
 printout                       ...        0 min,  0.000 sec (  0.554%)

         :::::::::::::::::::::::::::::::::::::::::::::::::::::
         ::                     SUMMARY                     ::
         :::::::::::::::::::::::::::::::::::::::::::::::::::::
         :: total energy             -67.005507232893 Eh    ::
         :: gradient norm              0.221750850518 Eh/a0 ::
         :: HOMO-LUMO gap              3.065979093677 eV    ::
         ::.................................................::
         :: SCC energy               -67.824989352806 Eh    ::
         :: -> isotropic ES            0.096954479878 Eh    ::
         :: -> anisotropic ES          0.002267626520 Eh    ::
         :: -> anisotropic XC          0.022724054191 Eh    ::
         :: -> dispersion             -0.044394648766 Eh    ::
         :: repulsion energy           0.819482119914 Eh    ::
         :: add. restraining           0.000000000000 Eh    ::
         :: total charge               0.000000000000 e     ::
         :::::::::::::::::::::::::::::::::::::::::::::::::::::

      ----------------------------------------------------------- 
     |                   =====================                   |
     |                        A N C O P T                        |
     |                   =====================                   |
     |               Approximate Normal Coordinate               |
     |                Rational Function Optimizer                |
      ----------------------------------------------------------- 
      ----------------------------------------------------------- 
     |                   =====================                   |
     |                        A N C O P T                        |
     |                   =====================                   |
     |               Approximate Normal Coordinate               |
     |                Rational Function Optimizer                |
      ----------------------------------------------------------- 

          ...................................................
          :                      SETUP                      :
          :.................................................:
          :   optimization level            normal          :
          :   max. optcycles                   200          :
          :   ANC micro-cycles                  20          :
          :   degrees of freedom               132          :
          :.................................................:
          :   RF solver                   davidson          :
          :   write xtbopt.log                true          :
          :   linear?                        false          :
          :   energy convergence         0.5000000E-05 Eh   :
          :   grad. convergence          0.1000000E-02 Eh/α :
          :   maxmium RF displ.          1.0000000          :
          :   Hlow (freq-cutoff)         0.1000000E-01      :
          :   Hmax (freq-cutoff)         5.0000000          :
          :   S6 in model hess.         20.0000000          :
          ...................................................

generating ANC from exact Hessian ...
Using Lindh-Hessian (1995)
 Shifting diagonal of input Hessian by   9.752946265999469E-003
 Lowest  eigenvalues of input Hessian
    0.000000    0.000000    0.000000    0.000000    0.000000    0.000000
    0.010000    0.010124    0.010423    0.010532    0.011133    0.011381
    0.013092    0.013736    0.015296    0.015583    0.016172    0.017068
 Highest eigenvalues
    1.760942    1.773773    1.939239    2.050829    2.121386    2.135235
 

........................................................................
.............................. CYCLE    1 ..............................
........................................................................

 iter      E             dE          RMSdq      gap      omega  full diag
   1    -67.8249845 -0.678250E+02  0.837E-05    3.07       0.0  T
   2    -67.8249845 -0.288480E-10  0.511E-05    3.07     288.4  T
   3    -67.8249845  0.521538E-11  0.363E-05    3.07     406.7  T
     SCC iter.                  ...        0 min,  0.010 sec
     gradient                   ...        0 min,  0.005 sec
 * total energy  :   -67.0055072 Eh     change       -0.6619558E-09 Eh
   gradient norm :     0.2217520 Eh/α   predicted     0.0000000E+00 (-100.00%)
   displ. norm   :     0.4151021 α      lambda       -0.5039142E-01
   maximum displ.:     0.1795167 α      in ANC's #51, #26, #23, ...

........................................................................
.............................. CYCLE    2 ..............................
........................................................................

 iter      E             dE          RMSdq      gap      omega  full diag
   1    -67.8737285 -0.678737E+02  0.281E-01    3.29       0.0  T
   2    -67.8743037 -0.575115E-03  0.175E-01    3.34       1.0  T
   3    -67.8742307  0.729256E-04  0.859E-02    3.32       1.0  T
   4    -67.8743089 -0.781863E-04  0.397E-02    3.33       1.0  T
   5    -67.8743661 -0.572198E-04  0.734E-03    3.33       2.0  T
   6    -67.8743671 -0.943670E-06  0.368E-03    3.33       4.0  T
   7    -67.8743672 -0.938835E-07  0.118E-03    3.33      12.5  T
   8    -67.8743672 -0.114042E-08  0.701E-04    3.33      21.0  T
   9    -67.8743672 -0.791299E-08  0.304E-04    3.33      48.4  T
     SCC iter.                  ...        0 min,  0.022 sec
     gradient                   ...        0 min,  0.005 sec
 * total energy  :   -67.0421449 Eh     change       -0.3663765E-01 Eh
   gradient norm :     0.0965531 Eh/α   predicted    -0.2955986E-01 ( -19.32%)
   displ. norm   :     0.4184040 α      lambda       -0.2010184E-01
   maximum displ.:     0.1940231 α      in ANC's #26, #23, #51, ...

........................................................................
.............................. CYCLE    3 ..............................
........................................................................

 iter      E             dE          RMSdq      gap      omega  full diag
   1    -67.9015853 -0.679016E+02  0.235E-01    3.49       0.0  T
   2    -67.9019072 -0.321890E-03  0.142E-01    3.54       1.0  T
   3    -67.9018560  0.512075E-04  0.637E-02    3.53       1.0  T
   4    -67.9018996 -0.436623E-04  0.314E-02    3.54       1.0  T
   5    -67.9019352 -0.355676E-04  0.513E-03    3.54       2.9  T
   6    -67.9019355 -0.284487E-06  0.246E-03    3.54       6.0  T
   7    -67.9019355 -0.523535E-07  0.795E-04    3.54      18.6  T
   8    -67.9019355 -0.249952E-08  0.315E-04    3.54      46.8  T
     SCC iter.                  ...        0 min,  0.027 sec
     gradient                   ...        0 min,  0.009 sec
 * total energy  :   -67.0541883 Eh     change       -0.1204344E-01 Eh
   gradient norm :     0.0266256 Eh/α   predicted    -0.1181283E-01 (  -1.91%)
   displ. norm   :     0.2965188 α      lambda       -0.3457387E-02
   maximum displ.:     0.1349866 α      in ANC's #26, #23, #18, ...

........................................................................
.............................. CYCLE    4 ..............................
........................................................................

 iter      E             dE          RMSdq      gap      omega  full diag
   1    -67.8993000 -0.678993E+02  0.113E-01    3.55       0.0  T
   2    -67.8993204 -0.204088E-04  0.676E-02    3.55       1.0  T
   3    -67.8993020  0.184741E-04  0.260E-02    3.56       1.0  T
   4    -67.8993214 -0.193995E-04  0.858E-03    3.55       1.7  T
   5    -67.8993241 -0.269142E-05  0.164E-03    3.55       9.0  T
   6    -67.8993241 -0.120595E-07  0.792E-04    3.55      18.6  T
   7    -67.8993241 -0.288254E-08  0.222E-04    3.55      66.6  T
     SCC iter.                  ...        0 min,  0.027 sec
     gradient                   ...        0 min,  0.008 sec
 * total energy  :   -67.0565360 Eh     change       -0.2347645E-02 Eh
   gradient norm :     0.0147685 Eh/α   predicted    -0.1880689E-02 ( -19.89%)
   displ. norm   :     0.2847116 α      lambda       -0.1588709E-02
   maximum displ.:     0.1187388 α      in ANC's #23, #18, #16, ...

........................................................................
.............................. CYCLE    5 ..............................
........................................................................

 iter      E             dE          RMSdq      gap      omega  full diag
   1    -67.8981567 -0.678982E+02  0.901E-02    3.57       0.0  T
   2    -67.8981686 -0.119469E-04  0.537E-02    3.56       1.0  T
   3    -67.8981623  0.632954E-05  0.164E-02    3.57       1.0  T
   4    -67.8981687 -0.642846E-05  0.689E-03    3.56       2.1  T
   5    -67.8981704 -0.167274E-05  0.162E-03    3.56       9.1  T
   6    -67.8981704 -0.886776E-08  0.764E-04    3.56      19.3  T
   7    -67.8981704 -0.479196E-08  0.211E-04    3.56      70.0  T
     SCC iter.                  ...        0 min,  0.017 sec
     gradient                   ...        0 min,  0.005 sec
 * total energy  :   -67.0575952 Eh     change       -0.1059185E-02 Eh
   gradient norm :     0.0102875 Eh/α   predicted    -0.8587928E-03 ( -18.92%)
   displ. norm   :     0.2729251 α      lambda       -0.9558357E-03
   maximum displ.:     0.1142544 α      in ANC's #16, #18, #23, ...

........................................................................
.............................. CYCLE    6 ..............................
........................................................................

 iter      E             dE          RMSdq      gap      omega  full diag
   1    -67.8987684 -0.678988E+02  0.850E-02    3.58       0.0  T
   2    -67.8987733 -0.492535E-05  0.506E-02    3.58       1.0  T
   3    -67.8987718  0.144088E-05  0.899E-03    3.58       1.6  T
   4    -67.8987738 -0.195690E-05  0.436E-03    3.58       3.4  T
   5    -67.8987743 -0.549149E-06  0.168E-03    3.58       8.8  T
   6    -67.8987744 -0.938532E-08  0.571E-04    3.58      25.8  T
   7    -67.8987744 -0.396193E-08  0.179E-04    3.58      82.2  T
     SCC iter.                  ...        0 min,  0.016 sec
     gradient                   ...        0 min,  0.005 sec
 * total energy  :   -67.0581959 Eh     change       -0.6007419E-03 Eh
   gradient norm :     0.0110904 Eh/α   predicted    -0.5135200E-03 ( -14.52%)
   displ. norm   :     0.2410236 α      lambda       -0.6396040E-03
   maximum displ.:     0.1061530 α      in ANC's #16, #14, #18, ...

........................................................................
.............................. CYCLE    7 ..............................
........................................................................

 iter      E             dE          RMSdq      gap      omega  full diag
   1    -67.9013382 -0.679013E+02  0.748E-02    3.59       0.0  T
   2    -67.9013401 -0.190462E-05  0.444E-02    3.59       1.0  T
   3    -67.9013406 -0.457606E-06  0.350E-03    3.59       4.2  T
   4    -67.9013407 -0.128874E-06  0.206E-03    3.59       7.2  T
   5    -67.9013407 -0.103681E-07  0.124E-03    3.59      11.8  T
   6    -67.9013407 -0.225673E-07  0.434E-04    3.59      34.0  T
   7    -67.9013407 -0.424257E-08  0.123E-04    3.59     120.0  T
     SCC iter.                  ...        0 min,  0.017 sec
     gradient                   ...        0 min,  0.005 sec
 * total energy  :   -67.0586267 Eh     change       -0.4307755E-03 Eh
   gradient norm :     0.0105927 Eh/α   predicted    -0.3383865E-03 ( -21.45%)
   displ. norm   :     0.2234396 α      lambda       -0.4464244E-03
   maximum displ.:     0.0829505 α      in ANC's #14, #16, #7, ...

........................................................................
.............................. CYCLE    8 ..............................
........................................................................

 iter      E             dE          RMSdq      gap      omega  full diag
   1    -67.9043974 -0.679044E+02  0.660E-02    3.61       0.0  T
   2    -67.9043991 -0.169603E-05  0.389E-02    3.61       1.0  T
   3    -67.9043986  0.575529E-06  0.562E-03    3.61       2.6  T
   4    -67.9043994 -0.848168E-06  0.272E-03    3.61       5.4  T
   5    -67.9043996 -0.212452E-06  0.113E-03    3.61      13.1  T
   6    -67.9043996 -0.416740E-08  0.355E-04    3.61      41.6  T
   7    -67.9043996 -0.154907E-08  0.809E-05    3.61     182.3  T
     SCC iter.                  ...        0 min,  0.016 sec
     gradient                   ...        0 min,  0.006 sec
 * total energy  :   -67.0589542 Eh     change       -0.3275162E-03 Eh
   gradient norm :     0.0073038 Eh/α   predicted    -0.2343689E-03 ( -28.44%)
   displ. norm   :     0.2906404 α      lambda       -0.3951084E-03
   maximum displ.:     0.0997061 α      in ANC's #13, #14, #7, ...

........................................................................
.............................. CYCLE    9 ..............................
........................................................................

 iter      E             dE          RMSdq      gap      omega  full diag
   1    -67.9047184 -0.679047E+02  0.897E-02    3.62       0.0  T
   2    -67.9047203 -0.188490E-05  0.529E-02    3.62       1.0  T
   3    -67.9047205 -0.171817E-06  0.403E-03    3.62       3.7  T
   4    -67.9047209 -0.380892E-06  0.221E-03    3.62       6.7  T
   5    -67.9047210 -0.666921E-07  0.136E-03    3.62      10.9  T
   6    -67.9047210 -0.178440E-07  0.440E-04    3.62      33.5  T
   7    -67.9047210 -0.307332E-08  0.961E-05    3.62     153.5  T
     SCC iter.                  ...        0 min,  0.016 sec
     gradient                   ...        0 min,  0.006 sec
 * total energy  :   -67.0592427 Eh     change       -0.2885574E-03 Eh
   gradient norm :     0.0067726 Eh/α   predicted    -0.2142456E-03 ( -25.75%)
   displ. norm   :     0.3468684 α      lambda       -0.4182538E-03
   maximum displ.:     0.1308440 α      in ANC's #13, #7, #3, ...

........................................................................
.............................. CYCLE   10 ..............................
........................................................................

 iter      E             dE          RMSdq      gap      omega  full diag
   1    -67.9061492 -0.679061E+02  0.970E-02    3.66       0.0  T
   2    -67.9061573 -0.816074E-05  0.569E-02    3.66       1.0  T
   3    -67.9061519  0.537541E-05  0.133E-02    3.65       1.1  T
   4    -67.9061574 -0.547707E-05  0.537E-03    3.65       2.7  T
   5    -67.9061585 -0.106221E-05  0.120E-03    3.65      12.3  T
   6    -67.9061585 -0.474101E-08  0.562E-04    3.65      26.2  T
   7    -67.9061585 -0.237313E-08  0.193E-04    3.65      76.5  T
     SCC iter.                  ...        0 min,  0.017 sec
     gradient                   ...        0 min,  0.007 sec
 * total energy  :   -67.0594751 Eh     change       -0.2323151E-03 Eh
   gradient norm :     0.0104541 Eh/α   predicted    -0.2342973E-03 (   0.85%)
   displ. norm   :     0.3649698 α      lambda       -0.3870337E-03
   maximum displ.:     0.1361067 α      in ANC's #13, #3, #7, ...

........................................................................
.............................. CYCLE   11 ..............................
........................................................................

 iter      E             dE          RMSdq      gap      omega  full diag
   1    -67.9017159 -0.679017E+02  0.117E-01    3.62       0.0  T
   2    -67.9017315 -0.155956E-04  0.697E-02    3.63       1.0  T
   3    -67.9017219  0.956935E-05  0.175E-02    3.63       1.0  T
   4    -67.9017313 -0.938422E-05  0.758E-03    3.63       1.9  T
   5    -67.9017335 -0.222508E-05  0.163E-03    3.63       9.1  T
   6    -67.9017335 -0.720277E-08  0.830E-04    3.63      17.8  T
   7    -67.9017335 -0.481735E-08  0.200E-04    3.63      73.6  T
     SCC iter.                  ...        0 min,  0.017 sec
     gradient                   ...        0 min,  0.008 sec
 * total energy  :   -67.0596324 Eh     change       -0.1573350E-03 Eh
   gradient norm :     0.0113535 Eh/α   predicted    -0.2192952E-03 (  39.38%)
   displ. norm   :     0.1053004 α      lambda       -0.2836744E-03
   maximum displ.:     0.0511728 α      in ANC's #9, #8, #14, ...

........................................................................
.............................. CYCLE   12 ..............................
........................................................................

 iter      E             dE          RMSdq      gap      omega  full diag
   1    -67.9051234 -0.679051E+02  0.365E-02    3.65       0.0  T
   2    -67.9051270 -0.362534E-05  0.217E-02    3.65       1.0  T
   3    -67.9051253  0.172208E-05  0.887E-03    3.65       1.7  T
   4    -67.9051272 -0.188097E-05  0.341E-03    3.65       4.3  T
   5    -67.9051276 -0.419101E-06  0.719E-04    3.65      20.5  T
   6    -67.9051276 -0.540291E-08  0.397E-04    3.65      37.1  T
     SCC iter.                  ...        0 min,  0.014 sec
     gradient                   ...        0 min,  0.006 sec
 * total energy  :   -67.0598175 Eh     change       -0.1850704E-03 Eh
   gradient norm :     0.0055618 Eh/α   predicted    -0.1434162E-03 ( -22.51%)
   displ. norm   :     0.2575679 α      lambda       -0.2710473E-03
   maximum displ.:     0.1225946 α      in ANC's #9, #3, #13, ...

........................................................................
.............................. CYCLE   13 ..............................
........................................................................

 iter      E             dE          RMSdq      gap      omega  full diag
   1    -67.9045392 -0.679045E+02  0.758E-02    3.67       0.0  T
   2    -67.9045444 -0.518908E-05  0.445E-02    3.67       1.0  T
   3    -67.9045427  0.168950E-05  0.834E-03    3.66       1.8  T
   4    -67.9045441 -0.143719E-05  0.408E-03    3.67       3.6  T
   5    -67.9045448 -0.666512E-06  0.705E-04    3.67      20.9  T
   6    -67.9045448 -0.209283E-08  0.319E-04    3.67      46.2  T
     SCC iter.                  ...        0 min,  0.015 sec
     gradient                   ...        0 min,  0.007 sec
 * total energy  :   -67.0599669 Eh     change       -0.1494457E-03 Eh
   gradient norm :     0.0075865 Eh/α   predicted    -0.1445144E-03 (  -3.30%)
   displ. norm   :     0.1665000 α      lambda       -0.1253551E-03
   maximum displ.:     0.0853356 α      in ANC's #9, #3, #8, ...

........................................................................
.............................. CYCLE   14 ..............................
........................................................................

 iter      E             dE          RMSdq      gap      omega  full diag
   1    -67.9053632 -0.679054E+02  0.461E-02    3.66       0.0  T
   2    -67.9053649 -0.170656E-05  0.272E-02    3.66       1.0  T
   3    -67.9053645  0.473482E-06  0.460E-03    3.67       3.2  T
   4    -67.9053649 -0.455117E-06  0.221E-03    3.66       6.7  T
   5    -67.9053651 -0.179263E-06  0.499E-04    3.66      29.6  T
   6    -67.9053651 -0.169706E-08  0.214E-04    3.66      68.9  T
     SCC iter.                  ...        0 min,  0.014 sec
     gradient                   ...        0 min,  0.006 sec
 * total energy  :   -67.0600476 Eh     change       -0.8070521E-04 Eh
   gradient norm :     0.0037109 Eh/α   predicted    -0.6441736E-04 ( -20.18%)
   displ. norm   :     0.1473451 α      lambda       -0.8018938E-04
   maximum displ.:     0.0660448 α      in ANC's #9, #3, #6, ...

........................................................................
.............................. CYCLE   15 ..............................
........................................................................

 iter      E             dE          RMSdq      gap      omega  full diag
   1    -67.9052145 -0.679052E+02  0.401E-02    3.66       0.0  T
   2    -67.9052153 -0.854845E-06  0.237E-02    3.66       1.0  T
   3    -67.9052147  0.650255E-06  0.441E-03    3.66       3.3  T
   4    -67.9052153 -0.666418E-06  0.178E-03    3.66       8.3  T
   5    -67.9052155 -0.115637E-06  0.385E-04    3.66      38.3  T
   6    -67.9052155 -0.589722E-09  0.172E-04    3.66      85.6  T
     SCC iter.                  ...        0 min,  0.014 sec
     gradient                   ...        0 min,  0.009 sec
 * total energy  :   -67.0600993 Eh     change       -0.5170688E-04 Eh
   gradient norm :     0.0023901 Eh/α   predicted    -0.4097071E-04 ( -20.76%)
   displ. norm   :     0.1002672 α      lambda       -0.5432361E-04
   maximum displ.:     0.0491485 α      in ANC's #11, #1, #10, ...

........................................................................
.............................. CYCLE   16 ..............................
........................................................................

 iter      E             dE          RMSdq      gap      omega  full diag
   1    -67.9063197 -0.679063E+02  0.307E-02    3.65       0.0  T
   2    -67.9063201 -0.444519E-06  0.180E-02    3.65       1.0  T
   3    -67.9063200  0.141069E-06  0.258E-03    3.66       5.7  T
   4    -67.9063201 -0.164298E-06  0.104E-03    3.65      14.1  T
   5    -67.9063202 -0.376379E-07  0.332E-04    3.65      44.5  T
   6    -67.9063202 -0.111291E-08  0.153E-04    3.65      96.5  T
     SCC iter.                  ...        0 min,  0.015 sec
     gradient                   ...        0 min,  0.007 sec
 * total energy  :   -67.0601287 Eh     change       -0.2934929E-04 Eh
   gradient norm :     0.0024780 Eh/α   predicted    -0.2743707E-04 (  -6.52%)
   displ. norm   :     0.0617216 α      lambda       -0.2431314E-04
   maximum displ.:     0.0280663 α      in ANC's #11, #1, #3, ...

........................................................................
.............................. CYCLE   17 ..............................
........................................................................

 iter      E             dE          RMSdq      gap      omega  full diag
   1    -67.9062589 -0.679063E+02  0.227E-02    3.65       0.0  T
   2    -67.9062591 -0.146132E-06  0.134E-02    3.65       1.1  T
   3    -67.9062588  0.279000E-06  0.280E-03    3.65       5.3  T
   4    -67.9062591 -0.303404E-06  0.709E-04    3.65      20.8  T
   5    -67.9062591 -0.183754E-07  0.181E-04    3.65      81.4  T
     SCC iter.                  ...        0 min,  0.011 sec
     gradient                   ...        0 min,  0.006 sec
 * total energy  :   -67.0601445 Eh     change       -0.1586695E-04 Eh
   gradient norm :     0.0017459 Eh/α   predicted    -0.1220569E-04 ( -23.07%)
   displ. norm   :     0.0865252 α      lambda       -0.2032772E-04
   maximum displ.:     0.0396271 α      in ANC's #1, #11, #10, ...

........................................................................
.............................. CYCLE   18 ..............................
........................................................................

 iter      E             dE          RMSdq      gap      omega  full diag
   1    -67.9061008 -0.679061E+02  0.386E-02    3.65       0.0  T
   2    -67.9061010 -0.216272E-06  0.228E-02    3.65       1.0  T
   3    -67.9061006  0.371088E-06  0.334E-03    3.65       4.4  T
   4    -67.9061011 -0.436252E-06  0.761E-04    3.65      19.4  T
   5    -67.9061011 -0.158486E-07  0.299E-04    3.65      49.2  T
     SCC iter.                  ...        0 min,  0.011 sec
     gradient                   ...        0 min,  0.006 sec
 * total energy  :   -67.0601620 Eh     change       -0.1746101E-04 Eh
   gradient norm :     0.0021524 Eh/α   predicted    -0.1020317E-04 ( -41.57%)
   displ. norm   :     0.0469157 α      lambda       -0.1389083E-04
   maximum displ.:     0.0223090 α      in ANC's #1, #5, #10, ...

........................................................................
.............................. CYCLE   19 ..............................
........................................................................

 iter      E             dE          RMSdq      gap      omega  full diag
   1    -67.9061109 -0.679061E+02  0.223E-02    3.65       0.0  T
   2    -67.9061110 -0.578619E-07  0.131E-02    3.65       1.1  T
   3    -67.9061109  0.618571E-07  0.141E-03    3.65      10.4  T
   4    -67.9061110 -0.768883E-07  0.440E-04    3.65      33.5  T
   5    -67.9061110 -0.591936E-08  0.168E-04    3.65      87.5  T
     SCC iter.                  ...        0 min,  0.011 sec
     gradient                   ...        0 min,  0.005 sec
 * total energy  :   -67.0601736 Eh     change       -0.1164717E-04 Eh
   gradient norm :     0.0018988 Eh/α   predicted    -0.6965450E-05 ( -40.20%)
   displ. norm   :     0.2156488 α      lambda       -0.3647579E-04
   maximum displ.:     0.1066725 α      in ANC's #1, #5, #12, ...

........................................................................
.............................. CYCLE   20 ..............................
........................................................................

 iter      E             dE          RMSdq      gap      omega  full diag
   1    -67.9054093 -0.679054E+02  0.103E-01    3.64       0.0  T
   2    -67.9054101 -0.797088E-06  0.605E-02    3.64       1.0  T
   3    -67.9054088  0.137839E-05  0.651E-03    3.64       2.3  T
   4    -67.9054105 -0.174130E-05  0.146E-03    3.64      10.1  T
   5    -67.9054106 -0.447558E-07  0.682E-04    3.64      21.6  T
   6    -67.9054106 -0.113253E-08  0.242E-04    3.64      60.8  T
     SCC iter.                  ...        0 min,  0.013 sec
     gradient                   ...        0 min,  0.005 sec
 * total energy  :   -67.0602001 Eh     change       -0.2646231E-04 Eh
   gradient norm :     0.0027291 Eh/α   predicted    -0.1861773E-04 ( -29.64%)
   displ. norm   :     0.0485587 α      lambda       -0.1585126E-04
   maximum displ.:     0.0264631 α      in ANC's #1, #3, #12, ...
 * RMSD in coord.:     0.4106221 α      energy gain  -0.5469287E-01 Eh

generating ANC from exact Hessian ...
Using Lindh-Hessian (1995)
 Shifting diagonal of input Hessian by   9.776516473642494E-003
 Lowest  eigenvalues of input Hessian
    0.000000    0.000000    0.000000    0.000000    0.000000    0.000000
    0.010000    0.010154    0.010471    0.010523    0.011262    0.011555
    0.012907    0.013128    0.014505    0.015170    0.015658    0.016564
 Highest eigenvalues
    1.759025    1.817995    1.952875    2.030939    2.393709    2.399424
 

........................................................................
.............................. CYCLE   21 ..............................
........................................................................

 iter      E             dE          RMSdq      gap      omega  full diag
   1    -67.9055074 -0.679055E+02  0.191E-02    3.64       0.0  T
   2    -67.9055075 -0.636771E-07  0.112E-02    3.64       1.3  T
   3    -67.9055075  0.307560E-07  0.112E-03    3.64      13.1  T
   4    -67.9055075 -0.411937E-07  0.440E-04    3.64      33.5  T
   5    -67.9055075 -0.559284E-08  0.167E-04    3.64      88.5  T
     SCC iter.                  ...        0 min,  0.022 sec
     gradient                   ...        0 min,  0.008 sec
 * total energy  :   -67.0602123 Eh     change       -0.1214644E-04 Eh
   gradient norm :     0.0019893 Eh/α   predicted     0.0000000E+00 (-100.00%)
   displ. norm   :     0.0299834 α      lambda       -0.1310870E-04
   maximum displ.:     0.0121241 α      in ANC's #10, #4, #16, ...

........................................................................
.............................. CYCLE   22 ..............................
........................................................................

 iter      E             dE          RMSdq      gap      omega  full diag
   1    -67.9061595 -0.679062E+02  0.127E-02    3.64       0.0  T
   2    -67.9061596 -0.102864E-06  0.755E-03    3.64       2.0  T
   3    -67.9061596  0.130824E-07  0.937E-04    3.64      15.7  T
   4    -67.9061596 -0.195896E-07  0.380E-04    3.64      38.8  T
     SCC iter.                  ...        0 min,  0.012 sec
     gradient                   ...        0 min,  0.005 sec
 * total energy  :   -67.0602242 Eh     change       -0.1193189E-04 Eh
   gradient norm :     0.0009123 Eh/α   predicted    -0.6796086E-05 ( -43.04%)
   displ. norm   :     0.0487285 α      lambda       -0.1079837E-04
   maximum displ.:     0.0223275 α      in ANC's #4, #10, #1, ...

........................................................................
.............................. CYCLE   23 ..............................
........................................................................

 iter      E             dE          RMSdq      gap      omega  full diag
   1    -67.9064922 -0.679065E+02  0.196E-02    3.64       0.0  T
   2    -67.9064923 -0.871385E-07  0.116E-02    3.64       1.3  T
   3    -67.9064923  0.586172E-08  0.858E-04    3.64      17.2  T
   4    -67.9064923 -0.156470E-07  0.483E-04    3.64      30.5  T
     SCC iter.                  ...        0 min,  0.010 sec
     gradient                   ...        0 min,  0.006 sec
 * total energy  :   -67.0602296 Eh     change       -0.5371671E-05 Eh
   gradient norm :     0.0013378 Eh/α   predicted    -0.5406871E-05 (   0.66%)
   displ. norm   :     0.0291465 α      lambda       -0.6327453E-05
   maximum displ.:     0.0151545 α      in ANC's #4, #1, #10, ...

........................................................................
.............................. CYCLE   24 ..............................
........................................................................

 iter      E             dE          RMSdq      gap      omega  full diag
   1    -67.9061688 -0.679062E+02  0.109E-02    3.64       0.0  T
   2    -67.9061688 -0.232512E-07  0.646E-03    3.64       2.3  T
   3    -67.9061688  0.597934E-07  0.131E-03    3.64      11.2  T
   4    -67.9061688 -0.671837E-07  0.274E-04    3.64      53.8  T
   5    -67.9061688 -0.227067E-08  0.110E-04    3.64     133.8  T
     SCC iter.                  ...        0 min,  0.011 sec
     gradient                   ...        0 min,  0.005 sec
 * total energy  :   -67.0602359 Eh     change       -0.6339738E-05 Eh
   gradient norm :     0.0008626 Eh/α   predicted    -0.3172814E-05 ( -49.95%)
   displ. norm   :     0.0472395 α      lambda       -0.5229651E-05
   maximum displ.:     0.0251121 α      in ANC's #1, #4, #3, ...

........................................................................
.............................. CYCLE   25 ..............................
........................................................................

 iter      E             dE          RMSdq      gap      omega  full diag
   1    -67.9059279 -0.679059E+02  0.163E-02    3.64       0.0  T
   2    -67.9059280 -0.634464E-07  0.955E-03    3.64       1.5  T
   3    -67.9059280  0.982907E-08  0.730E-04    3.64      20.2  T
   4    -67.9059280 -0.146911E-07  0.315E-04    3.64      46.9  T
     SCC iter.                  ...        0 min,  0.009 sec
     gradient                   ...        0 min,  0.005 sec
 * total energy  :   -67.0602416 Eh     change       -0.5702752E-05 Eh
   gradient norm :     0.0006568 Eh/α   predicted    -0.2617813E-05 ( -54.10%)
   displ. norm   :     0.0839013 α      lambda       -0.6725947E-05
   maximum displ.:     0.0453280 α      in ANC's #1, #4, #3, ...

........................................................................
.............................. CYCLE   26 ..............................
........................................................................

 iter      E             dE          RMSdq      gap      omega  full diag
   1    -67.9057921 -0.679058E+02  0.298E-02    3.64       0.0  T
   2    -67.9057922 -0.924101E-07  0.175E-02    3.64       1.0  T
   3    -67.9057922  0.135481E-07  0.955E-04    3.64      15.4  T
   4    -67.9057922 -0.264238E-07  0.477E-04    3.64      30.9  T
     SCC iter.                  ...        0 min,  0.010 sec
     gradient                   ...        0 min,  0.005 sec
 * total energy  :   -67.0602489 Eh     change       -0.7339858E-05 Eh
   gradient norm :     0.0008818 Eh/α   predicted    -0.3378445E-05 ( -53.97%)
   displ. norm   :     0.1298669 α      lambda       -0.9252568E-05
   maximum displ.:     0.0712486 α      in ANC's #1, #4, #3, ...

........................................................................
.............................. CYCLE   27 ..............................
........................................................................

 iter      E             dE          RMSdq      gap      omega  full diag
   1    -67.9056748 -0.679057E+02  0.476E-02    3.64       0.0  T
   2    -67.9056749 -0.106157E-06  0.280E-02    3.64       1.0  T
   3    -67.9056749  0.864225E-08  0.123E-03    3.64      12.0  T
   4    -67.9056749 -0.514543E-07  0.492E-04    3.64      29.9  T
   5    -67.9056750 -0.541090E-08  0.220E-04    3.64      67.0  T
     SCC iter.                  ...        0 min,  0.012 sec
     gradient                   ...        0 min,  0.006 sec
 * total energy  :   -67.0602591 Eh     change       -0.1015717E-04 Eh
   gradient norm :     0.0012838 Eh/α   predicted    -0.4661381E-05 ( -54.11%)
   displ. norm   :     0.1729489 α      lambda       -0.1199373E-04
   maximum displ.:     0.0961347 α      in ANC's #1, #4, #3, ...

........................................................................
.............................. CYCLE   28 ..............................
........................................................................

 iter      E             dE          RMSdq      gap      omega  full diag
   1    -67.9055667 -0.679056E+02  0.646E-02    3.64       0.0  T
   2    -67.9055668 -0.155291E-06  0.379E-02    3.64       1.0  T
   3    -67.9055669 -0.515241E-07  0.103E-03    3.64      14.3  T
   4    -67.9055669 -0.269904E-07  0.549E-04    3.64      26.9  T
   5    -67.9055669 -0.366528E-08  0.225E-04    3.64      65.6  T
     SCC iter.                  ...        0 min,  0.012 sec
     gradient                   ...        0 min,  0.005 sec
 * total energy  :   -67.0602717 Eh     change       -0.1263788E-04 Eh
   gradient norm :     0.0014849 Eh/α   predicted    -0.6077544E-05 ( -51.91%)
   displ. norm   :     0.2025882 α      lambda       -0.1433357E-04
   maximum displ.:     0.1159250 α      in ANC's #1, #4, #3, ...

........................................................................
.............................. CYCLE   29 ..............................
........................................................................

 iter      E             dE          RMSdq      gap      omega  full diag
   1    -67.9056922 -0.679057E+02  0.750E-02    3.64       0.0  T
   2    -67.9056925 -0.275758E-06  0.440E-02    3.64       1.0  T
   3    -67.9056926 -0.869380E-07  0.102E-03    3.64      14.4  T
   4    -67.9056926 -0.195867E-07  0.504E-04    3.64      29.2  T
   5    -67.9056926 -0.984826E-09  0.334E-04    3.64      44.2  T
     SCC iter.                  ...        0 min,  0.012 sec
     gradient                   ...        0 min,  0.006 sec
 * total energy  :   -67.0602856 Eh     change       -0.1387156E-04 Eh
   gradient norm :     0.0013088 Eh/α   predicted    -0.7299246E-05 ( -47.38%)
   displ. norm   :     0.1534476 α      lambda       -0.1109467E-04
   maximum displ.:     0.0922235 α      in ANC's #1, #4, #6, ...

........................................................................
.............................. CYCLE   30 ..............................
........................................................................

 iter      E             dE          RMSdq      gap      omega  full diag
   1    -67.9062714 -0.679063E+02  0.550E-02    3.64       0.0  T
   2    -67.9062716 -0.198193E-06  0.323E-02    3.64       1.0  T
   3    -67.9062716 -0.967860E-08  0.135E-03    3.64      10.9  T
   4    -67.9062717 -0.476677E-07  0.643E-04    3.64      22.9  T
   5    -67.9062717 -0.102554E-07  0.318E-04    3.64      46.3  T
     SCC iter.                  ...        0 min,  0.012 sec
     gradient                   ...        0 min,  0.008 sec
 * total energy  :   -67.0602951 Eh     change       -0.9529251E-05 Eh
   gradient norm :     0.0007677 Eh/α   predicted    -0.5607794E-05 ( -41.15%)
   displ. norm   :     0.1157710 α      lambda       -0.4965381E-05
   maximum displ.:     0.0698923 α      in ANC's #1, #4, #6, ...

........................................................................
.............................. CYCLE   31 ..............................
........................................................................

 iter      E             dE          RMSdq      gap      omega  full diag
   1    -67.9060996 -0.679061E+02  0.428E-02    3.64       0.0  T
   2    -67.9060996 -0.731308E-07  0.251E-02    3.64       1.0  T
   3    -67.9060997 -0.326371E-07  0.526E-04    3.64      28.0  T
   4    -67.9060997 -0.357633E-08  0.305E-04    3.64      48.3  T
     SCC iter.                  ...        0 min,  0.010 sec
     gradient                   ...        0 min,  0.006 sec
 * total energy  :   -67.0603003 Eh     change       -0.5164348E-05 Eh
   gradient norm :     0.0006970 Eh/α   predicted    -0.2500859E-05 ( -51.57%)
   displ. norm   :     0.0760580 α      lambda       -0.3621169E-05
   maximum displ.:     0.0482741 α      in ANC's #1, #6, #4, ...

........................................................................
.............................. CYCLE   32 ..............................
........................................................................

 iter      E             dE          RMSdq      gap      omega  full diag
   1    -67.9062732 -0.679063E+02  0.255E-02    3.64       0.0  T
   2    -67.9062733 -0.335836E-07  0.150E-02    3.64       1.0  T
   3    -67.9062733 -0.102390E-07  0.491E-04    3.64      30.0  T
   4    -67.9062733 -0.465458E-08  0.286E-04    3.64      51.5  T
     SCC iter.                  ...        0 min,  0.010 sec
     gradient                   ...        0 min,  0.006 sec
 * total energy  :   -67.0603041 Eh     change       -0.3835689E-05 Eh
   gradient norm :     0.0004980 Eh/α   predicted    -0.1818616E-05 ( -52.59%)
   displ. norm   :     0.0917370 α      lambda       -0.3367835E-05
   maximum displ.:     0.0572875 α      in ANC's #1, #6, #4, ...

   *** GEOMETRY OPTIMIZATION CONVERGED AFTER 32 ITERATIONS ***

------------------------------------------------------------------------
 total energy gain   :        -0.0547969 Eh      -34.3856 kcal/mol
 total RMSD          :         0.5011342 a0        0.2652 Å
 total power (kW/mol):        -4.4959140 (step) -162.9454 (real)
------------------------------------------------------------------------

 ANCopt (total)                0 d,  0 h,  0 min,  0.883 sec
 optimizer setup                ...        0 min,  0.000 sec (  0.014%)
 model hessian                  ...        0 min,  0.118 sec ( 13.368%)
 ANC generation                 ...        0 min,  0.004 sec (  0.407%)
 coordinate transformation      ...        0 min,  0.001 sec (  0.090%)
 single point calculation       ...        0 min,  0.736 sec ( 83.310%)
 optimization log               ...        0 min,  0.010 sec (  1.188%)
 hessian update                 ...        0 min,  0.007 sec (  0.747%)
 rational function              ...        0 min,  0.005 sec (  0.515%)

================
 final structure:
================
46
 xtb: 6.7.1 (edcfbbe)
C            7.63662771855484        1.20195960026384        0.77046594659587
C            6.52183132511079        0.85006670189978        0.14788684929107
C            5.20368383766580        0.95394606088100        0.81249101043270
O            5.01285277092263        1.35163486951833        1.93515846448343
O            4.22845691657115        0.54129378284506       -0.00625966930366
C            2.90058491189849        0.58715537524836        0.51216388151775
C            1.93449328908674        0.11629070560620       -0.57203827724978
C            2.19002855487714       -1.35561660311753       -0.92118699259560
C            1.23116906968319       -2.16443253023243       -0.04391911351588
C            0.04675811821107       -1.24599879685689        0.28767522529447
C           -1.19999121899974       -1.44752731202170       -0.58859603630964
C           -0.84080600278042       -0.68063312583583       -1.85951497392040
C           -0.54786098006851        0.62270423450909       -1.12060274259251
C           -1.88183444344681        0.85530861275036       -0.39997574028318
C           -2.31476169248057       -0.57002352972120        0.00960065440352
C           -3.69515536684074       -0.94558601833830       -0.53065793646344
O           -4.69984896977911       -0.03720257029332       -0.08657290132077
C           -5.16969928280858       -0.21784984433475        1.15385699917931
O           -4.80726214069257       -1.10704179082363        1.88597556124160
C           -6.19447388347233        0.78157344902325        1.52975175132734
C           -6.56398004832504        1.79125546817351        0.75632223089810
C            0.48476695680880        0.19607040969491       -0.06501052118082
H            8.60430652624061        1.13289711599731        0.30384493297187
H            7.59735503517731        1.57370511739401        1.78160588085635
H            6.50222970340263        0.47207082170339       -0.86304855352691
H            2.84058705306483       -0.05384512003269        1.39861570008231
H            2.68021982342912        1.61543238926491        0.82155238695379
H            2.08323862123742        0.75457834619716       -1.44657267689826
H            3.22988706140763       -1.62123792879697       -0.73510223572031
H            1.99650469420528       -1.53380367856124       -1.97830360368250
H            1.73261559324583       -2.45763459789380        0.87885019229085
H            0.90233086314852       -3.07519240859806       -0.54338393342654
H           -0.21872482530079       -1.35253202578157        1.34061893174998
H           -1.48683303097418       -2.49066451764497       -0.71087580094237
H            0.01454789490033       -1.09070965123264       -2.38469679266236
H           -1.67258033193940       -0.58996045200038       -2.55555669708092
H           -0.22830860227792        1.46728840632829       -1.72910036649249
H           -1.77664822868801        1.51784995137772        0.45830286415855
H           -2.61363259928118        1.29765635182399       -1.07687865741962
H           -2.35426545035160       -0.67775669858344        1.09606677074773
H           -3.72796771930477       -0.89102700313684       -1.62036694515645
H           -3.95741608861930       -1.95698527658046       -0.20100415878966
H           -6.61981528870102        0.61949906137005        2.50983183057515
H           -7.31250339924739        2.49985316681610        1.06890231224390
H           -6.12645955356459        1.93735584587648       -0.21652713178834
H            0.43575480910069        0.86513563587350        0.79621008104180
 
 Bond Distances (Angstroems)
 ---------------------------
C1-C2=1.3245         C1-H23=1.0765        C1-H24=1.0780        C2-C1=1.3245         C2-C3=1.4799         C2-H25=1.0795        
C3-C2=1.4799         C3-O4=1.2062         C3-O5=1.3385         O4-C3=1.2062         O5-C3=1.3385         O5-C6=1.4262         
C6-O5=1.4262         C6-C7=1.5266         C6-H26=1.0956        C6-H27=1.0962        C7-C6=1.5266         C7-C8=1.5342         
C7-C22=1.5379        C7-H28=1.0929        C8-C7=1.5342         C8-C9=1.5307         C8-H29=1.0893        C8-H30=1.0894        
C9-C8=1.5307         C9-C10=1.5350        C9-H31=1.0904        C9-H32=1.0895        C10-C9=1.5350        C10-C11=1.5372       
C10-C22=1.5478       C10-H33=1.0911       C11-C10=1.5372       C11-C12=1.5272       C11-C15=1.5397       C11-H34=1.0887       
C12-C11=1.5272       C12-C13=1.5266       C12-H35=1.0843       C12-H36=1.0884       C13-C12=1.5266       C13-C14=1.5339       
C13-C22=1.5371       C13-H37=1.0889       C14-C13=1.5339       C14-C15=1.5449       C14-H38=1.0893       C14-H39=1.0906       
C15-C11=1.5397       C15-C14=1.5449       C15-C16=1.5292       C15-H40=1.0925       C16-C15=1.5292       C16-O17=1.4254       
C16-H41=1.0916       C16-H42=1.0956       O17-C16=1.4254       O17-C18=1.3387       C18-O17=1.3387       C18-O19=1.2075       
C18-C20=1.4800       O19-C18=1.2075       C20-C18=1.4800       C20-C21=1.3245       C20-H43=1.0806       C21-C20=1.3245       
C21-H44=1.0771       C21-H45=1.0767       C22-C7=1.5379        C22-C10=1.5478       C22-C13=1.5371       C22-H46=1.0917       
H23-C1=1.0765        H24-C1=1.0780        H25-C2=1.0795        H26-C6=1.0956        H27-C6=1.0962        H28-C7=1.0929        
H29-C8=1.0893        H30-C8=1.0894        H31-C9=1.0904        H32-C9=1.0895        H33-C10=1.0911       H34-C11=1.0887       
H35-C12=1.0843       H36-C12=1.0884       H37-C13=1.0889       H38-C14=1.0893       H39-C14=1.0906       H40-C15=1.0925       
H41-C16=1.0916       H42-C16=1.0956       H43-C20=1.0806       H44-C21=1.0771       H45-C21=1.0767       H46-C22=1.0917       
 C  H  Rav=1.0877 sigma=0.0061  Rmin=1.0765  Rmax=1.0962    24
 C  C  Rav=1.5054 sigma=0.0665  Rmin=1.3245  Rmax=1.5478    18
 O  C  Rav=1.3238 sigma=0.0900  Rmin=1.2062  Rmax=1.4262     6
 
 selected bond angles (degree)
 --------------------
H23-C1-C2=122.40               H24-C1-C2=120.12               H24-C1-H23=117.48              C3-C2-C1=121.33                
H25-C2-C1=123.27               H25-C2-C3=115.40               O4-C3-C2=125.60                O5-C3-C2=110.65                
O5-C3-O4=123.76                C6-O5-C3=116.49                C7-C6-O5=108.73                H26-C6-O5=109.04               
H26-C6-C7=111.07               H27-C6-O5=108.66               H27-C6-C7=111.26               H27-C6-H26=108.03              
C8-C7-C6=110.62                C22-C7-C6=110.27               C22-C7-C8=106.37               H28-C7-C6=107.58               
H28-C7-C8=110.83               H28-C7-C22=111.21              C9-C8-C7=105.79                H29-C8-C7=110.74               
H29-C8-C9=111.79               H30-C8-C7=110.38               H30-C8-C9=111.00               H30-C8-H29=107.19              
C10-C9-C8=106.92               H31-C9-C8=109.82               H31-C9-C10=109.45              H32-C9-C8=111.59               
H32-C9-C10=111.49              H32-C9-H31=107.58              C11-C10-C9=115.10              C22-C10-C9=106.85              
C22-C10-C11=102.81             H33-C10-C9=109.74              H33-C10-C11=109.88             H33-C10-C22=112.32             
 
 selected dihedral angles (degree)
 ---------------------------------
C3-C2-C1-H23=179.96           C3-C2-C1-H24=359.96           H25-C2-C1-H23=  0.00          H25-C2-C1-H24=180.00          
O4-C3-C2-C1=  0.09            O4-C3-C2-H25=180.06           O5-C3-C2-C1=180.13            O5-C3-C2-H25=  0.10           
C6-O5-C3-C2=179.90            C6-O5-C3-O4=359.94            C7-C6-O5-C3=178.54            H26-C6-O5-C3=299.78           
H27-C6-O5-C3= 57.30           C8-C7-C6-O5= 64.49            C8-C7-C6-H26=304.50           C8-C7-C6-H27=184.12           
C22-C7-C6-O5=181.87           C22-C7-C6-H26= 61.88          C22-C7-C6-H27=301.50          H28-C7-C6-O5=303.31           
H28-C7-C6-H26=183.32          H28-C7-C6-H27= 62.94          C9-C8-C7-C6= 93.60            C9-C8-C7-C22=333.85           
C9-C8-C7-H28=212.83           H29-C8-C7-C6=332.29           H29-C8-C7-C22=212.54          H29-C8-C7-H28= 91.53          
H30-C8-C7-C6=213.76           H30-C8-C7-C22= 94.01          H30-C8-C7-H28=332.99          C10-C9-C8-C7= 25.50           
C10-C9-C8-H29=146.13          C10-C9-C8-H30=265.75          H31-C9-C8-C7=266.85           H31-C9-C8-H29= 27.47          
H31-C9-C8-H30=147.10          H32-C9-C8-C7=147.65           H32-C9-C8-H29=268.28          H32-C9-C8-H30= 27.90          
C11-C10-C9-C8= 98.44          C11-C10-C9-H31=217.33         C11-C10-C9-H32=336.22         C22-C10-C9-C8=345.00          
C22-C10-C9-H31=103.89         C22-C10-C9-H32=222.79         H33-C10-C9-C8=222.98          H33-C10-C9-H31=341.88         
H33-C10-C9-H32=100.77         
           -------------------------------------------------
          |                Final Singlepoint                |
           -------------------------------------------------

          ...................................................
          :                      SETUP                      :
          :.................................................:
          :  # basis functions                 112          :
          :  # atomic orbitals                 112          :
          :  # shells                           68          :
          :  # electrons                       120          :
          :  max. iterations                   250          :
          :  Hamiltonian                  GFN2-xTB          :
          :  restarted?                      false          :
          :  GBSA solvation                  false          :
          :  PC potential                    false          :
          :  electronic temp.          300.0000000     K    :
          :  accuracy                    1.0000000          :
          :  -> integral cutoff          0.2500000E+02      :
          :  -> integral neglect         0.1000000E-07      :
          :  -> SCF convergence          0.1000000E-05 Eh   :
          :  -> wf. convergence          0.1000000E-03 e    :
          :  Broyden damping             0.4000000          :
          :  net charge                          0          :
          :  unpaired electrons                  0          :
          ...................................................

 iter      E             dE          RMSdq      gap      omega  full diag
   1    -67.9062733 -0.679063E+02  0.153E-04    3.64       0.0  T
   2    -67.9062733 -0.488996E-10  0.107E-04    3.64     138.2  T
   3    -67.9062733 -0.127315E-09  0.730E-05    3.64     201.9  T

   *** convergence criteria satisfied after 3 iterations ***

         #    Occupation            Energy/Eh            Energy/eV
      -------------------------------------------------------------
         1        2.0000           -0.7406644             -20.1545
       ...           ...                  ...                  ...
        54        2.0000           -0.4332770             -11.7901
        55        2.0000           -0.4316629             -11.7461
        56        2.0000           -0.4271811             -11.6242
        57        2.0000           -0.4231072             -11.5133
        58        2.0000           -0.4166655             -11.3380
        59        2.0000           -0.4126607             -11.2291
        60        2.0000           -0.4115001             -11.1975 (HOMO)
        61                         -0.2776153              -7.5543 (LUMO)
        62                         -0.2746641              -7.4740
        63                         -0.1658363              -4.5126
        64                         -0.1646037              -4.4791
        65                         -0.0160404              -0.4365
       ...                                ...                  ...
       112                          0.7084287              19.2773
      -------------------------------------------------------------
                  HL-Gap            0.1338848 Eh            3.6432 eV
             Fermi-level           -0.3445577 Eh           -9.3759 eV

 SCC (total)                   0 d,  0 h,  0 min,  0.015 sec
 SCC setup                      ...        0 min,  0.000 sec (  1.304%)
 Dispersion                     ...        0 min,  0.000 sec (  1.473%)
 classical contributions        ...        0 min,  0.000 sec (  0.390%)
 integral evaluation            ...        0 min,  0.001 sec (  9.482%)
 iterations                     ...        0 min,  0.007 sec ( 49.093%)
 molecular gradient             ...        0 min,  0.005 sec ( 36.847%)
 printout                       ...        0 min,  0.000 sec (  1.236%)

         :::::::::::::::::::::::::::::::::::::::::::::::::::::
         ::                     SUMMARY                     ::
         :::::::::::::::::::::::::::::::::::::::::::::::::::::
         :: total energy             -67.060304136715 Eh    ::
         :: gradient norm              0.000497902327 Eh/a0 ::
         :: HOMO-LUMO gap              3.643189941004 eV    ::
         ::.................................................::
         :: SCC energy               -67.906216523759 Eh    ::
         :: -> isotropic ES            0.091392632952 Eh    ::
         :: -> anisotropic ES          0.003263309439 Eh    ::
         :: -> anisotropic XC          0.022453547870 Eh    ::
         :: -> dispersion             -0.044023164601 Eh    ::
         :: repulsion energy           0.845912387044 Eh    ::
         :: add. restraining           0.000000000000 Eh    ::
         :: total charge              -0.000000000000 e     ::
         :::::::::::::::::::::::::::::::::::::::::::::::::::::

           -------------------------------------------------
          |                Property Printout                |
           -------------------------------------------------

    * Orbital Energies and Occupations

         #    Occupation            Energy/Eh            Energy/eV
      -------------------------------------------------------------
         1        2.0000           -0.7406644             -20.1545
       ...           ...                  ...                  ...
        48        2.0000           -0.4468965             -12.1607
        49        2.0000           -0.4432658             -12.0619
        50        2.0000           -0.4414685             -12.0130
        51        2.0000           -0.4396090             -11.9624
        52        2.0000           -0.4391065             -11.9487
        53        2.0000           -0.4359946             -11.8640
        54        2.0000           -0.4332770             -11.7901
        55        2.0000           -0.4316629             -11.7461
        56        2.0000           -0.4271811             -11.6242
        57        2.0000           -0.4231072             -11.5133
        58        2.0000           -0.4166655             -11.3380
        59        2.0000           -0.4126607             -11.2291
        60        2.0000           -0.4115001             -11.1975 (HOMO)
        61                         -0.2776153              -7.5543 (LUMO)
        62                         -0.2746641              -7.4740
        63                         -0.1658363              -4.5126
        64                         -0.1646037              -4.4791
        65                         -0.0160404              -0.4365
        66                         -0.0023112              -0.0629
        67                          0.0229699               0.6250
        68                          0.0291077               0.7921
        69                          0.0438871               1.1942
        70                          0.0545114               1.4833
        71                          0.0702109               1.9105
       ...                                ...                  ...
       112                          0.7084287              19.2773
      -------------------------------------------------------------
                  HL-Gap            0.1338848 Eh            3.6432 eV
             Fermi-level           -0.3445577 Eh           -9.3759 eV

     #   Z          covCN         q      C6AA      α(0)
     1   6 C        2.841    -0.060    29.477     8.898
     2   6 C        2.887    -0.059    29.461     8.899
     3   6 C        2.727     0.355    20.974     7.498
     4   8 O        0.856    -0.414    21.965     6.284
     5   8 O        1.705    -0.266    18.416     5.794
     6   6 C        3.708     0.081    19.370     6.291
     7   6 C        3.863    -0.025    20.978     6.513
     8   6 C        3.815    -0.060    21.641     6.621
     9   6 C        3.813    -0.062    21.677     6.627
    10   6 C        3.896    -0.025    20.961     6.508
    11   6 C        3.983    -0.024    20.924     6.499
    12   6 C        3.884    -0.067    21.734     6.628
    13   6 C        3.981    -0.019    20.835     6.485
    14   6 C        3.845    -0.064    21.691     6.625
    15   6 C        3.887    -0.028    21.015     6.517
    16   6 C        3.704     0.076    19.452     6.306
    17   8 O        1.704    -0.264    18.376     5.788
    18   6 C        2.723     0.356    20.949     7.493
    19   8 O        0.857    -0.414    21.964     6.283
    20   6 C        2.887    -0.058    29.437     8.895
    21   6 C        2.838    -0.063    29.551     8.909
    22   6 C        3.898    -0.031    21.067     6.525
    23   1 H        0.926     0.062     2.171     2.304
    24   1 H        0.926     0.079     1.994     2.208
    25   1 H        0.926     0.063     2.161     2.299
    26   1 H        0.924     0.053     2.289     2.366
    27   1 H        0.924     0.046     2.371     2.408
    28   1 H        0.924     0.044     2.392     2.419
    29   1 H        0.925     0.044     2.395     2.420
    30   1 H        0.925     0.035     2.512     2.478
    31   1 H        0.924     0.034     2.527     2.486
    32   1 H        0.925     0.037     2.484     2.465
    33   1 H        0.924     0.033     2.539     2.492
    34   1 H        0.925     0.030     2.593     2.518
    35   1 H        0.925     0.046     2.373     2.409
    36   1 H        0.925     0.032     2.553     2.499
    37   1 H        0.925     0.029     2.603     2.523
    38   1 H        0.925     0.033     2.548     2.496
    39   1 H        0.924     0.042     2.425     2.435
    40   1 H        0.924     0.049     2.339     2.392
    41   1 H        0.924     0.054     2.275     2.359
    42   1 H        0.924     0.053     2.280     2.361
    43   1 H        0.926     0.071     2.078     2.254
    44   1 H        0.926     0.062     2.175     2.306
    45   1 H        0.926     0.071     2.076     2.253
    46   1 H        0.924     0.031     2.565     2.505

 Mol. C6AA /au·bohr⁶  :      19675.374073
 Mol. C8AA /au·bohr⁸  :     447130.633653
 Mol. α(0) /au        :        210.537547


Wiberg/Mayer (AO) data.
largest (>0.10) Wiberg bond orders for each atom

 ---------------------------------------------------------------------------
     #   Z sym  total        # sym  WBO       # sym  WBO       # sym  WBO
 ---------------------------------------------------------------------------
     1   6 C    3.982 --     2 C    1.933    23 H    0.975    24 H    0.970
     2   6 C    3.988 --     1 C    1.933     3 C    1.010    25 H    0.965
     3   6 C    3.920 --     4 O    1.725     5 O    1.124     2 C    1.010
     4   8 O    2.032 --     3 C    1.725     5 O    0.175
     5   8 O    2.308 --     3 C    1.124     6 C    0.940     4 O    0.175
     6   6 C    3.926 --     7 C    0.995    27 H    0.966    26 H    0.966
                             5 O    0.940
     7   6 C    3.992 --     6 C    0.995     8 C    0.995    22 C    0.983
                            28 H    0.967
     8   6 C    3.996 --     9 C    1.006     7 C    0.995    29 H    0.976
                            30 H    0.975
     9   6 C    3.997 --     8 C    1.006    10 C    0.995    31 H    0.981
                            32 H    0.978
    10   6 C    3.993 --     9 C    0.995    11 C    0.986    22 C    0.979
                            33 H    0.972
    11   6 C    3.993 --    12 C    0.996    10 C    0.986    15 C    0.980
                            34 H    0.970
    12   6 C    3.995 --    11 C    0.996    13 C    0.996    36 H    0.975
                            35 H    0.970
    13   6 C    3.994 --    12 C    0.996    14 C    0.995    22 C    0.986
                            37 H    0.970
    14   6 C    3.996 --    13 C    0.995    15 C    0.990    38 H    0.979
                            39 H    0.977
    15   6 C    3.991 --    14 C    0.990    16 C    0.988    11 C    0.980
                            40 H    0.967
    16   6 C    3.926 --    15 C    0.988    41 H    0.968    42 H    0.967
                            17 O    0.942
    17   8 O    2.309 --    18 C    1.125    16 C    0.942    19 O    0.172
    18   6 C    3.921 --    19 O    1.723    17 O    1.125    20 C    1.012
    19   8 O    2.031 --    18 C    1.723    17 O    0.172
    20   6 C    3.988 --    21 C    1.935    18 C    1.012    43 H    0.963
    21   6 C    3.984 --    20 C    1.935    44 H    0.975    45 H    0.971
    22   6 C    3.992 --    13 C    0.986     7 C    0.983    10 C    0.979
                            46 H    0.969
    23   1 H    0.995 --     1 C    0.975
    24   1 H    0.994 --     1 C    0.970
    25   1 H    0.996 --     2 C    0.965
    26   1 H    0.997 --     6 C    0.966
    27   1 H    0.998 --     6 C    0.966
    28   1 H    0.998 --     7 C    0.967
    29   1 H    0.997 --     8 C    0.976
    30   1 H    0.999 --     8 C    0.975
    31   1 H    0.999 --     9 C    0.981
    32   1 H    0.999 --     9 C    0.978
    33   1 H    0.999 --    10 C    0.972
    34   1 H    0.999 --    11 C    0.970
    35   1 H    0.998 --    12 C    0.970
    36   1 H    0.999 --    12 C    0.975
    37   1 H    0.999 --    13 C    0.970
    38   1 H    0.999 --    14 C    0.979
    39   1 H    0.998 --    14 C    0.977
    40   1 H    0.998 --    15 C    0.967
    41   1 H    0.997 --    16 C    0.968
    42   1 H    0.997 --    16 C    0.967
    43   1 H    0.995 --    20 C    0.963
    44   1 H    0.996 --    21 C    0.975
    45   1 H    0.995 --    21 C    0.971
    46   1 H    0.999 --    22 C    0.969
 ---------------------------------------------------------------------------

Topologies differ in total number of bonds
Writing topology from bond orders to xtbtopo.mol

molecular dipole:
                 x           y           z       tot (Debye)
 q only:       -0.012       0.245      -1.466
   full:       -0.067       0.304      -1.547       4.012
molecular quadrupole (traceless):
                xx          xy          yy          xz          yz          zz
 q only:       11.920     -15.473      -1.973      -2.744       2.284      -9.948
  q+dip:       11.873     -16.365      -2.720      -3.015       1.956      -9.153
   full:       12.852     -15.789      -1.662      -2.909       2.113     -11.190

           -------------------------------------------------
          |                Geometry Summary                 |
           -------------------------------------------------

      molecular mass/u    :      304.3814439
   center of mass at/Å    :       -0.0224399       0.0061142       0.1792428
  moments of inertia/u·Å² :        0.6426038E+03   0.5403103E+04   0.5620459E+04
rotational constants/cm⁻¹ :        0.2623332E-01   0.3119991E-02   0.2999334E-02

 * 44 selected distances

     #   Z          #   Z                                           value/Å
     1   6 C        2   6 C                                       1.3244639
     3   6 C        4   8 O                                       1.2062153
     3   6 C        5   8 O                                       1.3385449
     5   8 O        6   6 C                                       1.4262225
     6   6 C        7   6 C                                       1.5266111
     7   6 C        8   6 C                                       1.5341821
     8   6 C        9   6 C                                       1.5307495
     9   6 C       10   6 C                                       1.5350261
    10   6 C       11   6 C                                       1.5371563
    11   6 C       12   6 C                                       1.5272119
    12   6 C       13   6 C                                       1.5265965
    13   6 C       14   6 C                                       1.5339145
    11   6 C       15   6 C                                       1.5396642 (max)
    15   6 C       16   6 C                                       1.5291873
    16   6 C       17   8 O                                       1.4254058
    17   8 O       18   6 C                                       1.3386782
    18   6 C       19   8 O                                       1.2074853
    20   6 C       21   6 C                                       1.3244569
     7   6 C       22   6 C                                       1.5379040
    13   6 C       22   6 C                                       1.5370791
     1   6 C       23   1 H                                       1.0765256 (min)
     1   6 C       24   1 H                                       1.0780266
     2   6 C       25   1 H                                       1.0794701
     6   6 C       26   1 H                                       1.0955722
     6   6 C       27   1 H                                       1.0961915
     7   6 C       28   1 H                                       1.0928618
     8   6 C       29   1 H                                       1.0892604
     8   6 C       30   1 H                                       1.0893566
     9   6 C       31   1 H                                       1.0903758
     9   6 C       32   1 H                                       1.0895336
    10   6 C       33   1 H                                       1.0911101
    11   6 C       34   1 H                                       1.0887452
    12   6 C       35   1 H                                       1.0842551
    12   6 C       36   1 H                                       1.0883678
    13   6 C       37   1 H                                       1.0889012
    14   6 C       38   1 H                                       1.0893427
    14   6 C       39   1 H                                       1.0905952
    15   6 C       40   1 H                                       1.0925090
    16   6 C       41   1 H                                       1.0915674
    16   6 C       42   1 H                                       1.0956190
    20   6 C       43   1 H                                       1.0806205
    21   6 C       44   1 H                                       1.0770814
    21   6 C       45   1 H                                       1.0766641
    22   6 C       46   1 H                                       1.0916738

 * 3 distinct bonds (by element types)

   Z      Z             #   av. dist./Å        max./Å        min./Å
   1 H    6 C          24     1.0876761     1.0961915     1.0765256
   6 C    6 C          14     1.5031574     1.5396642     1.3244569
   6 C    8 O           6     1.3237587     1.4262225     1.2062153


optimized geometry written to: xtbopt.xyz


           -------------------------------------------------
          | TOTAL ENERGY              -67.060304136715 Eh   |
          | GRADIENT NORM               0.000497902327 Eh/α |
          | HOMO-LUMO GAP               3.643189941004 eV   |
           -------------------------------------------------

------------------------------------------------------------------------
 * finished run on 2025/12/01 at 14:19:41.437     
------------------------------------------------------------------------
 total:
 * wall-time:     0 d,  0 h,  0 min,  0.959 sec
 *  cpu-time:     0 d,  0 h,  0 min, 21.787 sec
 * ratio c/w:    22.720 speedup
 SCF:
 * wall-time:     0 d,  0 h,  0 min,  0.045 sec
 *  cpu-time:     0 d,  0 h,  0 min,  1.019 sec
 * ratio c/w:    22.758 speedup
 ANC optimizer:
 * wall-time:     0 d,  0 h,  0 min,  0.899 sec
 *  cpu-time:     0 d,  0 h,  0 min, 20.463 sec
 * ratio c/w:    22.763 speedup

normal termination of xtb
