      -----------------------------------------------------------      
     |                   =====================                   |     
     |                           x T B                           |     
     |                   =====================                   |     
     |                         S. Grimme                         |     
     |          Mulliken Center for Theoretical Chemistry        |     
     |                    University of Bonn                     |     
      -----------------------------------------------------------      

   * xtb version 6.7.1 (edcfbbe) compiled by 'albert@albert-system' on 2024-07-22

   xtb is free software: you can redistribute it and/or modify it under
   the terms of the GNU Lesser General Public License as published by
   the Free Software Foundation, either version 3 of the License, or
   (at your option) any later version.
   
   xtb is distributed in the hope that it will be useful,
   but WITHOUT ANY WARRANTY; without even the implied warranty of
   MERCHANTABILITY or FITNESS FOR A PARTICULAR PURPOSE.  See the
   GNU Lesser General Public License for more details.
   
   Cite this work as:
   * C. Bannwarth, E. Caldeweyher, S. Ehlert, A. Hansen, P. Pracht,
     J. Seibert, S. Spicher, S. Grimme, WIREs Comput. Mol. Sci., 2020, 11,
     e01493. DOI: 10.1002/wcms.1493
   
   for GFN2-xTB:
   * C. Bannwarth, S. Ehlert and S. Grimme., J. Chem. Theory Comput., 2019,
     15, 1652-1671. DOI: 10.1021/acs.jctc.8b01176
   for GFN1-xTB:
   * S. Grimme, C. Bannwarth, P. Shushkov, J. Chem. Theory Comput., 2017,
     13, 1989-2009. DOI: 10.1021/acs.jctc.7b00118
   for GFN0-xTB:
   * P. Pracht, E. Caldeweyher, S. Ehlert, S. Grimme, ChemRxiv, 2019, preprint.
     DOI: 10.26434/chemrxiv.8326202.v1
   for GFN-FF:
   * S. Spicher and S. Grimme, Angew. Chem. Int. Ed., 2020, 59, 15665-15673.
     DOI: 10.1002/anie.202004239
   
   for ALPB and GBSA implicit solvation:
   * S. Ehlert, M. Stahn, S. Spicher, S. Grimme, J. Chem. Theory Comput.,
     2021, 17, 4250-4261. DOI: 10.1021/acs.jctc.1c00471
   
   for ddCOSMO and CPCM-X implicit solvation:
   * M. Stahn, S. Ehlert, S. Grimme, J. Phys. Chem. A,
     2023, XX, XXXX-XXXX. DOI: 10.1021/acs.jpca.3c04382
   
   for DFT-D4:
   * E. Caldeweyher, C. Bannwarth and S. Grimme, J. Chem. Phys., 2017,
     147, 034112. DOI: 10.1063/1.4993215
   * E. Caldeweyher, S. Ehlert, A. Hansen, H. Neugebauer, S. Spicher,
     C. Bannwarth and S. Grimme, J. Chem. Phys., 2019, 150, 154122.
     DOI: 10.1063/1.5090222
   * E. Caldeweyher, J.-M. Mewes, S. Ehlert and S. Grimme, Phys. Chem. Chem. Phys.
     2020, 22, 8499-8512. DOI: 10.1039/D0CP00502A
   
   for sTDA-xTB:
   * S. Grimme and C. Bannwarth, J. Chem. Phys., 2016, 145, 054103.
     DOI: 10.1063/1.4959605
   
   in the mass-spec context:
   * V. Asgeirsson, C. Bauer and S. Grimme, Chem. Sci., 2017, 8, 4879.
     DOI: 10.1039/c7sc00601b
   * J. Koopman and S. Grimme, ACS Omega 2019, 4, 12, 15120-15133.
     DOI: 10.1021/acsomega.9b02011
   
   for metadynamics refer to:
   * S. Grimme, J. Chem. Theory Comput., 2019, 155, 2847-2862
     DOI: 10.1021/acs.jctc.9b00143
   
   for SPH calculations refer to:
   * S. Spicher and S. Grimme, J. Chem. Theory Comput., 2021, 17, 1701-1714
     DOI: 10.1021/acs.jctc.0c01306
   
   for ONIOM refer to:
   * C. Plett, A. Katbashev, S. Ehlert, S. Grimme, M. Bursch,
     Phys. Chem. Chem. Phys., 2023, 25, 17860-17868. DOI: 10.1039/D3CP02178E
   
   for DIPRO refer to:
   * J. Kohn, N. Gildemeister, S. Grimme, D. Fazzi, A. Hansen,
     J. Chem. Phys., 2023, just accepted.
   
   for PTB refer to:
   * S. Grimme, M. Mueller, A. Hansen, J. Chem. Phys., 2023, 158, 124111.
     DOI: 10.1063/5.0137838
   
   with help from (in alphabetical order)
   P. Atkinson, C. Bannwarth, F. Bohle, G. Brandenburg, E. Caldeweyher
   M. Checinski, S. Dohm, S. Ehlert, S. Ehrlich, I. Gerasimov, C. Hölzer
   A. Katbashev, J. Kohn, J. Koopman, C. Lavigne, S. Lehtola, F. März, M. Müller,
   F. Musil, H. Neugebauer, J. Pisarek, C. Plett, P. Pracht, F. Pultar,
   J. Seibert, P. Shushkov, S. Spicher, M. Stahn, M. Steiner, T. Strunk,
   J. Stückrath, T. Rose, and J. Unsleber
   
 * started run on 2025/12/01 at 14:19:38.316     
   ID    Z sym.   atoms
    1    6 C      1-3, 6-16, 18, 20-22
    2    8 O      4, 5, 17, 19
    3    1 H      23-46

           -------------------------------------------------
          |                Calculation Setup                |
           -------------------------------------------------

          program call               : xtb pipeline_data/3_conformer_xyz/acrylates/rdkit/VEBCLRKUSAGCDF-RWLZTCESSA-N_conf119.xyz --opt --gfn 2-xTB --iterations 250
          coordinate file            : pipeline_data/3_conformer_xyz/acrylates/rdkit/VEBCLRKUSAGCDF-RWLZTCESSA-N_conf119.xyz
          omp threads                :                    24

########################################################################
[WARNING] Please study the warnings concerning your input carefully
-1- readin_getIntValue: could not parse '2-xTB'
########################################################################

           -------------------------------------------------
          |                 G F N 2 - x T B                 |
           -------------------------------------------------

        Reference                      10.1021/acs.jctc.8b01176
      * Hamiltonian:
        H0-scaling (s, p, d)           1.850000    2.230000    2.230000
        zeta-weighting                 0.500000
      * Dispersion:
        s8                             2.700000
        a1                             0.520000
        a2                             5.000000
        s9                             5.000000
      * Repulsion:
        kExp                           1.500000    1.000000
        rExp                           1.000000
      * Coulomb:
        alpha                          2.000000
        third order                    shell-resolved
        anisotropic                    true
        a3                             3.000000
        a5                             4.000000
        cn-shift                       1.200000
        cn-exp                         4.000000
        max-rad                        5.000000

q/qsh data taken from xtbrestart
CAMM data taken from xtbrestart

          ...................................................
          :                      SETUP                      :
          :.................................................:
          :  # basis functions                 112          :
          :  # atomic orbitals                 112          :
          :  # shells                           68          :
          :  # electrons                       120          :
          :  max. iterations                   250          :
          :  Hamiltonian                  GFN2-xTB          :
          :  restarted?                       true          :
          :  GBSA solvation                  false          :
          :  PC potential                    false          :
          :  electronic temp.          300.0000000     K    :
          :  accuracy                    1.0000000          :
          :  -> integral cutoff          0.2500000E+02      :
          :  -> integral neglect         0.1000000E-07      :
          :  -> SCF convergence          0.1000000E-05 Eh   :
          :  -> wf. convergence          0.1000000E-03 e    :
          :  Broyden damping             0.4000000          :
          :  net charge                          0          :
          :  unpaired electrons                  0          :
          ...................................................

 iter      E             dE          RMSdq      gap      omega  full diag
   1    -67.8247706 -0.678248E+02  0.486E+00    2.94       0.0  T
   2    -67.8359921 -0.112215E-01  0.293E+00    3.12       1.0  T
   3    -67.8224564  0.135358E-01  0.707E-01    3.06       1.0  T
   4    -67.8399204 -0.174640E-01  0.236E-01    3.17       1.0  T
   5    -67.8408570 -0.936690E-03  0.101E-01    3.13       1.0  T
   6    -67.8408789 -0.218559E-04  0.241E-02    3.13       1.0  T
   7    -67.8408825 -0.357417E-05  0.116E-02    3.13       1.3  T
   8    -67.8408834 -0.930746E-06  0.527E-03    3.13       2.8  T
   9    -67.8408837 -0.311009E-06  0.188E-03    3.13       7.8  T
  10    -67.8408837 -0.296439E-07  0.837E-04    3.13      17.6  T
  11    -67.8408837 -0.389302E-08  0.271E-04    3.13      54.4  T

   *** convergence criteria satisfied after 11 iterations ***

         #    Occupation            Energy/Eh            Energy/eV
      -------------------------------------------------------------
         1        2.0000           -0.7338008             -19.9677
       ...           ...                  ...                  ...
        54        2.0000           -0.4277277             -11.6391
        55        2.0000           -0.4263104             -11.6005
        56        2.0000           -0.4209072             -11.4535
        57        2.0000           -0.4186804             -11.3929
        58        2.0000           -0.4158355             -11.3155
        59        2.0000           -0.4119569             -11.2099
        60        2.0000           -0.4094402             -11.1414 (HOMO)
        61                         -0.2943718              -8.0103 (LUMO)
        62                         -0.2875267              -7.8240
        63                         -0.1768325              -4.8119
        64                         -0.1749685              -4.7611
        65                         -0.0244495              -0.6653
       ...                                ...                  ...
       112                          0.6362874              17.3143
      -------------------------------------------------------------
                  HL-Gap            0.1150684 Eh            3.1312 eV
             Fermi-level           -0.3519060 Eh           -9.5758 eV

 SCC (total)                   0 d,  0 h,  0 min,  0.059 sec
 SCC setup                      ...        0 min,  0.000 sec (  0.718%)
 Dispersion                     ...        0 min,  0.001 sec (  2.524%)
 classical contributions        ...        0 min,  0.001 sec (  0.856%)
 integral evaluation            ...        0 min,  0.003 sec (  5.606%)
 iterations                     ...        0 min,  0.048 sec ( 81.193%)
 molecular gradient             ...        0 min,  0.005 sec (  8.618%)
 printout                       ...        0 min,  0.000 sec (  0.415%)

         :::::::::::::::::::::::::::::::::::::::::::::::::::::
         ::                     SUMMARY                     ::
         :::::::::::::::::::::::::::::::::::::::::::::::::::::
         :: total energy             -67.013503803505 Eh    ::
         :: gradient norm              0.199922848137 Eh/a0 ::
         :: HOMO-LUMO gap              3.131169903877 eV    ::
         ::.................................................::
         :: SCC energy               -67.840801012771 Eh    ::
         :: -> isotropic ES            0.096414391887 Eh    ::
         :: -> anisotropic ES          0.001375358654 Eh    ::
         :: -> anisotropic XC          0.022881332449 Eh    ::
         :: -> dispersion             -0.044730725650 Eh    ::
         :: repulsion energy           0.827297209266 Eh    ::
         :: add. restraining           0.000000000000 Eh    ::
         :: total charge               0.000000000000 e     ::
         :::::::::::::::::::::::::::::::::::::::::::::::::::::

      ----------------------------------------------------------- 
     |                   =====================                   |
     |                        A N C O P T                        |
     |                   =====================                   |
     |               Approximate Normal Coordinate               |
     |                Rational Function Optimizer                |
      ----------------------------------------------------------- 
      ----------------------------------------------------------- 
     |                   =====================                   |
     |                        A N C O P T                        |
     |                   =====================                   |
     |               Approximate Normal Coordinate               |
     |                Rational Function Optimizer                |
      ----------------------------------------------------------- 

          ...................................................
          :                      SETUP                      :
          :.................................................:
          :   optimization level            normal          :
          :   max. optcycles                   200          :
          :   ANC micro-cycles                  20          :
          :   degrees of freedom               132          :
          :.................................................:
          :   RF solver                   davidson          :
          :   write xtbopt.log                true          :
          :   linear?                        false          :
          :   energy convergence         0.5000000E-05 Eh   :
          :   grad. convergence          0.1000000E-02 Eh/α :
          :   maxmium RF displ.          1.0000000          :
          :   Hlow (freq-cutoff)         0.1000000E-01      :
          :   Hmax (freq-cutoff)         5.0000000          :
          :   S6 in model hess.         20.0000000          :
          ...................................................

generating ANC from exact Hessian ...
Using Lindh-Hessian (1995)
 Shifting diagonal of input Hessian by   9.715126237924875E-003
 Lowest  eigenvalues of input Hessian
    0.000000    0.000000    0.000000    0.000000    0.000000    0.000000
    0.010000    0.010036    0.010353    0.010551    0.010925    0.011166
    0.013090    0.013984    0.014798    0.015603    0.016252    0.017254
 Highest eigenvalues
    1.801136    1.814984    1.857086    1.941068    2.124342    2.218481
 

........................................................................
.............................. CYCLE    1 ..............................
........................................................................

 iter      E             dE          RMSdq      gap      omega  full diag
   1    -67.8408837 -0.678409E+02  0.161E-04    3.13       0.0  T
   2    -67.8408837 -0.679705E-10  0.129E-04    3.13     114.0  T
   3    -67.8408837 -0.496513E-09  0.578E-05    3.13     255.1  T
     SCC iter.                  ...        0 min,  0.010 sec
     gradient                   ...        0 min,  0.005 sec
 * total energy  :   -67.0135038 Eh     change       -0.1316991E-08 Eh
   gradient norm :     0.1999211 Eh/α   predicted     0.0000000E+00 (-100.00%)
   displ. norm   :     0.4165610 α      lambda       -0.4504111E-01
   maximum displ.:     0.1073138 α      in ANC's #48, #43, #22, ...

........................................................................
.............................. CYCLE    2 ..............................
........................................................................

 iter      E             dE          RMSdq      gap      omega  full diag
   1    -67.8858980 -0.678859E+02  0.306E-01    3.37       0.0  T
   2    -67.8863675 -0.469538E-03  0.189E-01    3.37       1.0  T
   3    -67.8862353  0.132208E-03  0.908E-02    3.37       1.0  T
   4    -67.8863973 -0.161957E-03  0.352E-02    3.36       1.0  T
   5    -67.8864398 -0.425633E-04  0.855E-03    3.36       1.7  T
   6    -67.8864412 -0.133210E-05  0.397E-03    3.36       3.7  T
   7    -67.8864413 -0.118193E-06  0.120E-03    3.36      12.3  T
   8    -67.8864413 -0.566740E-08  0.519E-04    3.36      28.4  T
   9    -67.8864413 -0.134477E-08  0.180E-04    3.36      81.7  T
     SCC iter.                  ...        0 min,  0.032 sec
     gradient                   ...        0 min,  0.006 sec
 * total energy  :   -67.0457028 Eh     change       -0.3219900E-01 Eh
   gradient norm :     0.0876014 Eh/α   predicted    -0.2645833E-01 ( -17.83%)
   displ. norm   :     0.3975770 α      lambda       -0.1632752E-01
   maximum displ.:     0.1169503 α      in ANC's #16, #43, #14, ...

........................................................................
.............................. CYCLE    3 ..............................
........................................................................

 iter      E             dE          RMSdq      gap      omega  full diag
   1    -67.9069106 -0.679069E+02  0.226E-01    3.52       0.0  T
   2    -67.9071530 -0.242340E-03  0.140E-01    3.53       1.0  T
   3    -67.9070995  0.534368E-04  0.593E-02    3.54       1.0  T
   4    -67.9071621 -0.625643E-04  0.250E-02    3.53       1.0  T
   5    -67.9071833 -0.211408E-04  0.659E-03    3.53       2.2  T
   6    -67.9071840 -0.773544E-06  0.275E-03    3.53       5.4  T
   7    -67.9071841 -0.517314E-07  0.876E-04    3.53      16.8  T
   8    -67.9071841 -0.314533E-08  0.372E-04    3.53      39.7  T
     SCC iter.                  ...        0 min,  0.034 sec
     gradient                   ...        0 min,  0.007 sec
 * total energy  :   -67.0553823 Eh     change       -0.9679477E-02 Eh
   gradient norm :     0.0239209 Eh/α   predicted    -0.9454184E-02 (  -2.33%)
   displ. norm   :     0.3276489 α      lambda       -0.2879509E-02
   maximum displ.:     0.1465442 α      in ANC's #7, #14, #16, ...

........................................................................
.............................. CYCLE    4 ..............................
........................................................................

 iter      E             dE          RMSdq      gap      omega  full diag
   1    -67.9028140 -0.679028E+02  0.945E-02    3.56       0.0  T
   2    -67.9028380 -0.240009E-04  0.567E-02    3.56       1.0  T
   3    -67.9028351  0.293688E-05  0.164E-02    3.57       1.0  T
   4    -67.9028374 -0.228083E-05  0.812E-03    3.56       1.8  T
   5    -67.9028397 -0.235287E-05  0.180E-03    3.56       8.2  T
   6    -67.9028398 -0.489681E-07  0.901E-04    3.56      16.4  T
   7    -67.9028398 -0.516111E-08  0.286E-04    3.56      51.6  T
     SCC iter.                  ...        0 min,  0.047 sec
     gradient                   ...        0 min,  0.007 sec
 * total energy  :   -67.0574004 Eh     change       -0.2018134E-02 Eh
   gradient norm :     0.0101298 Eh/α   predicted    -0.1594439E-02 ( -20.99%)
   displ. norm   :     0.3682747 α      lambda       -0.1498003E-02
   maximum displ.:     0.2132862 α      in ANC's #7, #14, #4, ...

........................................................................
.............................. CYCLE    5 ..............................
........................................................................

 iter      E             dE          RMSdq      gap      omega  full diag
   1    -67.8996434 -0.678996E+02  0.755E-02    3.59       0.0  T
   2    -67.8996533 -0.988555E-05  0.445E-02    3.58       1.0  T
   3    -67.8996528  0.492351E-06  0.962E-03    3.59       1.5  T
   4    -67.8996539 -0.116874E-05  0.291E-03    3.59       5.1  T
   5    -67.8996541 -0.183307E-06  0.144E-03    3.59      10.2  T
   6    -67.8996541 -0.305605E-07  0.772E-04    3.59      19.1  T
   7    -67.8996542 -0.657069E-08  0.224E-04    3.59      65.7  T
     SCC iter.                  ...        0 min,  0.020 sec
     gradient                   ...        0 min,  0.005 sec
 * total energy  :   -67.0584714 Eh     change       -0.1071022E-02 Eh
   gradient norm :     0.0094368 Eh/α   predicted    -0.8506074E-03 ( -20.58%)
   displ. norm   :     0.3833430 α      lambda       -0.9719170E-03
   maximum displ.:     0.2515766 α      in ANC's #7, #4, #14, ...

........................................................................
.............................. CYCLE    6 ..............................
........................................................................

 iter      E             dE          RMSdq      gap      omega  full diag
   1    -67.8988110 -0.678988E+02  0.706E-02    3.61       0.0  T
   2    -67.8988146 -0.354787E-05  0.417E-02    3.60       1.0  T
   3    -67.8988147 -0.699703E-07  0.477E-03    3.61       3.1  T
   4    -67.8988150 -0.364079E-06  0.204E-03    3.60       7.2  T
   5    -67.8988151 -0.578849E-07  0.122E-03    3.61      12.1  T
   6    -67.8988151 -0.171625E-07  0.524E-04    3.61      28.1  T
   7    -67.8988151 -0.380736E-08  0.175E-04    3.61      84.5  T
     SCC iter.                  ...        0 min,  0.020 sec
     gradient                   ...        0 min,  0.005 sec
 * total energy  :   -67.0592112 Eh     change       -0.7397763E-03 Eh
   gradient norm :     0.0110860 Eh/α   predicted    -0.5573708E-03 ( -24.66%)
   displ. norm   :     0.4175826 α      lambda       -0.8726226E-03
   maximum displ.:     0.2804676 α      in ANC's #7, #4, #5, ...

........................................................................
.............................. CYCLE    7 ..............................
........................................................................

 iter      E             dE          RMSdq      gap      omega  full diag
   1    -67.9003209 -0.679003E+02  0.784E-02    3.62       0.0  T
   2    -67.9003242 -0.334667E-05  0.462E-02    3.62       1.0  T
   3    -67.9003243 -0.113268E-06  0.469E-03    3.62       3.1  T
   4    -67.9003247 -0.415183E-06  0.202E-03    3.62       7.3  T
   5    -67.9003248 -0.447128E-07  0.129E-03    3.62      11.5  T
   6    -67.9003248 -0.188867E-07  0.588E-04    3.62      25.1  T
   7    -67.9003248 -0.552362E-08  0.173E-04    3.62      85.3  T
     SCC iter.                  ...        0 min,  0.018 sec
     gradient                   ...        0 min,  0.006 sec
 * total energy  :   -67.0598802 Eh     change       -0.6689411E-03 Eh
   gradient norm :     0.0096325 Eh/α   predicted    -0.5123929E-03 ( -23.40%)
   displ. norm   :     0.4197219 α      lambda       -0.7198639E-03
   maximum displ.:     0.2834741 α      in ANC's #7, #4, #5, ...

........................................................................
.............................. CYCLE    8 ..............................
........................................................................

 iter      E             dE          RMSdq      gap      omega  full diag
   1    -67.9032149 -0.679032E+02  0.788E-02    3.61       0.0  T
   2    -67.9032184 -0.356708E-05  0.464E-02    3.62       1.0  T
   3    -67.9032184  0.511453E-07  0.531E-03    3.62       2.8  T
   4    -67.9032190 -0.595492E-06  0.201E-03    3.62       7.3  T
   5    -67.9032190 -0.421209E-07  0.115E-03    3.62      12.8  T
   6    -67.9032190 -0.101663E-07  0.681E-04    3.62      21.7  T
   7    -67.9032190 -0.861716E-08  0.138E-04    3.62     106.7  T
     SCC iter.                  ...        0 min,  0.017 sec
     gradient                   ...        0 min,  0.006 sec
 * total energy  :   -67.0603997 Eh     change       -0.5195130E-03 Eh
   gradient norm :     0.0068985 Eh/α   predicted    -0.4233401E-03 ( -18.51%)
   displ. norm   :     0.3826588 α      lambda       -0.4753120E-03
   maximum displ.:     0.2560254 α      in ANC's #7, #4, #5, ...

........................................................................
.............................. CYCLE    9 ..............................
........................................................................

 iter      E             dE          RMSdq      gap      omega  full diag
   1    -67.9052108 -0.679052E+02  0.712E-02    3.61       0.0  T
   2    -67.9052126 -0.185859E-05  0.419E-02    3.61       1.0  T
   3    -67.9052126  0.358249E-07  0.412E-03    3.61       3.6  T
   4    -67.9052130 -0.385642E-06  0.206E-03    3.61       7.2  T
   5    -67.9052131 -0.776626E-07  0.109E-03    3.62      13.5  T
   6    -67.9052131 -0.118791E-07  0.443E-04    3.61      33.3  T
   7    -67.9052131 -0.239896E-08  0.122E-04    3.61     121.0  T
     SCC iter.                  ...        0 min,  0.017 sec
     gradient                   ...        0 min,  0.005 sec
 * total energy  :   -67.0607206 Eh     change       -0.3209599E-03 Eh
   gradient norm :     0.0050516 Eh/α   predicted    -0.2724564E-03 ( -15.11%)
   displ. norm   :     0.2905948 α      lambda       -0.2561765E-03
   maximum displ.:     0.1908197 α      in ANC's #7, #4, #5, ...

........................................................................
.............................. CYCLE   10 ..............................
........................................................................

 iter      E             dE          RMSdq      gap      omega  full diag
   1    -67.9064528 -0.679065E+02  0.529E-02    3.62       0.0  T
   2    -67.9064534 -0.607076E-06  0.313E-02    3.62       1.0  T
   3    -67.9064532  0.208017E-06  0.340E-03    3.62       4.3  T
   4    -67.9064536 -0.347639E-06  0.150E-03    3.62       9.8  T
   5    -67.9064536 -0.485480E-07  0.654E-04    3.62      22.5  T
   6    -67.9064536 -0.263071E-08  0.253E-04    3.62      58.4  T
     SCC iter.                  ...        0 min,  0.015 sec
     gradient                   ...        0 min,  0.006 sec
 * total energy  :   -67.0609006 Eh     change       -0.1799459E-03 Eh
   gradient norm :     0.0038805 Eh/α   predicted    -0.1389067E-03 ( -22.81%)
   displ. norm   :     0.2334475 α      lambda       -0.1502395E-03
   maximum displ.:     0.1418551 α      in ANC's #7, #4, #1, ...

........................................................................
.............................. CYCLE   11 ..............................
........................................................................

 iter      E             dE          RMSdq      gap      omega  full diag
   1    -67.9070846 -0.679071E+02  0.406E-02    3.62       0.0  T
   2    -67.9070850 -0.418499E-06  0.240E-02    3.62       1.0  T
   3    -67.9070850 -0.393074E-08  0.188E-03    3.62       7.8  T
   4    -67.9070851 -0.783382E-07  0.883E-04    3.62      16.7  T
   5    -67.9070851 -0.113951E-07  0.508E-04    3.62      29.0  T
     SCC iter.                  ...        0 min,  0.013 sec
     gradient                   ...        0 min,  0.005 sec
 * total energy  :   -67.0610105 Eh     change       -0.1098950E-03 Eh
   gradient norm :     0.0039023 Eh/α   predicted    -0.7921482E-04 ( -27.92%)
   displ. norm   :     0.2273463 α      lambda       -0.1164524E-03
   maximum displ.:     0.1237551 α      in ANC's #7, #4, #1, ...

........................................................................
.............................. CYCLE   12 ..............................
........................................................................

 iter      E             dE          RMSdq      gap      omega  full diag
   1    -67.9068556 -0.679069E+02  0.384E-02    3.62       0.0  T
   2    -67.9068559 -0.252799E-06  0.227E-02    3.62       1.0  T
   3    -67.9068558  0.842698E-07  0.216E-03    3.62       6.8  T
   4    -67.9068560 -0.154168E-06  0.850E-04    3.62      17.3  T
   5    -67.9068560 -0.145810E-07  0.476E-04    3.62      31.0  T
     SCC iter.                  ...        0 min,  0.012 sec
     gradient                   ...        0 min,  0.006 sec
 * total energy  :   -67.0610923 Eh     change       -0.8180381E-04 Eh
   gradient norm :     0.0033812 Eh/α   predicted    -0.6123856E-04 ( -25.14%)
   displ. norm   :     0.1817935 α      lambda       -0.8095415E-04
   maximum displ.:     0.0994427 α      in ANC's #4, #7, #6, ...

........................................................................
.............................. CYCLE   13 ..............................
........................................................................

 iter      E             dE          RMSdq      gap      omega  full diag
   1    -67.9070680 -0.679071E+02  0.339E-02    3.62       0.0  T
   2    -67.9070682 -0.261526E-06  0.200E-02    3.62       1.0  T
   3    -67.9070681  0.131984E-06  0.242E-03    3.62       6.1  T
   4    -67.9070683 -0.183898E-06  0.958E-04    3.62      15.4  T
   5    -67.9070683 -0.252189E-07  0.444E-04    3.62      33.2  T
     SCC iter.                  ...        0 min,  0.012 sec
     gradient                   ...        0 min,  0.006 sec
 * total energy  :   -67.0611472 Eh     change       -0.5494016E-04 Eh
   gradient norm :     0.0028720 Eh/α   predicted    -0.4181965E-04 ( -23.88%)
   displ. norm   :     0.1293221 α      lambda       -0.5282111E-04
   maximum displ.:     0.0735478 α      in ANC's #4, #6, #3, ...

........................................................................
.............................. CYCLE   14 ..............................
........................................................................

 iter      E             dE          RMSdq      gap      omega  full diag
   1    -67.9069895 -0.679070E+02  0.273E-02    3.62       0.0  T
   2    -67.9069898 -0.247336E-06  0.161E-02    3.62       1.0  T
   3    -67.9069896  0.182794E-06  0.253E-03    3.62       5.8  T
   4    -67.9069898 -0.224086E-06  0.922E-04    3.62      16.0  T
   5    -67.9069898 -0.240459E-07  0.372E-04    3.62      39.6  T
     SCC iter.                  ...        0 min,  0.012 sec
     gradient                   ...        0 min,  0.007 sec
 * total energy  :   -67.0611853 Eh     change       -0.3805783E-04 Eh
   gradient norm :     0.0017076 Eh/α   predicted    -0.2685992E-04 ( -29.42%)
   displ. norm   :     0.1935027 α      lambda       -0.4858582E-04
   maximum displ.:     0.0980815 α      in ANC's #4, #6, #3, ...

........................................................................
.............................. CYCLE   15 ..............................
........................................................................

 iter      E             dE          RMSdq      gap      omega  full diag
   1    -67.9074875 -0.679075E+02  0.460E-02    3.62       0.0  T
   2    -67.9074878 -0.366331E-06  0.272E-02    3.62       1.0  T
   3    -67.9074877  0.695270E-07  0.274E-03    3.62       5.4  T
   4    -67.9074880 -0.211209E-06  0.124E-03    3.62      11.9  T
   5    -67.9074880 -0.240797E-07  0.639E-04    3.62      23.1  T
   6    -67.9074880 -0.267876E-08  0.181E-04    3.62      81.4  T
     SCC iter.                  ...        0 min,  0.015 sec
     gradient                   ...        0 min,  0.005 sec
 * total energy  :   -67.0612285 Eh     change       -0.4318774E-04 Eh
   gradient norm :     0.0027825 Eh/α   predicted    -0.2469978E-04 ( -42.81%)
   displ. norm   :     0.0972459 α      lambda       -0.3836063E-04
   maximum displ.:     0.0470159 α      in ANC's #4, #3, #6, ...

........................................................................
.............................. CYCLE   16 ..............................
........................................................................

 iter      E             dE          RMSdq      gap      omega  full diag
   1    -67.9069571 -0.679070E+02  0.234E-02    3.61       0.0  T
   2    -67.9069573 -0.283965E-06  0.138E-02    3.61       1.1  T
   3    -67.9069573  0.748377E-07  0.196E-03    3.62       7.5  T
   4    -67.9069574 -0.873654E-07  0.997E-04    3.62      14.8  T
   5    -67.9069574 -0.338294E-07  0.337E-04    3.62      43.7  T
     SCC iter.                  ...        0 min,  0.012 sec
     gradient                   ...        0 min,  0.007 sec
 * total energy  :   -67.0612569 Eh     change       -0.2839201E-04 Eh
   gradient norm :     0.0029218 Eh/α   predicted    -0.1936311E-04 ( -31.80%)
   displ. norm   :     0.1605612 α      lambda       -0.5610412E-04
   maximum displ.:     0.0743806 α      in ANC's #4, #3, #1, ...

........................................................................
.............................. CYCLE   17 ..............................
........................................................................

 iter      E             dE          RMSdq      gap      omega  full diag
   1    -67.9069837 -0.679070E+02  0.381E-02    3.61       0.0  T
   2    -67.9069839 -0.201537E-06  0.225E-02    3.61       1.0  T
   3    -67.9069839 -0.490228E-08  0.180E-03    3.61       8.2  T
   4    -67.9069840 -0.812361E-07  0.896E-04    3.61      16.5  T
   5    -67.9069840 -0.118836E-07  0.501E-04    3.61      29.4  T
     SCC iter.                  ...        0 min,  0.012 sec
     gradient                   ...        0 min,  0.006 sec
 * total energy  :   -67.0612960 Eh     change       -0.3915926E-04 Eh
   gradient norm :     0.0021073 Eh/α   predicted    -0.2877813E-04 ( -26.51%)
   displ. norm   :     0.1264831 α      lambda       -0.2772070E-04
   maximum displ.:     0.0695568 α      in ANC's #4, #3, #1, ...

........................................................................
.............................. CYCLE   18 ..............................
........................................................................

 iter      E             dE          RMSdq      gap      omega  full diag
   1    -67.9070399 -0.679070E+02  0.287E-02    3.61       0.0  T
   2    -67.9070400 -0.111916E-06  0.170E-02    3.61       1.0  T
   3    -67.9070400  0.541282E-07  0.168E-03    3.61       8.8  T
   4    -67.9070401 -0.979416E-07  0.693E-04    3.61      21.3  T
   5    -67.9070401 -0.828732E-08  0.348E-04    3.61      42.4  T
     SCC iter.                  ...        0 min,  0.012 sec
     gradient                   ...        0 min,  0.007 sec
 * total energy  :   -67.0613155 Eh     change       -0.1949838E-04 Eh
   gradient norm :     0.0015860 Eh/α   predicted    -0.1408583E-04 ( -27.76%)
   displ. norm   :     0.1527989 α      lambda       -0.1755317E-04
   maximum displ.:     0.0932845 α      in ANC's #4, #1, #3, ...

........................................................................
.............................. CYCLE   19 ..............................
........................................................................

 iter      E             dE          RMSdq      gap      omega  full diag
   1    -67.9075294 -0.679075E+02  0.341E-02    3.61       0.0  T
   2    -67.9075296 -0.180941E-06  0.202E-02    3.61       1.0  T
   3    -67.9075295  0.731899E-07  0.189E-03    3.61       7.8  T
   4    -67.9075296 -0.116436E-06  0.883E-04    3.61      16.7  T
   5    -67.9075296 -0.181309E-07  0.376E-04    3.61      39.2  T
     SCC iter.                  ...        0 min,  0.012 sec
     gradient                   ...        0 min,  0.006 sec
 * total energy  :   -67.0613311 Eh     change       -0.1555521E-04 Eh
   gradient norm :     0.0016089 Eh/α   predicted    -0.8871665E-05 ( -42.97%)
   displ. norm   :     0.0993449 α      lambda       -0.1267491E-04
   maximum displ.:     0.0654126 α      in ANC's #4, #1, #3, ...

........................................................................
.............................. CYCLE   20 ..............................
........................................................................

 iter      E             dE          RMSdq      gap      omega  full diag
   1    -67.9073815 -0.679074E+02  0.234E-02    3.60       0.0  T
   2    -67.9073816 -0.764795E-07  0.138E-02    3.60       1.1  T
   3    -67.9073816 -0.241118E-08  0.935E-04    3.60      15.8  T
   4    -67.9073816 -0.198047E-07  0.444E-04    3.60      33.2  T
     SCC iter.                  ...        0 min,  0.010 sec
     gradient                   ...        0 min,  0.005 sec
 * total energy  :   -67.0613415 Eh     change       -0.1043652E-04 Eh
   gradient norm :     0.0018158 Eh/α   predicted    -0.6368584E-05 ( -38.98%)
   displ. norm   :     0.0867631 α      lambda       -0.1354804E-04
   maximum displ.:     0.0536260 α      in ANC's #4, #1, #3, ...
 * RMSD in coord.:     0.5225982 α      energy gain  -0.4783770E-01 Eh

generating ANC from exact Hessian ...
Using Lindh-Hessian (1995)
 Shifting diagonal of input Hessian by   9.729928350613285E-003
 Lowest  eigenvalues of input Hessian
    0.000000    0.000000    0.000000    0.000000    0.000000    0.000000
    0.010000    0.010065    0.010374    0.010540    0.010896    0.011233
    0.012799    0.013446    0.014284    0.015008    0.016246    0.016690
 Highest eigenvalues
    1.818712    1.823340    1.953083    1.955068    2.398145    2.399598
 

........................................................................
.............................. CYCLE   21 ..............................
........................................................................

 iter      E             dE          RMSdq      gap      omega  full diag
   1    -67.9075590 -0.679076E+02  0.229E-02    3.60       0.0  T
   2    -67.9075591 -0.106961E-06  0.135E-02    3.60       1.1  T
   3    -67.9075590  0.983848E-07  0.193E-03    3.60       7.6  T
   4    -67.9075592 -0.129311E-06  0.613E-04    3.60      24.1  T
   5    -67.9075592 -0.825433E-08  0.292E-04    3.60      50.5  T
     SCC iter.                  ...        0 min,  0.014 sec
     gradient                   ...        0 min,  0.005 sec
 * total energy  :   -67.0613552 Eh     change       -0.1373693E-04 Eh
   gradient norm :     0.0013083 Eh/α   predicted     0.0000000E+00 (-100.00%)
   displ. norm   :     0.0272929 α      lambda       -0.7082599E-05
   maximum displ.:     0.0122371 α      in ANC's #2, #5, #6, ...

........................................................................
.............................. CYCLE   22 ..............................
........................................................................

 iter      E             dE          RMSdq      gap      omega  full diag
   1    -67.9075827 -0.679076E+02  0.873E-03    3.61       0.0  T
   2    -67.9075827 -0.501890E-07  0.519E-03    3.61       2.8  T
   3    -67.9075827  0.236370E-07  0.100E-03    3.61      14.7  T
   4    -67.9075827 -0.343752E-07  0.346E-04    3.61      42.6  T
   5    -67.9075827 -0.223960E-08  0.172E-04    3.61      85.7  T
     SCC iter.                  ...        0 min,  0.026 sec
     gradient                   ...        0 min,  0.005 sec
 * total energy  :   -67.0613633 Eh     change       -0.8031351E-05 Eh
   gradient norm :     0.0005041 Eh/α   predicted    -0.3577333E-05 ( -55.46%)
   displ. norm   :     0.0704760 α      lambda       -0.1045166E-04
   maximum displ.:     0.0333040 α      in ANC's #2, #6, #5, ...

........................................................................
.............................. CYCLE   23 ..............................
........................................................................

 iter      E             dE          RMSdq      gap      omega  full diag
   1    -67.9075568 -0.679076E+02  0.221E-02    3.61       0.0  T
   2    -67.9075569 -0.115132E-06  0.130E-02    3.61       1.1  T
   3    -67.9075569  0.403344E-08  0.129E-03    3.61      11.4  T
   4    -67.9075570 -0.393848E-07  0.631E-04    3.61      23.4  T
   5    -67.9075570 -0.663940E-08  0.354E-04    3.61      41.7  T
     SCC iter.                  ...        0 min,  0.020 sec
     gradient                   ...        0 min,  0.005 sec
 * total energy  :   -67.0613733 Eh     change       -0.1004511E-04 Eh
   gradient norm :     0.0011226 Eh/α   predicted    -0.5237970E-05 ( -47.86%)
   displ. norm   :     0.1001203 α      lambda       -0.1117032E-04
   maximum displ.:     0.0485933 α      in ANC's #2, #6, #5, ...

........................................................................
.............................. CYCLE   24 ..............................
........................................................................

 iter      E             dE          RMSdq      gap      omega  full diag
   1    -67.9074526 -0.679075E+02  0.318E-02    3.61       0.0  T
   2    -67.9074528 -0.172408E-06  0.187E-02    3.61       1.0  T
   3    -67.9074528 -0.263569E-07  0.155E-03    3.61       9.5  T
   4    -67.9074529 -0.534746E-07  0.852E-04    3.61      17.3  T
   5    -67.9074529 -0.920039E-08  0.468E-04    3.61      31.5  T
     SCC iter.                  ...        0 min,  0.013 sec
     gradient                   ...        0 min,  0.006 sec
 * total energy  :   -67.0613825 Eh     change       -0.9168553E-05 Eh
   gradient norm :     0.0015418 Eh/α   predicted    -0.5610635E-05 ( -38.81%)
   displ. norm   :     0.0799634 α      lambda       -0.9080729E-05
   maximum displ.:     0.0414474 α      in ANC's #2, #6, #5, ...

........................................................................
.............................. CYCLE   25 ..............................
........................................................................

 iter      E             dE          RMSdq      gap      omega  full diag
   1    -67.9074796 -0.679075E+02  0.254E-02    3.61       0.0  T
   2    -67.9074797 -0.104168E-06  0.149E-02    3.61       1.0  T
   3    -67.9074797 -0.307107E-07  0.964E-04    3.61      15.3  T
   4    -67.9074797 -0.155898E-07  0.554E-04    3.61      26.6  T
     SCC iter.                  ...        0 min,  0.011 sec
     gradient                   ...        0 min,  0.005 sec
 * total energy  :   -67.0613939 Eh     change       -0.1139343E-04 Eh
   gradient norm :     0.0010066 Eh/α   predicted    -0.4555126E-05 ( -60.02%)
   displ. norm   :     0.1384426 α      lambda       -0.1360637E-04
   maximum displ.:     0.0740458 α      in ANC's #2, #6, #1, ...

........................................................................
.............................. CYCLE   26 ..............................
........................................................................

 iter      E             dE          RMSdq      gap      omega  full diag
   1    -67.9074228 -0.679074E+02  0.435E-02    3.61       0.0  T
   2    -67.9074231 -0.280986E-06  0.255E-02    3.61       1.0  T
   3    -67.9074231 -0.455122E-07  0.184E-03    3.61       8.0  T
   4    -67.9074232 -0.724097E-07  0.103E-03    3.61      14.3  T
   5    -67.9074232 -0.120116E-07  0.593E-04    3.61      24.9  T
   6    -67.9074232 -0.471611E-08  0.169E-04    3.61      87.0  T
     SCC iter.                  ...        0 min,  0.015 sec
     gradient                   ...        0 min,  0.007 sec
 * total energy  :   -67.0614078 Eh     change       -0.1389032E-04 Eh
   gradient norm :     0.0007749 Eh/α   predicted    -0.6862738E-05 ( -50.59%)
   displ. norm   :     0.1139329 α      lambda       -0.7406680E-05
   maximum displ.:     0.0632261 α      in ANC's #2, #1, #6, ...

........................................................................
.............................. CYCLE   27 ..............................
........................................................................

 iter      E             dE          RMSdq      gap      omega  full diag
   1    -67.9073396 -0.679073E+02  0.365E-02    3.61       0.0  T
   2    -67.9073397 -0.138466E-06  0.214E-02    3.61       1.0  T
   3    -67.9073398 -0.587251E-07  0.106E-03    3.61      13.9  T
   4    -67.9073398 -0.132257E-07  0.644E-04    3.61      22.9  T
   5    -67.9073398  0.182013E-09  0.363E-04    3.61      40.6  T
     SCC iter.                  ...        0 min,  0.013 sec
     gradient                   ...        0 min,  0.005 sec
 * total energy  :   -67.0614142 Eh     change       -0.6412046E-05 Eh
   gradient norm :     0.0012532 Eh/α   predicted    -0.3725515E-05 ( -41.90%)
   displ. norm   :     0.0748560 α      lambda       -0.5566390E-05
   maximum displ.:     0.0438422 α      in ANC's #2, #1, #5, ...

........................................................................
.............................. CYCLE   28 ..............................
........................................................................

 iter      E             dE          RMSdq      gap      omega  full diag
   1    -67.9075372 -0.679075E+02  0.236E-02    3.61       0.0  T
   2    -67.9075372 -0.507481E-07  0.139E-02    3.61       1.1  T
   3    -67.9075372  0.440393E-07  0.135E-03    3.61      10.9  T
   4    -67.9075372 -0.697460E-07  0.470E-04    3.61      31.4  T
   5    -67.9075372 -0.263293E-08  0.244E-04    3.61      60.4  T
     SCC iter.                  ...        0 min,  0.013 sec
     gradient                   ...        0 min,  0.007 sec
 * total energy  :   -67.0614207 Eh     change       -0.6525404E-05 Eh
   gradient norm :     0.0008645 Eh/α   predicted    -0.2791435E-05 ( -57.22%)
   displ. norm   :     0.1038404 α      lambda       -0.7422027E-05
   maximum displ.:     0.0625413 α      in ANC's #2, #1, #5, ...

........................................................................
.............................. CYCLE   29 ..............................
........................................................................

 iter      E             dE          RMSdq      gap      omega  full diag
   1    -67.9076109 -0.679076E+02  0.337E-02    3.61       0.0  T
   2    -67.9076110 -0.119639E-06  0.199E-02    3.61       1.0  T
   3    -67.9076110 -0.769575E-09  0.113E-03    3.61      13.0  T
   4    -67.9076110 -0.373183E-07  0.516E-04    3.61      28.6  T
   5    -67.9076110 -0.177617E-08  0.318E-04    3.61      46.4  T
     SCC iter.                  ...        0 min,  0.012 sec
     gradient                   ...        0 min,  0.005 sec
 * total energy  :   -67.0614296 Eh     change       -0.8930414E-05 Eh
   gradient norm :     0.0006444 Eh/α   predicted    -0.3732027E-05 ( -58.21%)
   displ. norm   :     0.1478796 α      lambda       -0.8878314E-05
   maximum displ.:     0.0900133 α      in ANC's #2, #1, #5, ...

........................................................................
.............................. CYCLE   30 ..............................
........................................................................

 iter      E             dE          RMSdq      gap      omega  full diag
   1    -67.9075084 -0.679075E+02  0.476E-02    3.61       0.0  T
   2    -67.9075086 -0.138447E-06  0.280E-02    3.61       1.0  T
   3    -67.9075086 -0.563502E-07  0.921E-04    3.61      16.0  T
   4    -67.9075086 -0.786382E-08  0.550E-04    3.61      26.8  T
     SCC iter.                  ...        0 min,  0.009 sec
     gradient                   ...        0 min,  0.007 sec
 * total energy  :   -67.0614399 Eh     change       -0.1030827E-04 Eh
   gradient norm :     0.0009203 Eh/α   predicted    -0.4487507E-05 ( -56.47%)
   displ. norm   :     0.1576400 α      lambda       -0.8330385E-05
   maximum displ.:     0.0967604 α      in ANC's #2, #1, #5, ...

........................................................................
.............................. CYCLE   31 ..............................
........................................................................

 iter      E             dE          RMSdq      gap      omega  full diag
   1    -67.9074052 -0.679074E+02  0.509E-02    3.61       0.0  T
   2    -67.9074054 -0.166408E-06  0.300E-02    3.61       1.0  T
   3    -67.9074054 -0.164238E-07  0.141E-03    3.61      10.4  T
   4    -67.9074054 -0.436164E-07  0.810E-04    3.61      18.2  T
   5    -67.9074054 -0.123679E-07  0.381E-04    3.61      38.7  T
     SCC iter.                  ...        0 min,  0.012 sec
     gradient                   ...        0 min,  0.006 sec
 * total energy  :   -67.0614495 Eh     change       -0.9595985E-05 Eh
   gradient norm :     0.0009141 Eh/α   predicted    -0.4213153E-05 ( -56.09%)
   displ. norm   :     0.1569096 α      lambda       -0.8311631E-05
   maximum displ.:     0.0976393 α      in ANC's #2, #1, #3, ...

........................................................................
.............................. CYCLE   32 ..............................
........................................................................

 iter      E             dE          RMSdq      gap      omega  full diag
   1    -67.9075880 -0.679076E+02  0.489E-02    3.61       0.0  T
   2    -67.9075882 -0.137990E-06  0.288E-02    3.61       1.0  T
   3    -67.9075882 -0.280768E-08  0.135E-03    3.61      10.9  T
   4    -67.9075882 -0.479927E-07  0.741E-04    3.61      19.9  T
   5    -67.9075882 -0.100840E-07  0.336E-04    3.61      43.9  T
     SCC iter.                  ...        0 min,  0.013 sec
     gradient                   ...        0 min,  0.006 sec
 * total energy  :   -67.0614585 Eh     change       -0.8978583E-05 Eh
   gradient norm :     0.0009528 Eh/α   predicted    -0.4203219E-05 ( -53.19%)
   displ. norm   :     0.1514658 α      lambda       -0.7069846E-05
   maximum displ.:     0.0967045 α      in ANC's #2, #1, #3, ...

........................................................................
.............................. CYCLE   33 ..............................
........................................................................

 iter      E             dE          RMSdq      gap      omega  full diag
   1    -67.9073118 -0.679073E+02  0.465E-02    3.61       0.0  T
   2    -67.9073119 -0.181551E-06  0.274E-02    3.61       1.0  T
   3    -67.9073119  0.413077E-07  0.179E-03    3.61       8.2  T
   4    -67.9073120 -0.106281E-06  0.683E-04    3.61      21.6  T
   5    -67.9073120 -0.438575E-08  0.459E-04    3.61      32.1  T
     SCC iter.                  ...        0 min,  0.013 sec
     gradient                   ...        0 min,  0.005 sec
 * total energy  :   -67.0614662 Eh     change       -0.7679633E-05 Eh
   gradient norm :     0.0007426 Eh/α   predicted    -0.3573243E-05 ( -53.47%)
   displ. norm   :     0.0997451 α      lambda       -0.4816075E-05
   maximum displ.:     0.0644858 α      in ANC's #2, #1, #3, ...

........................................................................
.............................. CYCLE   34 ..............................
........................................................................

 iter      E             dE          RMSdq      gap      omega  full diag
   1    -67.9077238 -0.679077E+02  0.272E-02    3.61       0.0  T
   2    -67.9077239 -0.509956E-07  0.161E-02    3.61       1.0  T
   3    -67.9077238  0.901486E-07  0.170E-03    3.61       8.7  T
   4    -67.9077239 -0.117384E-06  0.446E-04    3.61      33.1  T
   5    -67.9077239 -0.260218E-08  0.233E-04    3.61      63.2  T
     SCC iter.                  ...        0 min,  0.013 sec
     gradient                   ...        0 min,  0.006 sec
 * total energy  :   -67.0614716 Eh     change       -0.5426086E-05 Eh
   gradient norm :     0.0004405 Eh/α   predicted    -0.2419340E-05 ( -55.41%)
   displ. norm   :     0.1537774 α      lambda       -0.6086655E-05
   maximum displ.:     0.1033433 α      in ANC's #2, #1, #4, ...

........................................................................
.............................. CYCLE   35 ..............................
........................................................................

 iter      E             dE          RMSdq      gap      omega  full diag
   1    -67.9074992 -0.679075E+02  0.414E-02    3.61       0.0  T
   2    -67.9074994 -0.138811E-06  0.244E-02    3.61       1.0  T
   3    -67.9074994 -0.201551E-07  0.119E-03    3.61      12.4  T
   4    -67.9074994 -0.366173E-07  0.522E-04    3.61      28.2  T
   5    -67.9074994 -0.274355E-09  0.268E-04    3.61      55.0  T
     SCC iter.                  ...        0 min,  0.013 sec
     gradient                   ...        0 min,  0.006 sec
 * total energy  :   -67.0614781 Eh     change       -0.6511427E-05 Eh
   gradient norm :     0.0006655 Eh/α   predicted    -0.3078070E-05 ( -52.73%)
   displ. norm   :     0.0861104 α      lambda       -0.4122995E-05
   maximum displ.:     0.0587638 α      in ANC's #2, #1, #4, ...

........................................................................
.............................. CYCLE   36 ..............................
........................................................................

 iter      E             dE          RMSdq      gap      omega  full diag
   1    -67.9076278 -0.679076E+02  0.178E-02    3.61       0.0  T
   2    -67.9076278 -0.294374E-07  0.105E-02    3.61       1.4  T
   3    -67.9076278  0.144323E-08  0.746E-04    3.61      19.8  T
   4    -67.9076279 -0.156302E-07  0.378E-04    3.61      39.0  T
     SCC iter.                  ...        0 min,  0.010 sec
     gradient                   ...        0 min,  0.006 sec
 * total energy  :   -67.0614828 Eh     change       -0.4647359E-05 Eh
   gradient norm :     0.0006285 Eh/α   predicted    -0.2069716E-05 ( -55.46%)
   displ. norm   :     0.1143368 α      lambda       -0.5663908E-05
   maximum displ.:     0.0782992 α      in ANC's #2, #1, #4, ...

   *** GEOMETRY OPTIMIZATION CONVERGED AFTER 36 ITERATIONS ***

------------------------------------------------------------------------
 total energy gain   :        -0.0479790 Eh      -30.1073 kcal/mol
 total RMSD          :         0.6234141 a0        0.3299 Å
 total power (kW/mol):        -3.4991333 (step) -122.1550 (real)
------------------------------------------------------------------------

 ANCopt (total)                0 d,  0 h,  0 min,  1.031 sec
 optimizer setup                ...        0 min,  0.000 sec (  0.014%)
 model hessian                  ...        0 min,  0.102 sec (  9.862%)
 ANC generation                 ...        0 min,  0.005 sec (  0.477%)
 coordinate transformation      ...        0 min,  0.001 sec (  0.079%)
 single point calculation       ...        0 min,  0.875 sec ( 84.844%)
 optimization log               ...        0 min,  0.027 sec (  2.651%)
 hessian update                 ...        0 min,  0.009 sec (  0.842%)
 rational function              ...        0 min,  0.006 sec (  0.600%)

================
 final structure:
================
46
 xtb: 6.7.1 (edcfbbe)
C           -6.98144395957210        0.53179067233563        0.74872102507435
C           -6.23447259552244       -0.29225167717103        1.46807948244085
C           -4.77012818917263       -0.15055857176430        1.62988401014632
O           -4.08524847169051       -0.94493485235451        2.22879701756601
O           -4.29130634050402        0.95774388838840        1.05087893499724
C           -2.88654077434271        1.17425541703556        1.14248522581454
C           -2.11566928831030        0.37061825244931        0.09883842173176
C           -2.46062789650191        0.75412571730122       -1.34269320301821
C           -1.26570409749529        0.24737080484586       -2.14730155881125
C           -0.05468550847319        0.53340010888051       -1.24988903759164
C            0.98488240189176       -0.59276965805635       -1.17019487901369
C            0.33247002040563       -1.56075692695110       -0.18334004646168
C            0.17537836033749       -0.51349362966094        0.91731800456062
C            1.62476023227860       -0.04460148149458        1.08936920455892
C            2.17470020028787       -0.05230879812478       -0.35510615605832
C            3.42135011505665       -0.91426610383403       -0.50849648763622
O            4.47407227067899       -0.32019440605446        0.24860565901944
C            5.68743937392405       -0.86259937504170        0.10080166737170
O            5.91077950619908       -1.80668058036516       -0.61852700848259
C            6.72511385017871       -0.18217943643802        0.90752375714526
C            6.48436009812412        0.84794427904002        1.70459345422641
C           -0.59955412605231        0.59947202610757        0.19996738030280
H           -6.54687090760887        1.37215354356175        0.23411987083947
H           -8.04492310959164        0.39284938298207        0.64969831101162
H           -6.64892185860083       -1.14478209219358        1.98647678564538
H           -2.75266887425677        2.24743785498283        0.98705622506781
H           -2.54642480007520        0.89653944781015        2.14644247402986
H           -2.34238205366576       -0.68699770106879        0.25867862842476
H           -3.40470510066001        0.32472577789292       -1.67476555231590
H           -2.53021716386969        1.84071965264813       -1.42324487001049
H           -1.18352218350797        0.74069219028812       -3.11490743433269
H           -1.36369574167070       -0.82388406731395       -2.32449133691336
H            0.41058438226280        1.47384941489408       -1.55110035030521
H            1.26738089934107       -1.00135792021315       -2.13904949984015
H           -0.61340596953802       -1.96261007325188       -0.53676076608050
H            0.98070567836273       -2.38537657538617        0.10347770049219
H           -0.29505379765575       -0.84633042097166        1.84057319385450
H            1.68718323329559        0.94102260334788        1.54820810639200
H            2.18260591186836       -0.74110126115853        1.71504134729216
H            2.44118583855938        0.95705522574496       -0.67872860796983
H            3.73144183850011       -0.97470535827628       -1.55856714622542
H            3.25802792092812       -1.93557929812930       -0.14758076557770
H            7.71314999260396       -0.60334199112596        0.78909155551670
H            5.49141120714683        1.25197751567259        1.80840434045010
H            7.26806669667898        1.31780060689903        2.27492749791913
H           -0.40887922057159        1.57011687328706        0.66337042478495
 
 Bond Distances (Angstroems)
 ---------------------------
C1-C2=1.3246         C1-H23=1.0770        C1-H24=1.0771        C2-C1=1.3246         C2-C3=1.4801         C2-H25=1.0804        
C3-C2=1.4801         C3-O4=1.2078         C3-O5=1.3390         O4-C3=1.2078         O5-C3=1.3390         O5-C6=1.4243         
C6-O5=1.4243         C6-C7=1.5262         C6-H26=1.0926        C6-H27=1.0958        C7-C6=1.5262         C7-C8=1.5310         
C7-C22=1.5366        C7-H28=1.0934        C8-C7=1.5310         C8-C9=1.5271         C8-H29=1.0890        C8-H30=1.0918        
C9-C8=1.5271         C9-C10=1.5342        C9-H31=1.0892        C9-H32=1.0902        C10-C9=1.5342        C10-C11=1.5347       
C10-C22=1.5503       C10-H33=1.0916       C11-C10=1.5347       C11-C12=1.5286       C11-C15=1.5402       C11-H34=1.0888       
C12-C11=1.5286       C12-C13=1.5274       C12-H35=1.0868       C12-H36=1.0874       C13-C12=1.5274       C13-C14=1.5330       
C13-C22=1.5342       C13-H37=1.0883       C14-C13=1.5330       C14-C15=1.5456       C14-H38=1.0890       C14-H39=1.0898       
C15-C11=1.5402       C15-C14=1.5456       C15-C16=1.5234       C15-H40=1.0930       C16-C15=1.5234       C16-O17=1.4263       
C16-H41=1.0966       C16-H42=1.0955       O17-C16=1.4263       O17-C18=1.3373       C18-O17=1.3373       C18-O19=1.2077       
C18-C20=1.4800       O19-C18=1.2077       C20-C18=1.4800       C20-C21=1.3246       C20-H43=1.0806       C21-C20=1.3246       
C21-H44=1.0770       C21-H45=1.0771       C22-C7=1.5366        C22-C10=1.5503       C22-C13=1.5342       C22-H46=1.0924       
H23-C1=1.0770        H24-C1=1.0771        H25-C2=1.0804        H26-C6=1.0926        H27-C6=1.0958        H28-C7=1.0934        
H29-C8=1.0890        H30-C8=1.0918        H31-C9=1.0892        H32-C9=1.0902        H33-C10=1.0916       H34-C11=1.0888       
H35-C12=1.0868       H36-C12=1.0874       H37-C13=1.0883       H38-C14=1.0890       H39-C14=1.0898       H40-C15=1.0930       
H41-C16=1.0966       H42-C16=1.0955       H43-C20=1.0806       H44-C21=1.0770       H45-C21=1.0771       H46-C22=1.0924       
 C  H  Rav=1.0879 sigma=0.0062  Rmin=1.0770  Rmax=1.0966    24
 C  C  Rav=1.5045 sigma=0.0661  Rmin=1.3246  Rmax=1.5503    18
 O  C  Rav=1.3237 sigma=0.0894  Rmin=1.2077  Rmax=1.4263     6
 
 selected bond angles (degree)
 --------------------
H23-C1-C2=121.16               H24-C1-C2=121.77               H24-C1-H23=117.07              C3-C2-C1=123.90                
H25-C2-C1=122.35               H25-C2-C3=113.74               O4-C3-C2=123.52                O5-C3-C2=112.69                
O5-C3-O4=123.78                C6-O5-C3=116.79                C7-C6-O5=111.97                H26-C6-O5=105.13               
H26-C6-C7=110.98               H27-C6-O5=109.06               H27-C6-C7=109.65               H27-C6-H26=109.95              
C8-C7-C6=113.46                C22-C7-C6=112.02               C22-C7-C8=104.30               H28-C7-C6=107.74               
H28-C7-C8=109.46               H28-C7-C22=109.82              C9-C8-C7=103.69                H29-C8-C7=112.56               
H29-C8-C9=112.76               H30-C8-C7=109.46               H30-C8-C9=109.95               H30-C8-H29=108.34              
C10-C9-C8=104.33               H31-C9-C8=112.14               H31-C9-C10=112.06              H32-C9-C8=109.96               
H32-C9-C10=110.44              H32-C9-H31=107.90              C11-C10-C9=115.36              C22-C10-C9=106.12              
C22-C10-C11=102.76             H33-C10-C9=109.61              H33-C10-C11=110.97             H33-C10-C22=111.79             
 
 selected dihedral angles (degree)
 ---------------------------------
C3-C2-C1-H23=359.77           C3-C2-C1-H24=179.64           H25-C2-C1-H23=180.43          H25-C2-C1-H24=  0.30          
O4-C3-C2-C1=184.05            O4-C3-C2-H25=  3.44           O5-C3-C2-C1=  4.59            O5-C3-C2-H25=183.98           
C6-O5-C3-C2=180.60            C6-O5-C3-O4=  1.14            C7-C6-O5-C3= 81.09            H26-C6-O5-C3=201.69           
H27-C6-O5-C3=319.56           C8-C7-C6-O5= 62.44            C8-C7-C6-H26=305.30           C8-C7-C6-H27=183.63           
C22-C7-C6-O5=180.21           C22-C7-C6-H26= 63.07          C22-C7-C6-H27=301.40          H28-C7-C6-O5=301.09           
H28-C7-C6-H26=183.95          H28-C7-C6-H27= 62.28          C9-C8-C7-C6=159.72            C9-C8-C7-C22= 37.56           
C9-C8-C7-H28=280.10           H29-C8-C7-C6=281.89           H29-C8-C7-C22=159.72          H29-C8-C7-H28= 42.26          
H30-C8-C7-C6= 42.43           H30-C8-C7-C22=280.26          H30-C8-C7-H28=162.80          C10-C9-C8-C7=321.87           
C10-C9-C8-H29=199.84          C10-C9-C8-H30= 78.82          H31-C9-C8-C7=200.37           H31-C9-C8-H29= 78.34          
H31-C9-C8-H30=317.32          H32-C9-C8-C7= 80.31           H32-C9-C8-H29=318.28          H32-C9-C8-H30=197.26          
C11-C10-C9-C8=136.98          C11-C10-C9-H31=258.53         C11-C10-C9-H32= 18.87         C22-C10-C9-C8= 23.95          
C22-C10-C9-H31=145.50         C22-C10-C9-H32=265.84         H33-C10-C9-C8=263.08          H33-C10-C9-H31= 24.63         
H33-C10-C9-H32=144.97         
           -------------------------------------------------
          |                Final Singlepoint                |
           -------------------------------------------------

          ...................................................
          :                      SETUP                      :
          :.................................................:
          :  # basis functions                 112          :
          :  # atomic orbitals                 112          :
          :  # shells                           68          :
          :  # electrons                       120          :
          :  max. iterations                   250          :
          :  Hamiltonian                  GFN2-xTB          :
          :  restarted?                      false          :
          :  GBSA solvation                  false          :
          :  PC potential                    false          :
          :  electronic temp.          300.0000000     K    :
          :  accuracy                    1.0000000          :
          :  -> integral cutoff          0.2500000E+02      :
          :  -> integral neglect         0.1000000E-07      :
          :  -> SCF convergence          0.1000000E-05 Eh   :
          :  -> wf. convergence          0.1000000E-03 e    :
          :  Broyden damping             0.4000000          :
          :  net charge                          0          :
          :  unpaired electrons                  0          :
          ...................................................

 iter      E             dE          RMSdq      gap      omega  full diag
   1    -67.9076279 -0.679076E+02  0.184E-04    3.61       0.0  T
   2    -67.9076279 -0.140673E-09  0.129E-04    3.61     114.4  T
   3    -67.9076279 -0.739249E-10  0.886E-05    3.61     166.5  T

   *** convergence criteria satisfied after 3 iterations ***

         #    Occupation            Energy/Eh            Energy/eV
      -------------------------------------------------------------
         1        2.0000           -0.7420447             -20.1921
       ...           ...                  ...                  ...
        54        2.0000           -0.4307854             -11.7223
        55        2.0000           -0.4288016             -11.6683
        56        2.0000           -0.4275511             -11.6343
        57        2.0000           -0.4257086             -11.5841
        58        2.0000           -0.4221301             -11.4867
        59        2.0000           -0.4141934             -11.2708
        60        2.0000           -0.4112194             -11.1898 (HOMO)
        61                         -0.2787208              -7.5844 (LUMO)
        62                         -0.2760963              -7.5130
        63                         -0.1672206              -4.5503
        64                         -0.1642057              -4.4683
        65                         -0.0161866              -0.4405
       ...                                ...                  ...
       112                          0.7008793              19.0719
      -------------------------------------------------------------
                  HL-Gap            0.1324985 Eh            3.6055 eV
             Fermi-level           -0.3449701 Eh           -9.3871 eV

 SCC (total)                   0 d,  0 h,  0 min,  0.028 sec
 SCC setup                      ...        0 min,  0.001 sec (  4.022%)
 Dispersion                     ...        0 min,  0.004 sec ( 13.563%)
 classical contributions        ...        0 min,  0.000 sec (  0.588%)
 integral evaluation            ...        0 min,  0.001 sec (  4.300%)
 iterations                     ...        0 min,  0.013 sec ( 46.192%)
 molecular gradient             ...        0 min,  0.008 sec ( 28.272%)
 printout                       ...        0 min,  0.001 sec (  2.964%)

         :::::::::::::::::::::::::::::::::::::::::::::::::::::
         ::                     SUMMARY                     ::
         :::::::::::::::::::::::::::::::::::::::::::::::::::::
         :: total energy             -67.061482786996 Eh    ::
         :: gradient norm              0.000629175235 Eh/a0 ::
         :: HOMO-LUMO gap              3.605468696012 eV    ::
         ::.................................................::
         :: SCC energy               -67.907486342249 Eh    ::
         :: -> isotropic ES            0.091420043917 Eh    ::
         :: -> anisotropic ES          0.003588518328 Eh    ::
         :: -> anisotropic XC          0.022424759382 Eh    ::
         :: -> dispersion             -0.043965628946 Eh    ::
         :: repulsion energy           0.846003555253 Eh    ::
         :: add. restraining           0.000000000000 Eh    ::
         :: total charge               0.000000000000 e     ::
         :::::::::::::::::::::::::::::::::::::::::::::::::::::

           -------------------------------------------------
          |                Property Printout                |
           -------------------------------------------------

    * Orbital Energies and Occupations

         #    Occupation            Energy/Eh            Energy/eV
      -------------------------------------------------------------
         1        2.0000           -0.7420447             -20.1921
       ...           ...                  ...                  ...
        48        2.0000           -0.4472363             -12.1699
        49        2.0000           -0.4431423             -12.0585
        50        2.0000           -0.4418263             -12.0227
        51        2.0000           -0.4405590             -11.9882
        52        2.0000           -0.4386723             -11.9369
        53        2.0000           -0.4359030             -11.8615
        54        2.0000           -0.4307854             -11.7223
        55        2.0000           -0.4288016             -11.6683
        56        2.0000           -0.4275511             -11.6343
        57        2.0000           -0.4257086             -11.5841
        58        2.0000           -0.4221301             -11.4867
        59        2.0000           -0.4141934             -11.2708
        60        2.0000           -0.4112194             -11.1898 (HOMO)
        61                         -0.2787208              -7.5844 (LUMO)
        62                         -0.2760963              -7.5130
        63                         -0.1672206              -4.5503
        64                         -0.1642057              -4.4683
        65                         -0.0161866              -0.4405
        66                         -0.0029240              -0.0796
        67                          0.0208375               0.5670
        68                          0.0294202               0.8006
        69                          0.0469230               1.2768
        70                          0.0543232               1.4782
        71                          0.0669497               1.8218
       ...                                ...                  ...
       112                          0.7008793              19.0719
      -------------------------------------------------------------
                  HL-Gap            0.1324985 Eh            3.6055 eV
             Fermi-level           -0.3449701 Eh           -9.3871 eV

     #   Z          covCN         q      C6AA      α(0)
     1   6 C        2.838    -0.063    29.554     8.909
     2   6 C        2.887    -0.058    29.443     8.896
     3   6 C        2.723     0.356    20.952     7.493
     4   8 O        0.857    -0.415    21.974     6.285
     5   8 O        1.704    -0.264    18.370     5.787
     6   6 C        3.705     0.076    19.452     6.305
     7   6 C        3.871    -0.027    21.013     6.518
     8   6 C        3.825    -0.058    21.604     6.614
     9   6 C        3.821    -0.062    21.666     6.624
    10   6 C        3.905    -0.025    20.961     6.508
    11   6 C        3.978    -0.025    20.937     6.501
    12   6 C        3.887    -0.065    21.685     6.620
    13   6 C        3.975    -0.020    20.866     6.490
    14   6 C        3.844    -0.065    21.705     6.627
    15   6 C        3.886    -0.027    21.001     6.515
    16   6 C        3.707     0.081    19.364     6.290
    17   8 O        1.705    -0.263    18.359     5.785
    18   6 C        2.725     0.355    20.978     7.498
    19   8 O        0.857    -0.415    21.986     6.287
    20   6 C        2.887    -0.058    29.428     8.894
    21   6 C        2.838    -0.063    29.562     8.910
    22   6 C        3.906    -0.031    21.069     6.524
    23   1 H        0.926     0.072     2.068     2.249
    24   1 H        0.926     0.062     2.174     2.305
    25   1 H        0.926     0.071     2.077     2.254
    26   1 H        0.924     0.051     2.302     2.372
    27   1 H        0.924     0.055     2.263     2.353
    28   1 H        0.924     0.053     2.284     2.363
    29   1 H        0.925     0.034     2.526     2.486
    30   1 H        0.924     0.035     2.510     2.478
    31   1 H        0.925     0.033     2.544     2.494
    32   1 H        0.924     0.038     2.474     2.460
    33   1 H        0.924     0.030     2.584     2.514
    34   1 H        0.925     0.030     2.589     2.516
    35   1 H        0.925     0.043     2.410     2.428
    36   1 H        0.925     0.036     2.501     2.473
    37   1 H        0.925     0.037     2.495     2.470
    38   1 H        0.925     0.036     2.509     2.477
    39   1 H        0.925     0.044     2.402     2.424
    40   1 H        0.924     0.044     2.402     2.424
    41   1 H        0.924     0.050     2.326     2.385
    42   1 H        0.924     0.050     2.321     2.382
    43   1 H        0.926     0.071     2.079     2.255
    44   1 H        0.926     0.071     2.069     2.249
    45   1 H        0.926     0.062     2.179     2.308
    46   1 H        0.924     0.028     2.617     2.530

 Mol. C6AA /au·bohr⁶  :      19674.398921
 Mol. C8AA /au·bohr⁸  :     447118.996869
 Mol. α(0) /au        :        210.529529


Wiberg/Mayer (AO) data.
largest (>0.10) Wiberg bond orders for each atom

 ---------------------------------------------------------------------------
     #   Z sym  total        # sym  WBO       # sym  WBO       # sym  WBO
 ---------------------------------------------------------------------------
     1   6 C    3.984 --     2 C    1.935    24 H    0.975    23 H    0.971
     2   6 C    3.988 --     1 C    1.935     3 C    1.012    25 H    0.963
     3   6 C    3.921 --     4 O    1.722     5 O    1.126     2 C    1.012
     4   8 O    2.030 --     3 C    1.722     5 O    0.172
     5   8 O    2.310 --     3 C    1.126     6 C    0.943     4 O    0.172
     6   6 C    3.927 --     7 C    0.988    26 H    0.969    27 H    0.966
                             5 O    0.943
     7   6 C    3.991 --     8 C    0.995     6 C    0.988    22 C    0.982
                            28 H    0.963
     8   6 C    3.997 --     9 C    1.006     7 C    0.995    29 H    0.979
                            30 H    0.978
     9   6 C    3.997 --     8 C    1.006    10 C    0.995    31 H    0.980
                            32 H    0.976
    10   6 C    3.993 --     9 C    0.995    11 C    0.987    22 C    0.976
                            33 H    0.972
    11   6 C    3.992 --    12 C    0.996    10 C    0.987    15 C    0.981
                            34 H    0.970
    12   6 C    3.995 --    11 C    0.996    13 C    0.996    36 H    0.975
                            35 H    0.971
    13   6 C    3.994 --    14 C    0.996    12 C    0.996    22 C    0.988
                            37 H    0.970
    14   6 C    3.995 --    13 C    0.996    15 C    0.990    38 H    0.979
                            39 H    0.977
    15   6 C    3.991 --    16 C    0.997    14 C    0.990    11 C    0.981
                            40 H    0.968
    16   6 C    3.927 --    15 C    0.997    41 H    0.966    42 H    0.964
                            17 O    0.940
    17   8 O    2.308 --    18 C    1.128    16 C    0.940    19 O    0.173
    18   6 C    3.921 --    19 O    1.722    17 O    1.128    20 C    1.011
    19   8 O    2.028 --    18 C    1.722    17 O    0.173
    20   6 C    3.987 --    21 C    1.935    18 C    1.011    43 H    0.963
    21   6 C    3.984 --    20 C    1.935    45 H    0.975    44 H    0.971
    22   6 C    3.993 --    13 C    0.988     7 C    0.982    10 C    0.976
                            46 H    0.970
    23   1 H    0.995 --     1 C    0.971
    24   1 H    0.996 --     1 C    0.975
    25   1 H    0.995 --     2 C    0.963
    26   1 H    0.997 --     6 C    0.969
    27   1 H    0.997 --     6 C    0.966
    28   1 H    0.997 --     7 C    0.963
    29   1 H    0.998 --     8 C    0.979
    30   1 H    0.999 --     8 C    0.978
    31   1 H    0.999 --     9 C    0.980
    32   1 H    0.999 --     9 C    0.976
    33   1 H    0.999 --    10 C    0.972
    34   1 H    0.999 --    11 C    0.970
    35   1 H    0.998 --    12 C    0.971
    36   1 H    0.999 --    12 C    0.975
    37   1 H    0.999 --    13 C    0.970
    38   1 H    0.999 --    14 C    0.979
    39   1 H    0.998 --    14 C    0.977
    40   1 H    0.998 --    15 C    0.968
    41   1 H    0.998 --    16 C    0.966
    42   1 H    0.997 --    16 C    0.964
    43   1 H    0.995 --    20 C    0.963
    44   1 H    0.995 --    21 C    0.971
    45   1 H    0.996 --    21 C    0.975
    46   1 H    0.999 --    22 C    0.970
 ---------------------------------------------------------------------------

Topologies differ in total number of bonds
Writing topology from bond orders to xtbtopo.mol

molecular dipole:
                 x           y           z       tot (Debye)
 q only:       -0.845       1.362      -0.130
   full:       -0.866       1.499      -0.098       4.408
molecular quadrupole (traceless):
                xx          xy          yy          xz          yz          zz
 q only:        5.461       9.654      -3.239      17.532       2.853      -2.222
  q+dip:        5.245      10.357      -1.718      18.180       2.330      -3.527
   full:        5.385      10.568      -3.130      17.705       2.666      -2.255

           -------------------------------------------------
          |                Geometry Summary                 |
           -------------------------------------------------

      molecular mass/u    :      304.3814439
   center of mass at/Å    :        0.1076475      -0.1079834       0.2794682
  moments of inertia/u·Å² :        0.5837800E+03   0.5314205E+04   0.5506083E+04
rotational constants/cm⁻¹ :        0.2887669E-01   0.3172183E-02   0.3061638E-02

 * 44 selected distances

     #   Z          #   Z                                           value/Å
     1   6 C        2   6 C                                       1.3245712
     3   6 C        4   8 O                                       1.2078042
     3   6 C        5   8 O                                       1.3389742
     5   8 O        6   6 C                                       1.4243018
     6   6 C        7   6 C                                       1.5261961
     7   6 C        8   6 C                                       1.5310416
     8   6 C        9   6 C                                       1.5271013
     9   6 C       10   6 C                                       1.5341866
    10   6 C       11   6 C                                       1.5347024
    11   6 C       12   6 C                                       1.5285693
    12   6 C       13   6 C                                       1.5273791
    13   6 C       14   6 C                                       1.5330263
    11   6 C       15   6 C                                       1.5401735 (max)
    15   6 C       16   6 C                                       1.5233632
    16   6 C       17   8 O                                       1.4263061
    17   8 O       18   6 C                                       1.3372768
    18   6 C       19   8 O                                       1.2077269
    20   6 C       21   6 C                                       1.3245519
     7   6 C       22   6 C                                       1.5366219
    13   6 C       22   6 C                                       1.5342116
     1   6 C       23   1 H                                       1.0769763 (min)
     1   6 C       24   1 H                                       1.0770786
     2   6 C       25   1 H                                       1.0804223
     6   6 C       26   1 H                                       1.0926118
     6   6 C       27   1 H                                       1.0957807
     7   6 C       28   1 H                                       1.0933889
     8   6 C       29   1 H                                       1.0890080
     8   6 C       30   1 H                                       1.0917957
     9   6 C       31   1 H                                       1.0892113
     9   6 C       32   1 H                                       1.0902228
    10   6 C       33   1 H                                       1.0916270
    11   6 C       34   1 H                                       1.0887742
    12   6 C       35   1 H                                       1.0867722
    12   6 C       36   1 H                                       1.0874151
    13   6 C       37   1 H                                       1.0883414
    14   6 C       38   1 H                                       1.0889834
    14   6 C       39   1 H                                       1.0898484
    15   6 C       40   1 H                                       1.0929602
    16   6 C       41   1 H                                       1.0965666
    16   6 C       42   1 H                                       1.0954520
    20   6 C       43   1 H                                       1.0805645
    21   6 C       44   1 H                                       1.0770178
    21   6 C       45   1 H                                       1.0771454
    22   6 C       46   1 H                                       1.0923603

 * 3 distinct bonds (by element types)

   Z      Z             #   av. dist./Å        max./Å        min./Å
   1 H    6 C          24     1.0879302     1.0965666     1.0769763
   6 C    6 C          14     1.5018354     1.5401735     1.3245519
   6 C    8 O           6     1.3237317     1.4263061     1.2077269


optimized geometry written to: xtbopt.xyz


           -------------------------------------------------
          | TOTAL ENERGY              -67.061482786996 Eh   |
          | GRADIENT NORM               0.000629175235 Eh/α |
          | HOMO-LUMO GAP               3.605468696012 eV   |
           -------------------------------------------------

------------------------------------------------------------------------
 * finished run on 2025/12/01 at 14:19:39.452     
------------------------------------------------------------------------
 total:
 * wall-time:     0 d,  0 h,  0 min,  1.135 sec
 *  cpu-time:     0 d,  0 h,  0 min, 25.651 sec
 * ratio c/w:    22.602 speedup
 SCF:
 * wall-time:     0 d,  0 h,  0 min,  0.059 sec
 *  cpu-time:     0 d,  0 h,  0 min,  1.327 sec
 * ratio c/w:    22.498 speedup
 ANC optimizer:
 * wall-time:     0 d,  0 h,  0 min,  1.061 sec
 *  cpu-time:     0 d,  0 h,  0 min, 24.065 sec
 * ratio c/w:    22.688 speedup

normal termination of xtb
