      -----------------------------------------------------------      
     |                   =====================                   |     
     |                           x T B                           |     
     |                   =====================                   |     
     |                         S. Grimme                         |     
     |          Mulliken Center for Theoretical Chemistry        |     
     |                    University of Bonn                     |     
      -----------------------------------------------------------      

   * xtb version 6.7.1 (edcfbbe) compiled by 'albert@albert-system' on 2024-07-22

   xtb is free software: you can redistribute it and/or modify it under
   the terms of the GNU Lesser General Public License as published by
   the Free Software Foundation, either version 3 of the License, or
   (at your option) any later version.
   
   xtb is distributed in the hope that it will be useful,
   but WITHOUT ANY WARRANTY; without even the implied warranty of
   MERCHANTABILITY or FITNESS FOR A PARTICULAR PURPOSE.  See the
   GNU Lesser General Public License for more details.
   
   Cite this work as:
   * C. Bannwarth, E. Caldeweyher, S. Ehlert, A. Hansen, P. Pracht,
     J. Seibert, S. Spicher, S. Grimme, WIREs Comput. Mol. Sci., 2020, 11,
     e01493. DOI: 10.1002/wcms.1493
   
   for GFN2-xTB:
   * C. Bannwarth, S. Ehlert and S. Grimme., J. Chem. Theory Comput., 2019,
     15, 1652-1671. DOI: 10.1021/acs.jctc.8b01176
   for GFN1-xTB:
   * S. Grimme, C. Bannwarth, P. Shushkov, J. Chem. Theory Comput., 2017,
     13, 1989-2009. DOI: 10.1021/acs.jctc.7b00118
   for GFN0-xTB:
   * P. Pracht, E. Caldeweyher, S. Ehlert, S. Grimme, ChemRxiv, 2019, preprint.
     DOI: 10.26434/chemrxiv.8326202.v1
   for GFN-FF:
   * S. Spicher and S. Grimme, Angew. Chem. Int. Ed., 2020, 59, 15665-15673.
     DOI: 10.1002/anie.202004239
   
   for ALPB and GBSA implicit solvation:
   * S. Ehlert, M. Stahn, S. Spicher, S. Grimme, J. Chem. Theory Comput.,
     2021, 17, 4250-4261. DOI: 10.1021/acs.jctc.1c00471
   
   for ddCOSMO and CPCM-X implicit solvation:
   * M. Stahn, S. Ehlert, S. Grimme, J. Phys. Chem. A,
     2023, XX, XXXX-XXXX. DOI: 10.1021/acs.jpca.3c04382
   
   for DFT-D4:
   * E. Caldeweyher, C. Bannwarth and S. Grimme, J. Chem. Phys., 2017,
     147, 034112. DOI: 10.1063/1.4993215
   * E. Caldeweyher, S. Ehlert, A. Hansen, H. Neugebauer, S. Spicher,
     C. Bannwarth and S. Grimme, J. Chem. Phys., 2019, 150, 154122.
     DOI: 10.1063/1.5090222
   * E. Caldeweyher, J.-M. Mewes, S. Ehlert and S. Grimme, Phys. Chem. Chem. Phys.
     2020, 22, 8499-8512. DOI: 10.1039/D0CP00502A
   
   for sTDA-xTB:
   * S. Grimme and C. Bannwarth, J. Chem. Phys., 2016, 145, 054103.
     DOI: 10.1063/1.4959605
   
   in the mass-spec context:
   * V. Asgeirsson, C. Bauer and S. Grimme, Chem. Sci., 2017, 8, 4879.
     DOI: 10.1039/c7sc00601b
   * J. Koopman and S. Grimme, ACS Omega 2019, 4, 12, 15120-15133.
     DOI: 10.1021/acsomega.9b02011
   
   for metadynamics refer to:
   * S. Grimme, J. Chem. Theory Comput., 2019, 155, 2847-2862
     DOI: 10.1021/acs.jctc.9b00143
   
   for SPH calculations refer to:
   * S. Spicher and S. Grimme, J. Chem. Theory Comput., 2021, 17, 1701-1714
     DOI: 10.1021/acs.jctc.0c01306
   
   for ONIOM refer to:
   * C. Plett, A. Katbashev, S. Ehlert, S. Grimme, M. Bursch,
     Phys. Chem. Chem. Phys., 2023, 25, 17860-17868. DOI: 10.1039/D3CP02178E
   
   for DIPRO refer to:
   * J. Kohn, N. Gildemeister, S. Grimme, D. Fazzi, A. Hansen,
     J. Chem. Phys., 2023, just accepted.
   
   for PTB refer to:
   * S. Grimme, M. Mueller, A. Hansen, J. Chem. Phys., 2023, 158, 124111.
     DOI: 10.1063/5.0137838
   
   with help from (in alphabetical order)
   P. Atkinson, C. Bannwarth, F. Bohle, G. Brandenburg, E. Caldeweyher
   M. Checinski, S. Dohm, S. Ehlert, S. Ehrlich, I. Gerasimov, C. Hölzer
   A. Katbashev, J. Kohn, J. Koopman, C. Lavigne, S. Lehtola, F. März, M. Müller,
   F. Musil, H. Neugebauer, J. Pisarek, C. Plett, P. Pracht, F. Pultar,
   J. Seibert, P. Shushkov, S. Spicher, M. Stahn, M. Steiner, T. Strunk,
   J. Stückrath, T. Rose, and J. Unsleber
   
 * started run on 2025/12/01 at 14:19:41.456     
   ID    Z sym.   atoms
    1    6 C      1-3, 6-16, 18, 20-22
    2    8 O      4, 5, 17, 19
    3    1 H      23-46

           -------------------------------------------------
          |                Calculation Setup                |
           -------------------------------------------------

          program call               : xtb pipeline_data/3_conformer_xyz/acrylates/rdkit/VEBCLRKUSAGCDF-RWLZTCESSA-N_conf75.xyz --opt --gfn 2-xTB --iterations 250
          coordinate file            : pipeline_data/3_conformer_xyz/acrylates/rdkit/VEBCLRKUSAGCDF-RWLZTCESSA-N_conf75.xyz
          omp threads                :                    24

########################################################################
[WARNING] Please study the warnings concerning your input carefully
-1- readin_getIntValue: could not parse '2-xTB'
########################################################################

           -------------------------------------------------
          |                 G F N 2 - x T B                 |
           -------------------------------------------------

        Reference                      10.1021/acs.jctc.8b01176
      * Hamiltonian:
        H0-scaling (s, p, d)           1.850000    2.230000    2.230000
        zeta-weighting                 0.500000
      * Dispersion:
        s8                             2.700000
        a1                             0.520000
        a2                             5.000000
        s9                             5.000000
      * Repulsion:
        kExp                           1.500000    1.000000
        rExp                           1.000000
      * Coulomb:
        alpha                          2.000000
        third order                    shell-resolved
        anisotropic                    true
        a3                             3.000000
        a5                             4.000000
        cn-shift                       1.200000
        cn-exp                         4.000000
        max-rad                        5.000000

q/qsh data taken from xtbrestart
CAMM data taken from xtbrestart

          ...................................................
          :                      SETUP                      :
          :.................................................:
          :  # basis functions                 112          :
          :  # atomic orbitals                 112          :
          :  # shells                           68          :
          :  # electrons                       120          :
          :  max. iterations                   250          :
          :  Hamiltonian                  GFN2-xTB          :
          :  restarted?                       true          :
          :  GBSA solvation                  false          :
          :  PC potential                    false          :
          :  electronic temp.          300.0000000     K    :
          :  accuracy                    1.0000000          :
          :  -> integral cutoff          0.2500000E+02      :
          :  -> integral neglect         0.1000000E-07      :
          :  -> SCF convergence          0.1000000E-05 Eh   :
          :  -> wf. convergence          0.1000000E-03 e    :
          :  Broyden damping             0.4000000          :
          :  net charge                          0          :
          :  unpaired electrons                  0          :
          ...................................................

 iter      E             dE          RMSdq      gap      omega  full diag
   1    -67.8237668 -0.678238E+02  0.449E+00    3.16       0.0  T
   2    -67.8304646 -0.669785E-02  0.264E+00    3.20       1.0  T
   3    -67.8254372  0.502742E-02  0.473E-01    3.44       1.0  T
   4    -67.8326429 -0.720570E-02  0.159E-01    3.34       1.0  T
   5    -67.8330411 -0.398181E-03  0.710E-02    3.35       1.0  T
   6    -67.8330527 -0.116022E-04  0.152E-02    3.36       1.0  T
   7    -67.8330551 -0.243529E-05  0.785E-03    3.36       1.9  T
   8    -67.8330553 -0.116405E-06  0.479E-03    3.36       3.1  T
   9    -67.8330558 -0.518196E-06  0.166E-03    3.36       8.9  T
  10    -67.8330558 -0.289696E-07  0.808E-04    3.36      18.2  T
  11    -67.8330558 -0.693355E-08  0.233E-04    3.36      63.2  T

   *** convergence criteria satisfied after 11 iterations ***

         #    Occupation            Energy/Eh            Energy/eV
      -------------------------------------------------------------
         1        2.0000           -0.7316282             -19.9086
       ...           ...                  ...                  ...
        54        2.0000           -0.4322600             -11.7624
        55        2.0000           -0.4278314             -11.6419
        56        2.0000           -0.4250874             -11.5672
        57        2.0000           -0.4189285             -11.3996
        58        2.0000           -0.4159136             -11.3176
        59        2.0000           -0.4146838             -11.2841
        60        2.0000           -0.4116820             -11.2024 (HOMO)
        61                         -0.2883054              -7.8452 (LUMO)
        62                         -0.2861719              -7.7871
        63                         -0.1764066              -4.8003
        64                         -0.1744852              -4.7480
        65                         -0.0349937              -0.9522
       ...                                ...                  ...
       112                          0.6281022              17.0915
      -------------------------------------------------------------
                  HL-Gap            0.1233766 Eh            3.3572 eV
             Fermi-level           -0.3499937 Eh           -9.5238 eV

 SCC (total)                   0 d,  0 h,  0 min,  0.050 sec
 SCC setup                      ...        0 min,  0.000 sec (  0.663%)
 Dispersion                     ...        0 min,  0.001 sec (  1.562%)
 classical contributions        ...        0 min,  0.000 sec (  0.580%)
 integral evaluation            ...        0 min,  0.003 sec (  5.976%)
 iterations                     ...        0 min,  0.041 sec ( 80.564%)
 molecular gradient             ...        0 min,  0.005 sec ( 10.097%)
 printout                       ...        0 min,  0.000 sec (  0.487%)

         :::::::::::::::::::::::::::::::::::::::::::::::::::::
         ::                     SUMMARY                     ::
         :::::::::::::::::::::::::::::::::::::::::::::::::::::
         :: total energy             -67.009989402861 Eh    ::
         :: gradient norm              0.200106915973 Eh/a0 ::
         :: HOMO-LUMO gap              3.357248085347 eV    ::
         ::.................................................::
         :: SCC energy               -67.833055855568 Eh    ::
         :: -> isotropic ES            0.096977166952 Eh    ::
         :: -> anisotropic ES          0.001943208079 Eh    ::
         :: -> anisotropic XC          0.023204963604 Eh    ::
         :: -> dispersion             -0.043633619805 Eh    ::
         :: repulsion energy           0.823066452708 Eh    ::
         :: add. restraining           0.000000000000 Eh    ::
         :: total charge              -0.000000000000 e     ::
         :::::::::::::::::::::::::::::::::::::::::::::::::::::

      ----------------------------------------------------------- 
     |                   =====================                   |
     |                        A N C O P T                        |
     |                   =====================                   |
     |               Approximate Normal Coordinate               |
     |                Rational Function Optimizer                |
      ----------------------------------------------------------- 
      ----------------------------------------------------------- 
     |                   =====================                   |
     |                        A N C O P T                        |
     |                   =====================                   |
     |               Approximate Normal Coordinate               |
     |                Rational Function Optimizer                |
      ----------------------------------------------------------- 

          ...................................................
          :                      SETUP                      :
          :.................................................:
          :   optimization level            normal          :
          :   max. optcycles                   200          :
          :   ANC micro-cycles                  20          :
          :   degrees of freedom               132          :
          :.................................................:
          :   RF solver                   davidson          :
          :   write xtbopt.log                true          :
          :   linear?                        false          :
          :   energy convergence         0.5000000E-05 Eh   :
          :   grad. convergence          0.1000000E-02 Eh/α :
          :   maxmium RF displ.          1.0000000          :
          :   Hlow (freq-cutoff)         0.1000000E-01      :
          :   Hmax (freq-cutoff)         5.0000000          :
          :   S6 in model hess.         20.0000000          :
          ...................................................

generating ANC from exact Hessian ...
Using Lindh-Hessian (1995)
 Shifting diagonal of input Hessian by   9.768912442370409E-003
 Lowest  eigenvalues of input Hessian
    0.000000    0.000000    0.000000    0.000000    0.000000    0.000000
    0.010000    0.010221    0.010468    0.010723    0.011305    0.011393
    0.012827    0.013713    0.015217    0.015860    0.017034    0.017899
 Highest eigenvalues
    1.707044    1.742832    1.948897    2.002499    2.068456    2.134636
 

........................................................................
.............................. CYCLE    1 ..............................
........................................................................

 iter      E             dE          RMSdq      gap      omega  full diag
   1    -67.8330558 -0.678331E+02  0.110E-04    3.36       0.0  T
   2    -67.8330558 -0.341913E-10  0.671E-05    3.36     219.8  T
   3    -67.8330558  0.193410E-10  0.401E-05    3.36     368.0  T
     SCC iter.                  ...        0 min,  0.014 sec
     gradient                   ...        0 min,  0.005 sec
 * total energy  :   -67.0099894 Eh     change       -0.5712195E-09 Eh
   gradient norm :     0.2001085 Eh/α   predicted     0.0000000E+00 (-100.00%)
   displ. norm   :     0.4054939 α      lambda       -0.4715949E-01
   maximum displ.:     0.1596856 α      in ANC's #51, #27, #26, ...

........................................................................
.............................. CYCLE    2 ..............................
........................................................................

 iter      E             dE          RMSdq      gap      omega  full diag
   1    -67.8749893 -0.678750E+02  0.260E-01    3.53       0.0  T
   2    -67.8754847 -0.495364E-03  0.166E-01    3.59       1.0  T
   3    -67.8754242  0.605300E-04  0.954E-02    3.60       1.0  T
   4    -67.8755574 -0.133220E-03  0.377E-02    3.61       1.0  T
   5    -67.8756008 -0.433614E-04  0.803E-03    3.60       1.8  T
   6    -67.8756017 -0.992446E-06  0.431E-03    3.61       3.4  T
   7    -67.8756018 -0.834027E-07  0.128E-03    3.61      11.5  T
   8    -67.8756018 -0.555424E-08  0.602E-04    3.61      24.5  T
   9    -67.8756018 -0.171494E-08  0.289E-04    3.61      51.1  T
     SCC iter.                  ...        0 min,  0.023 sec
     gradient                   ...        0 min,  0.006 sec
 * total energy  :   -67.0430998 Eh     change       -0.3311042E-01 Eh
   gradient norm :     0.0796486 Eh/α   predicted    -0.2747788E-01 ( -17.01%)
   displ. norm   :     0.4115431 α      lambda       -0.1568490E-01
   maximum displ.:     0.1786447 α      in ANC's #27, #26, #10, ...

........................................................................
.............................. CYCLE    3 ..............................
........................................................................

 iter      E             dE          RMSdq      gap      omega  full diag
   1    -67.8961485 -0.678961E+02  0.170E-01    3.67       0.0  T
   2    -67.8963678 -0.219316E-03  0.107E-01    3.73       1.0  T
   3    -67.8963348  0.329603E-04  0.629E-02    3.73       1.0  T
   4    -67.8963960 -0.612130E-04  0.254E-02    3.74       1.0  T
   5    -67.8964144 -0.183691E-04  0.484E-03    3.74       3.0  T
   6    -67.8964148 -0.356546E-06  0.233E-03    3.74       6.3  T
   7    -67.8964148 -0.299803E-07  0.675E-04    3.74      21.9  T
   8    -67.8964148 -0.106840E-08  0.349E-04    3.74      42.3  T
     SCC iter.                  ...        0 min,  0.020 sec
     gradient                   ...        0 min,  0.005 sec
 * total energy  :   -67.0527950 Eh     change       -0.9695180E-02 Eh
   gradient norm :     0.0214656 Eh/α   predicted    -0.9170709E-02 (  -5.41%)
   displ. norm   :     0.3750459 α      lambda       -0.3808862E-02
   maximum displ.:     0.1696992 α      in ANC's #10, #9, #11, ...

........................................................................
.............................. CYCLE    4 ..............................
........................................................................

 iter      E             dE          RMSdq      gap      omega  full diag
   1    -67.8955842 -0.678956E+02  0.903E-02    3.75       0.0  T
   2    -67.8955949 -0.107373E-04  0.540E-02    3.76       1.0  T
   3    -67.8955746  0.203119E-04  0.276E-02    3.75       1.0  T
   4    -67.8955983 -0.236956E-04  0.607E-03    3.75       2.4  T
   5    -67.8955994 -0.110939E-05  0.161E-03    3.75       9.2  T
   6    -67.8955994 -0.193398E-07  0.813E-04    3.75      18.1  T
   7    -67.8955994 -0.315887E-08  0.230E-04    3.75      64.2  T
     SCC iter.                  ...        0 min,  0.017 sec
     gradient                   ...        0 min,  0.006 sec
 * total energy  :   -67.0555371 Eh     change       -0.2742094E-02 Eh
   gradient norm :     0.0144962 Eh/α   predicted    -0.2172341E-02 ( -20.78%)
   displ. norm   :     0.4248676 α      lambda       -0.2258916E-02
   maximum displ.:     0.2243425 α      in ANC's #10, #9, #11, ...

........................................................................
.............................. CYCLE    5 ..............................
........................................................................

 iter      E             dE          RMSdq      gap      omega  full diag
   1    -67.8959530 -0.678960E+02  0.852E-02    3.74       0.0  T
   2    -67.8959570 -0.401825E-05  0.504E-02    3.75       1.0  T
   3    -67.8959439  0.130314E-04  0.206E-02    3.75       1.0  T
   4    -67.8959587 -0.147791E-04  0.429E-03    3.75       3.4  T
   5    -67.8959592 -0.517680E-06  0.137E-03    3.75      10.8  T
   6    -67.8959593 -0.645797E-08  0.533E-04    3.75      27.7  T
   7    -67.8959593 -0.211506E-08  0.187E-04    3.75      79.0  T
     SCC iter.                  ...        0 min,  0.017 sec
     gradient                   ...        0 min,  0.006 sec
 * total energy  :   -67.0570980 Eh     change       -0.1560877E-02 Eh
   gradient norm :     0.0114749 Eh/α   predicted    -0.1333348E-02 ( -14.58%)
   displ. norm   :     0.3614770 α      lambda       -0.1158030E-02
   maximum displ.:     0.2053829 α      in ANC's #10, #9, #11, ...

........................................................................
.............................. CYCLE    6 ..............................
........................................................................

 iter      E             dE          RMSdq      gap      omega  full diag
   1    -67.8985147 -0.678985E+02  0.675E-02    3.73       0.0  T
   2    -67.8985174 -0.270916E-05  0.400E-02    3.74       1.0  T
   3    -67.8985133  0.416264E-05  0.120E-02    3.73       1.2  T
   4    -67.8985178 -0.458831E-05  0.364E-03    3.74       4.1  T
   5    -67.8985182 -0.396255E-06  0.104E-03    3.74      14.1  T
   6    -67.8985182 -0.364767E-08  0.522E-04    3.74      28.2  T
   7    -67.8985182 -0.218266E-08  0.109E-04    3.74     135.4  T
     SCC iter.                  ...        0 min,  0.018 sec
     gradient                   ...        0 min,  0.005 sec
 * total energy  :   -67.0578182 Eh     change       -0.7201908E-03 Eh
   gradient norm :     0.0090459 Eh/α   predicted    -0.6546736E-03 (  -9.10%)
   displ. norm   :     0.2826210 α      lambda       -0.6374280E-03
   maximum displ.:     0.1615419 α      in ANC's #10, #9, #11, ...

........................................................................
.............................. CYCLE    7 ..............................
........................................................................

 iter      E             dE          RMSdq      gap      omega  full diag
   1    -67.9019391 -0.679019E+02  0.549E-02    3.73       0.0  T
   2    -67.9019416 -0.250343E-05  0.326E-02    3.73       1.0  T
   3    -67.9019401  0.152208E-05  0.806E-03    3.73       1.8  T
   4    -67.9019417 -0.158113E-05  0.336E-03    3.73       4.4  T
   5    -67.9019421 -0.357170E-06  0.827E-04    3.73      17.8  T
   6    -67.9019421 -0.187893E-08  0.466E-04    3.73      31.7  T
     SCC iter.                  ...        0 min,  0.015 sec
     gradient                   ...        0 min,  0.005 sec
 * total energy  :   -67.0581838 Eh     change       -0.3655987E-03 Eh
   gradient norm :     0.0067232 Eh/α   predicted    -0.3441746E-03 (  -5.86%)
   displ. norm   :     0.1850169 α      lambda       -0.2754301E-03
   maximum displ.:     0.0973584 α      in ANC's #9, #10, #4, ...

........................................................................
.............................. CYCLE    8 ..............................
........................................................................

 iter      E             dE          RMSdq      gap      omega  full diag
   1    -67.9042177 -0.679042E+02  0.310E-02    3.72       0.0  T
   2    -67.9042192 -0.144457E-05  0.182E-02    3.73       1.0  T
   3    -67.9042184  0.729887E-06  0.601E-03    3.72       2.5  T
   4    -67.9042192 -0.709487E-06  0.240E-03    3.73       6.1  T
   5    -67.9042194 -0.204853E-06  0.434E-04    3.73      34.0  T
   6    -67.9042194 -0.101295E-08  0.245E-04    3.73      60.2  T
     SCC iter.                  ...        0 min,  0.020 sec
     gradient                   ...        0 min,  0.007 sec
 * total energy  :   -67.0583964 Eh     change       -0.2126035E-03 Eh
   gradient norm :     0.0046264 Eh/α   predicted    -0.1424299E-03 ( -33.01%)
   displ. norm   :     0.3329913 α      lambda       -0.3921389E-03
   maximum displ.:     0.1572543 α      in ANC's #4, #9, #10, ...

........................................................................
.............................. CYCLE    9 ..............................
........................................................................

 iter      E             dE          RMSdq      gap      omega  full diag
   1    -67.9050267 -0.679050E+02  0.524E-02    3.72       0.0  T
   2    -67.9050292 -0.244884E-05  0.308E-02    3.72       1.0  T
   3    -67.9050270  0.217104E-05  0.937E-03    3.72       1.6  T
   4    -67.9050293 -0.227138E-05  0.312E-03    3.72       4.7  T
   5    -67.9050296 -0.342479E-06  0.673E-04    3.72      21.9  T
   6    -67.9050296 -0.231591E-08  0.345E-04    3.72      42.8  T
     SCC iter.                  ...        0 min,  0.023 sec
     gradient                   ...        0 min,  0.005 sec
 * total energy  :   -67.0586854 Eh     change       -0.2890373E-03 Eh
   gradient norm :     0.0056538 Eh/α   predicted    -0.2178143E-03 ( -24.64%)
   displ. norm   :     0.4055403 α      lambda       -0.4020313E-03
   maximum displ.:     0.2021630 α      in ANC's #4, #9, #10, ...

........................................................................
.............................. CYCLE   10 ..............................
........................................................................

 iter      E             dE          RMSdq      gap      omega  full diag
   1    -67.9040902 -0.679041E+02  0.644E-02    3.71       0.0  T
   2    -67.9040922 -0.202870E-05  0.379E-02    3.71       1.0  T
   3    -67.9040896  0.255558E-05  0.956E-03    3.71       1.5  T
   4    -67.9040924 -0.278401E-05  0.277E-03    3.71       5.3  T
   5    -67.9040927 -0.254665E-06  0.780E-04    3.71      18.9  T
   6    -67.9040927 -0.217621E-08  0.315E-04    3.71      46.8  T
     SCC iter.                  ...        0 min,  0.013 sec
     gradient                   ...        0 min,  0.006 sec
 * total energy  :   -67.0589703 Eh     change       -0.2848554E-03 Eh
   gradient norm :     0.0090129 Eh/α   predicted    -0.2340846E-03 ( -17.82%)
   displ. norm   :     0.3827856 α      lambda       -0.3874996E-03
   maximum displ.:     0.2016517 α      in ANC's #4, #14, #9, ...

........................................................................
.............................. CYCLE   11 ..............................
........................................................................

 iter      E             dE          RMSdq      gap      omega  full diag
   1    -67.9033155 -0.679033E+02  0.598E-02    3.71       0.0  T
   2    -67.9033160 -0.559273E-06  0.355E-02    3.71       1.0  T
   3    -67.9033143  0.169290E-05  0.720E-03    3.71       2.0  T
   4    -67.9033163 -0.196622E-05  0.131E-03    3.71      11.3  T
   5    -67.9033163 -0.279179E-07  0.627E-04    3.71      23.5  T
   6    -67.9033163 -0.134463E-08  0.150E-04    3.71      98.0  T
     SCC iter.                  ...        0 min,  0.013 sec
     gradient                   ...        0 min,  0.006 sec
 * total energy  :   -67.0592555 Eh     change       -0.2852196E-03 Eh
   gradient norm :     0.0096093 Eh/α   predicted    -0.2221400E-03 ( -22.12%)
   displ. norm   :     0.3189927 α      lambda       -0.4217874E-03
   maximum displ.:     0.1794570 α      in ANC's #4, #14, #12, ...

........................................................................
.............................. CYCLE   12 ..............................
........................................................................

 iter      E             dE          RMSdq      gap      omega  full diag
   1    -67.9045041 -0.679045E+02  0.528E-02    3.71       0.0  T
   2    -67.9045054 -0.129885E-05  0.314E-02    3.71       1.0  T
   3    -67.9045048  0.617506E-06  0.489E-03    3.71       3.0  T
   4    -67.9045055 -0.718231E-06  0.207E-03    3.71       7.1  T
   5    -67.9045057 -0.144945E-06  0.702E-04    3.71      21.0  T
   6    -67.9045057 -0.347713E-08  0.307E-04    3.71      48.1  T
     SCC iter.                  ...        0 min,  0.013 sec
     gradient                   ...        0 min,  0.006 sec
 * total energy  :   -67.0595537 Eh     change       -0.2981891E-03 Eh
   gradient norm :     0.0065620 Eh/α   predicted    -0.2323550E-03 ( -22.08%)
   displ. norm   :     0.2777914 α      lambda       -0.2439293E-03
   maximum displ.:     0.1609772 α      in ANC's #4, #12, #14, ...

........................................................................
.............................. CYCLE   13 ..............................
........................................................................

 iter      E             dE          RMSdq      gap      omega  full diag
   1    -67.9040470 -0.679040E+02  0.444E-02    3.72       0.0  T
   2    -67.9040480 -0.103928E-05  0.263E-02    3.72       1.0  T
   3    -67.9040480  0.613636E-07  0.293E-03    3.72       5.0  T
   4    -67.9040482 -0.198899E-06  0.863E-04    3.72      17.1  T
   5    -67.9040482 -0.765124E-08  0.589E-04    3.72      25.0  T
     SCC iter.                  ...        0 min,  0.011 sec
     gradient                   ...        0 min,  0.006 sec
 * total energy  :   -67.0597215 Eh     change       -0.1678245E-03 Eh
   gradient norm :     0.0044991 Eh/α   predicted    -0.1313776E-03 ( -21.72%)
   displ. norm   :     0.1863240 α      lambda       -0.1527306E-03
   maximum displ.:     0.1080231 α      in ANC's #4, #12, #7, ...

........................................................................
.............................. CYCLE   14 ..............................
........................................................................

 iter      E             dE          RMSdq      gap      omega  full diag
   1    -67.9069097 -0.679069E+02  0.306E-02    3.72       0.0  T
   2    -67.9069103 -0.597429E-06  0.179E-02    3.72       1.0  T
   3    -67.9069101  0.152496E-06  0.314E-03    3.72       4.7  T
   4    -67.9069104 -0.232174E-06  0.124E-03    3.72      11.9  T
   5    -67.9069104 -0.423380E-07  0.543E-04    3.72      27.1  T
   6    -67.9069104 -0.295069E-08  0.195E-04    3.72      75.8  T
     SCC iter.                  ...        0 min,  0.015 sec
     gradient                   ...        0 min,  0.006 sec
 * total energy  :   -67.0598172 Eh     change       -0.9572053E-04 Eh
   gradient norm :     0.0043226 Eh/α   predicted    -0.7901967E-04 ( -17.45%)
   displ. norm   :     0.2532832 α      lambda       -0.1145406E-03
   maximum displ.:     0.1450950 α      in ANC's #4, #9, #12, ...

........................................................................
.............................. CYCLE   15 ..............................
........................................................................

 iter      E             dE          RMSdq      gap      omega  full diag
   1    -67.9050476 -0.679050E+02  0.390E-02    3.72       0.0  T
   2    -67.9050483 -0.655614E-06  0.229E-02    3.72       1.0  T
   3    -67.9050482  0.105555E-06  0.266E-03    3.72       5.6  T
   4    -67.9050483 -0.167551E-06  0.131E-03    3.72      11.2  T
   5    -67.9050484 -0.530130E-07  0.528E-04    3.72      27.9  T
   6    -67.9050484 -0.165790E-08  0.170E-04    3.72      86.8  T
     SCC iter.                  ...        0 min,  0.013 sec
     gradient                   ...        0 min,  0.006 sec
 * total energy  :   -67.0598806 Eh     change       -0.6336353E-04 Eh
   gradient norm :     0.0039176 Eh/α   predicted    -0.6094724E-04 (  -3.81%)
   displ. norm   :     0.1134643 α      lambda       -0.8817163E-04
   maximum displ.:     0.0588271 α      in ANC's #3, #4, #5, ...

........................................................................
.............................. CYCLE   16 ..............................
........................................................................

 iter      E             dE          RMSdq      gap      omega  full diag
   1    -67.9066540 -0.679067E+02  0.268E-02    3.72       0.0  T
   2    -67.9066545 -0.409756E-06  0.157E-02    3.72       1.0  T
   3    -67.9066542  0.264072E-06  0.311E-03    3.72       4.7  T
   4    -67.9066545 -0.304184E-06  0.117E-03    3.72      12.7  T
   5    -67.9066545 -0.437906E-07  0.380E-04    3.72      38.8  T
   6    -67.9066545 -0.408846E-09  0.153E-04    3.72      96.2  T
     SCC iter.                  ...        0 min,  0.013 sec
     gradient                   ...        0 min,  0.006 sec
 * total energy  :   -67.0599353 Eh     change       -0.5470165E-04 Eh
   gradient norm :     0.0035073 Eh/α   predicted    -0.4465826E-04 ( -18.36%)
   displ. norm   :     0.1232183 α      lambda       -0.6469621E-04
   maximum displ.:     0.0699648 α      in ANC's #3, #4, #5, ...

........................................................................
.............................. CYCLE   17 ..............................
........................................................................

 iter      E             dE          RMSdq      gap      omega  full diag
   1    -67.9073685 -0.679074E+02  0.276E-02    3.72       0.0  T
   2    -67.9073686 -0.157858E-06  0.163E-02    3.72       1.0  T
   3    -67.9073684  0.267034E-06  0.284E-03    3.72       5.2  T
   4    -67.9073687 -0.324029E-06  0.810E-04    3.72      18.2  T
   5    -67.9073687 -0.150156E-07  0.349E-04    3.72      42.2  T
     SCC iter.                  ...        0 min,  0.011 sec
     gradient                   ...        0 min,  0.015 sec
 * total energy  :   -67.0599825 Eh     change       -0.4718697E-04 Eh
   gradient norm :     0.0029942 Eh/α   predicted    -0.3284349E-04 ( -30.40%)
   displ. norm   :     0.1566958 α      lambda       -0.6782231E-04
   maximum displ.:     0.0870536 α      in ANC's #3, #5, #4, ...

........................................................................
.............................. CYCLE   18 ..............................
........................................................................

 iter      E             dE          RMSdq      gap      omega  full diag
   1    -67.9065796 -0.679066E+02  0.405E-02    3.72       0.0  T
   2    -67.9065798 -0.220182E-06  0.239E-02    3.72       1.0  T
   3    -67.9065796  0.209080E-06  0.280E-03    3.72       5.3  T
   4    -67.9065799 -0.298732E-06  0.960E-04    3.72      15.4  T
   5    -67.9065799 -0.179673E-07  0.450E-04    3.72      32.8  T
     SCC iter.                  ...        0 min,  0.022 sec
     gradient                   ...        0 min,  0.007 sec
 * total energy  :   -67.0600354 Eh     change       -0.5294744E-04 Eh
   gradient norm :     0.0030981 Eh/α   predicted    -0.3474492E-04 ( -34.38%)
   displ. norm   :     0.2052024 α      lambda       -0.7682081E-04
   maximum displ.:     0.1149747 α      in ANC's #3, #5, #4, ...

........................................................................
.............................. CYCLE   19 ..............................
........................................................................

 iter      E             dE          RMSdq      gap      omega  full diag
   1    -67.9057548 -0.679058E+02  0.543E-02    3.72       0.0  T
   2    -67.9057552 -0.449222E-06  0.320E-02    3.72       1.0  T
   3    -67.9057549  0.318882E-06  0.362E-03    3.72       4.1  T
   4    -67.9057554 -0.446087E-06  0.134E-03    3.72      11.0  T
   5    -67.9057554 -0.447885E-07  0.566E-04    3.72      26.0  T
   6    -67.9057554 -0.755321E-09  0.149E-04    3.72      99.0  T
     SCC iter.                  ...        0 min,  0.016 sec
     gradient                   ...        0 min,  0.006 sec
 * total energy  :   -67.0600962 Eh     change       -0.6082457E-04 Eh
   gradient norm :     0.0038785 Eh/α   predicted    -0.4002859E-04 ( -34.19%)
   displ. norm   :     0.2704940 α      lambda       -0.8734256E-04
   maximum displ.:     0.1460517 α      in ANC's #3, #5, #4, ...

........................................................................
.............................. CYCLE   20 ..............................
........................................................................

 iter      E             dE          RMSdq      gap      omega  full diag
   1    -67.9043045 -0.679043E+02  0.698E-02    3.71       0.0  T
   2    -67.9043051 -0.628446E-06  0.411E-02    3.71       1.0  T
   3    -67.9043047  0.466997E-06  0.448E-03    3.71       3.3  T
   4    -67.9043054 -0.684831E-06  0.155E-03    3.71       9.5  T
   5    -67.9043054 -0.529495E-07  0.706E-04    3.71      20.9  T
   6    -67.9043054 -0.134349E-08  0.164E-04    3.71      89.9  T
     SCC iter.                  ...        0 min,  0.017 sec
     gradient                   ...        0 min,  0.006 sec
 * total energy  :   -67.0601637 Eh     change       -0.6743619E-04 Eh
   gradient norm :     0.0045065 Eh/α   predicted    -0.4686821E-04 ( -30.50%)
   displ. norm   :     0.3287101 α      lambda       -0.9259461E-04
   maximum displ.:     0.1762119 α      in ANC's #3, #5, #4, ...
 * RMSD in coord.:     0.5596533 α      energy gain  -0.5017427E-01 Eh

generating ANC from exact Hessian ...
Using Lindh-Hessian (1995)
 Shifting diagonal of input Hessian by   9.796741152772874E-003
 Lowest  eigenvalues of input Hessian
    0.000000    0.000000    0.000000    0.000000    0.000000    0.000000
    0.010000    0.010258    0.010465    0.010682    0.011367    0.011649
    0.012499    0.013382    0.014479    0.015542    0.016385    0.017559
 Highest eigenvalues
    1.756937    1.758746    2.024573    2.027731    2.391641    2.391868
 

........................................................................
.............................. CYCLE   21 ..............................
........................................................................

 iter      E             dE          RMSdq      gap      omega  full diag
   1    -67.9036580 -0.679037E+02  0.823E-02    3.71       0.0  T
   2    -67.9036588 -0.750107E-06  0.485E-02    3.71       1.0  T
   3    -67.9036582  0.644653E-06  0.526E-03    3.71       2.8  T
   4    -67.9036591 -0.970091E-06  0.165E-03    3.71       8.9  T
   5    -67.9036592 -0.468200E-07  0.814E-04    3.71      18.1  T
   6    -67.9036592 -0.236207E-08  0.196E-04    3.71      75.1  T
     SCC iter.                  ...        0 min,  0.015 sec
     gradient                   ...        0 min,  0.007 sec
 * total energy  :   -67.0602296 Eh     change       -0.6590154E-04 Eh
   gradient norm :     0.0042693 Eh/α   predicted     0.0000000E+00 (-100.00%)
   displ. norm   :     0.0290759 α      lambda       -0.4073371E-04
   maximum displ.:     0.0124102 α      in ANC's #10, #7, #11, ...

........................................................................
.............................. CYCLE   22 ..............................
........................................................................

 iter      E             dE          RMSdq      gap      omega  full diag
   1    -67.9059162 -0.679059E+02  0.106E-02    3.71       0.0  T
   2    -67.9059163 -0.169334E-06  0.622E-03    3.71       2.4  T
   3    -67.9059163  0.518585E-07  0.161E-03    3.71       9.2  T
   4    -67.9059163 -0.561350E-07  0.711E-04    3.71      20.7  T
   5    -67.9059163 -0.171958E-07  0.182E-04    3.71      80.8  T
     SCC iter.                  ...        0 min,  0.014 sec
     gradient                   ...        0 min,  0.007 sec
 * total energy  :   -67.0602587 Eh     change       -0.2908784E-04 Eh
   gradient norm :     0.0018316 Eh/α   predicted    -0.2084243E-04 ( -28.35%)
   displ. norm   :     0.0707222 α      lambda       -0.2542688E-04
   maximum displ.:     0.0341643 α      in ANC's #7, #10, #11, ...

........................................................................
.............................. CYCLE   23 ..............................
........................................................................

 iter      E             dE          RMSdq      gap      omega  full diag
   1    -67.9080698 -0.679081E+02  0.211E-02    3.72       0.0  T
   2    -67.9080701 -0.282609E-06  0.124E-02    3.72       1.2  T
   3    -67.9080699  0.183847E-06  0.257E-03    3.72       5.7  T
   4    -67.9080701 -0.205394E-06  0.101E-03    3.72      14.7  T
   5    -67.9080701 -0.328646E-07  0.290E-04    3.72      50.8  T
   6    -67.9080701 -0.415397E-09  0.146E-04    3.72     100.9  T
     SCC iter.                  ...        0 min,  0.018 sec
     gradient                   ...        0 min,  0.007 sec
 * total energy  :   -67.0602734 Eh     change       -0.1477252E-04 Eh
   gradient norm :     0.0020971 Eh/α   predicted    -0.1274333E-04 ( -13.74%)
   displ. norm   :     0.0320404 α      lambda       -0.1457209E-04
   maximum displ.:     0.0174168 α      in ANC's #7, #11, #3, ...

........................................................................
.............................. CYCLE   24 ..............................
........................................................................

 iter      E             dE          RMSdq      gap      omega  full diag
   1    -67.9076353 -0.679076E+02  0.109E-02    3.72       0.0  T
   2    -67.9076354 -0.276936E-07  0.650E-03    3.72       2.3  T
   3    -67.9076354 -0.562537E-09  0.503E-04    3.72      29.3  T
   4    -67.9076354 -0.487783E-08  0.275E-04    3.72      53.6  T
     SCC iter.                  ...        0 min,  0.012 sec
     gradient                   ...        0 min,  0.004 sec
 * total energy  :   -67.0602831 Eh     change       -0.9691796E-05 Eh
   gradient norm :     0.0017200 Eh/α   predicted    -0.7293802E-05 ( -24.74%)
   displ. norm   :     0.0816901 α      lambda       -0.1671662E-04
   maximum displ.:     0.0472618 α      in ANC's #7, #3, #11, ...

........................................................................
.............................. CYCLE   25 ..............................
........................................................................

 iter      E             dE          RMSdq      gap      omega  full diag
   1    -67.9058059 -0.679058E+02  0.236E-02    3.72       0.0  T
   2    -67.9058061 -0.158103E-06  0.139E-02    3.72       1.1  T
   3    -67.9058061 -0.534030E-09  0.110E-03    3.72      13.4  T
   4    -67.9058061 -0.252677E-07  0.588E-04    3.72      25.1  T
   5    -67.9058061 -0.778823E-08  0.285E-04    3.72      51.7  T
     SCC iter.                  ...        0 min,  0.013 sec
     gradient                   ...        0 min,  0.006 sec
 * total energy  :   -67.0602990 Eh     change       -0.1583742E-04 Eh
   gradient norm :     0.0013758 Eh/α   predicted    -0.8389075E-05 ( -47.03%)
   displ. norm   :     0.0869720 α      lambda       -0.1131587E-04
   maximum displ.:     0.0509410 α      in ANC's #7, #3, #11, ...

........................................................................
.............................. CYCLE   26 ..............................
........................................................................

 iter      E             dE          RMSdq      gap      omega  full diag
   1    -67.9054490 -0.679054E+02  0.249E-02    3.72       0.0  T
   2    -67.9054491 -0.869361E-07  0.147E-02    3.72       1.0  T
   3    -67.9054491  0.237686E-07  0.133E-03    3.72      11.1  T
   4    -67.9054492 -0.545126E-07  0.575E-04    3.72      25.6  T
   5    -67.9054492 -0.608071E-08  0.288E-04    3.72      51.2  T
     SCC iter.                  ...        0 min,  0.013 sec
     gradient                   ...        0 min,  0.006 sec
 * total energy  :   -67.0603131 Eh     change       -0.1410304E-04 Eh
   gradient norm :     0.0013420 Eh/α   predicted    -0.5681838E-05 ( -59.71%)
   displ. norm   :     0.1893374 α      lambda       -0.2173871E-04
   maximum displ.:     0.1076138 α      in ANC's #7, #3, #11, ...

........................................................................
.............................. CYCLE   27 ..............................
........................................................................

 iter      E             dE          RMSdq      gap      omega  full diag
   1    -67.9054056 -0.679054E+02  0.523E-02    3.72       0.0  T
   2    -67.9054060 -0.385774E-06  0.308E-02    3.72       1.0  T
   3    -67.9054059  0.168673E-06  0.312E-03    3.72       4.7  T
   4    -67.9054062 -0.326132E-06  0.124E-03    3.72      11.9  T
   5    -67.9054062 -0.254546E-07  0.613E-04    3.72      24.1  T
   6    -67.9054062 -0.137619E-08  0.122E-04    3.72     120.4  T
     SCC iter.                  ...        0 min,  0.014 sec
     gradient                   ...        0 min,  0.006 sec
 * total energy  :   -67.0603381 Eh     change       -0.2501487E-04 Eh
   gradient norm :     0.0014029 Eh/α   predicted    -0.1105314E-04 ( -55.81%)
   displ. norm   :     0.2553557 α      lambda       -0.2404708E-04
   maximum displ.:     0.1454156 α      in ANC's #7, #3, #2, ...

........................................................................
.............................. CYCLE   28 ..............................
........................................................................

 iter      E             dE          RMSdq      gap      omega  full diag
   1    -67.9053233 -0.679053E+02  0.723E-02    3.72       0.0  T
   2    -67.9053239 -0.614643E-06  0.426E-02    3.72       1.0  T
   3    -67.9053237  0.194414E-06  0.387E-03    3.72       3.8  T
   4    -67.9053242 -0.487333E-06  0.157E-03    3.72       9.4  T
   5    -67.9053243 -0.318128E-07  0.783E-04    3.72      18.8  T
   6    -67.9053243 -0.268173E-08  0.138E-04    3.72     106.5  T
     SCC iter.                  ...        0 min,  0.014 sec
     gradient                   ...        0 min,  0.006 sec
 * total energy  :   -67.0603633 Eh     change       -0.2522116E-04 Eh
   gradient norm :     0.0020932 Eh/α   predicted    -0.1237377E-04 ( -50.94%)
   displ. norm   :     0.1738890 α      lambda       -0.2324942E-04
   maximum displ.:     0.0970486 α      in ANC's #7, #3, #2, ...

........................................................................
.............................. CYCLE   29 ..............................
........................................................................

 iter      E             dE          RMSdq      gap      omega  full diag
   1    -67.9055805 -0.679056E+02  0.463E-02    3.72       0.0  T
   2    -67.9055808 -0.287163E-06  0.273E-02    3.72       1.0  T
   3    -67.9055809 -0.695783E-07  0.166E-03    3.72       8.9  T
   4    -67.9055809 -0.474255E-07  0.101E-03    3.72      14.6  T
   5    -67.9055809 -0.140165E-07  0.545E-04    3.72      27.1  T
   6    -67.9055810 -0.270749E-08  0.121E-04    3.72     122.3  T
     SCC iter.                  ...        0 min,  0.014 sec
     gradient                   ...        0 min,  0.006 sec
 * total energy  :   -67.0603823 Eh     change       -0.1898622E-04 Eh
   gradient norm :     0.0018792 Eh/α   predicted    -0.1197687E-04 ( -36.92%)
   displ. norm   :     0.3799353 α      lambda       -0.3297585E-04
   maximum displ.:     0.2083915 α      in ANC's #7, #2, #4, ...

........................................................................
.............................. CYCLE   30 ..............................
........................................................................

 iter      E             dE          RMSdq      gap      omega  full diag
   1    -67.9059002 -0.679059E+02  0.102E-01    3.73       0.0  T
   2    -67.9059014 -0.119099E-05  0.600E-02    3.72       1.0  T
   3    -67.9059018 -0.397886E-06  0.330E-03    3.73       4.5  T
   4    -67.9059019 -0.168250E-06  0.201E-03    3.72       7.3  T
   5    -67.9059020 -0.310520E-07  0.117E-03    3.73      12.6  T
   6    -67.9059020 -0.196647E-07  0.229E-04    3.73      64.3  T
   7    -67.9059020 -0.661302E-09  0.870E-05    3.73     169.5  T
     SCC iter.                  ...        0 min,  0.017 sec
     gradient                   ...        0 min,  0.006 sec
 * total energy  :   -67.0604152 Eh     change       -0.3295823E-04 Eh
   gradient norm :     0.0017887 Eh/α   predicted    -0.1754832E-04 ( -46.76%)
   displ. norm   :     0.2064852 α      lambda       -0.2004195E-04
   maximum displ.:     0.1034227 α      in ANC's #7, #2, #4, ...

........................................................................
.............................. CYCLE   31 ..............................
........................................................................

 iter      E             dE          RMSdq      gap      omega  full diag
   1    -67.9067716 -0.679068E+02  0.558E-02    3.73       0.0  T
   2    -67.9067721 -0.516240E-06  0.328E-02    3.73       1.0  T
   3    -67.9067717  0.393398E-06  0.391E-03    3.73       3.8  T
   4    -67.9067723 -0.574241E-06  0.140E-03    3.73      10.6  T
   5    -67.9067724 -0.407707E-07  0.718E-04    3.73      20.5  T
   6    -67.9067724 -0.262233E-08  0.190E-04    3.73      77.4  T
     SCC iter.                  ...        0 min,  0.014 sec
     gradient                   ...        0 min,  0.006 sec
 * total energy  :   -67.0604326 Eh     change       -0.1736195E-04 Eh
   gradient norm :     0.0014254 Eh/α   predicted    -0.1021253E-04 ( -41.18%)
   displ. norm   :     0.2241295 α      lambda       -0.2055291E-04
   maximum displ.:     0.1071203 α      in ANC's #7, #2, #4, ...

........................................................................
.............................. CYCLE   32 ..............................
........................................................................

 iter      E             dE          RMSdq      gap      omega  full diag
   1    -67.9067343 -0.679067E+02  0.646E-02    3.73       0.0  T
   2    -67.9067347 -0.454103E-06  0.380E-02    3.73       1.0  T
   3    -67.9067346  0.123733E-06  0.315E-03    3.73       4.7  T
   4    -67.9067349 -0.332285E-06  0.134E-03    3.73      11.0  T
   5    -67.9067350 -0.255547E-07  0.730E-04    3.73      20.2  T
   6    -67.9067350 -0.341505E-08  0.151E-04    3.73      97.4  T
     SCC iter.                  ...        0 min,  0.017 sec
     gradient                   ...        0 min,  0.006 sec
 * total energy  :   -67.0604504 Eh     change       -0.1778772E-04 Eh
   gradient norm :     0.0014195 Eh/α   predicted    -0.1050643E-04 ( -40.93%)
   displ. norm   :     0.1737109 α      lambda       -0.1376097E-04
   maximum displ.:     0.0789361 α      in ANC's #2, #7, #1, ...

........................................................................
.............................. CYCLE   33 ..............................
........................................................................

 iter      E             dE          RMSdq      gap      omega  full diag
   1    -67.9053432 -0.679053E+02  0.548E-02    3.73       0.0  T
   2    -67.9053436 -0.410729E-06  0.322E-02    3.73       1.0  T
   3    -67.9053436  0.306420E-07  0.241E-03    3.73       6.1  T
   4    -67.9053438 -0.176535E-06  0.118E-03    3.73      12.4  T
   5    -67.9053438 -0.225319E-07  0.660E-04    3.73      22.4  T
   6    -67.9053438 -0.319459E-08  0.175E-04    3.73      84.3  T
     SCC iter.                  ...        0 min,  0.015 sec
     gradient                   ...        0 min,  0.006 sec
 * total energy  :   -67.0604638 Eh     change       -0.1336253E-04 Eh
   gradient norm :     0.0027160 Eh/α   predicted    -0.6974103E-05 ( -47.81%)
   displ. norm   :     0.1257283 α      lambda       -0.3055416E-04
   maximum displ.:     0.0695328 α      in ANC's #1, #2, #5, ...

........................................................................
.............................. CYCLE   34 ..............................
........................................................................

 iter      E             dE          RMSdq      gap      omega  full diag
   1    -67.9062037 -0.679062E+02  0.363E-02    3.73       0.0  T
   2    -67.9062040 -0.254397E-06  0.214E-02    3.73       1.0  T
   3    -67.9062034  0.535201E-06  0.386E-03    3.73       3.8  T
   4    -67.9062041 -0.617632E-06  0.888E-04    3.73      16.6  T
   5    -67.9062041 -0.197640E-07  0.361E-04    3.73      40.8  T
     SCC iter.                  ...        0 min,  0.013 sec
     gradient                   ...        0 min,  0.006 sec
 * total energy  :   -67.0604862 Eh     change       -0.2246339E-04 Eh
   gradient norm :     0.0016888 Eh/α   predicted    -0.1551985E-04 ( -30.91%)
   displ. norm   :     0.2888275 α      lambda       -0.3310434E-04
   maximum displ.:     0.1586639 α      in ANC's #1, #2, #5, ...

........................................................................
.............................. CYCLE   35 ..............................
........................................................................

 iter      E             dE          RMSdq      gap      omega  full diag
   1    -67.9059899 -0.679060E+02  0.905E-02    3.73       0.0  T
   2    -67.9059906 -0.725179E-06  0.532E-02    3.73       1.0  T
   3    -67.9059906 -0.243493E-07  0.316E-03    3.73       4.7  T
   4    -67.9059909 -0.251017E-06  0.166E-03    3.73       8.9  T
   5    -67.9059909 -0.492351E-07  0.781E-04    3.73      18.9  T
   6    -67.9059909 -0.307863E-08  0.164E-04    3.73      90.2  T
     SCC iter.                  ...        0 min,  0.015 sec
     gradient                   ...        0 min,  0.006 sec
 * total energy  :   -67.0605213 Eh     change       -0.3508184E-04 Eh
   gradient norm :     0.0020653 Eh/α   predicted    -0.1716889E-04 ( -51.06%)
   displ. norm   :     0.1809567 α      lambda       -0.2950014E-04
   maximum displ.:     0.1035315 α      in ANC's #1, #2, #5, ...

........................................................................
.............................. CYCLE   36 ..............................
........................................................................

 iter      E             dE          RMSdq      gap      omega  full diag
   1    -67.9057394 -0.679057E+02  0.572E-02    3.73       0.0  T
   2    -67.9057396 -0.246525E-06  0.337E-02    3.73       1.0  T
   3    -67.9057397 -0.798273E-07  0.154E-03    3.73       9.6  T
   4    -67.9057397 -0.406220E-07  0.939E-04    3.73      15.7  T
   5    -67.9057398 -0.926983E-08  0.486E-04    3.73      30.4  T
     SCC iter.                  ...        0 min,  0.015 sec
     gradient                   ...        0 min,  0.007 sec
 * total energy  :   -67.0605464 Eh     change       -0.2512818E-04 Eh
   gradient norm :     0.0020974 Eh/α   predicted    -0.1523647E-04 ( -39.37%)
   displ. norm   :     0.2898857 α      lambda       -0.5094206E-04
   maximum displ.:     0.1728308 α      in ANC's #1, #2, #5, ...

........................................................................
.............................. CYCLE   37 ..............................
........................................................................

 iter      E             dE          RMSdq      gap      omega  full diag
   1    -67.9053375 -0.679053E+02  0.891E-02    3.73       0.0  T
   2    -67.9053383 -0.716113E-06  0.524E-02    3.73       1.0  T
   3    -67.9053385 -0.221453E-06  0.221E-03    3.73       6.7  T
   4    -67.9053386 -0.708368E-07  0.134E-03    3.73      11.0  T
   5    -67.9053386 -0.111120E-07  0.854E-04    3.73      17.3  T
   6    -67.9053386 -0.113102E-07  0.216E-04    3.73      68.3  T
     SCC iter.                  ...        0 min,  0.021 sec
     gradient                   ...        0 min,  0.008 sec
 * total energy  :   -67.0605852 Eh     change       -0.3881068E-04 Eh
   gradient norm :     0.0025460 Eh/α   predicted    -0.2761545E-04 ( -28.85%)
   displ. norm   :     0.2522959 α      lambda       -0.3922958E-04
   maximum displ.:     0.1577490 α      in ANC's #1, #2, #3, ...

........................................................................
.............................. CYCLE   38 ..............................
........................................................................

 iter      E             dE          RMSdq      gap      omega  full diag
   1    -67.9054562 -0.679055E+02  0.744E-02    3.73       0.0  T
   2    -67.9054567 -0.442007E-06  0.438E-02    3.73       1.0  T
   3    -67.9054568 -0.151408E-06  0.180E-03    3.73       8.2  T
   4    -67.9054569 -0.474966E-07  0.109E-03    3.73      13.5  T
   5    -67.9054569 -0.489105E-08  0.687E-04    3.73      21.5  T
   6    -67.9054569 -0.852852E-08  0.150E-04    3.73      98.4  T
     SCC iter.                  ...        0 min,  0.019 sec
     gradient                   ...        0 min,  0.005 sec
 * total energy  :   -67.0606149 Eh     change       -0.2969454E-04 Eh
   gradient norm :     0.0028669 Eh/α   predicted    -0.2086497E-04 ( -29.73%)
   displ. norm   :     0.2298451 α      lambda       -0.3664442E-04
   maximum displ.:     0.1484018 α      in ANC's #1, #2, #3, ...

........................................................................
.............................. CYCLE   39 ..............................
........................................................................

 iter      E             dE          RMSdq      gap      omega  full diag
   1    -67.9056456 -0.679056E+02  0.681E-02    3.73       0.0  T
   2    -67.9056460 -0.376446E-06  0.400E-02    3.73       1.0  T
   3    -67.9056460 -0.780824E-07  0.200E-03    3.73       7.4  T
   4    -67.9056461 -0.874367E-07  0.113E-03    3.73      13.1  T
   5    -67.9056461 -0.137370E-07  0.648E-04    3.73      22.8  T
   6    -67.9056461 -0.455059E-08  0.130E-04    3.73     113.3  T
     SCC iter.                  ...        0 min,  0.016 sec
     gradient                   ...        0 min,  0.006 sec
 * total energy  :   -67.0606451 Eh     change       -0.3013263E-04 Eh
   gradient norm :     0.0028494 Eh/α   predicted    -0.1929485E-04 ( -35.97%)
   displ. norm   :     0.3288006 α      lambda       -0.5929540E-04
   maximum displ.:     0.2153970 α      in ANC's #1, #2, #3, ...

........................................................................
.............................. CYCLE   40 ..............................
........................................................................

 iter      E             dE          RMSdq      gap      omega  full diag
   1    -67.9057348 -0.679057E+02  0.995E-02    3.74       0.0  T
   2    -67.9057356 -0.816763E-06  0.585E-02    3.74       1.0  T
   3    -67.9057356 -0.335301E-07  0.353E-03    3.74       4.2  T
   4    -67.9057359 -0.328079E-06  0.180E-03    3.74       8.2  T
   5    -67.9057360 -0.434728E-07  0.973E-04    3.74      15.2  T
   6    -67.9057360 -0.574501E-08  0.184E-04    3.74      80.2  T
     SCC iter.                  ...        0 min,  0.015 sec
     gradient                   ...        0 min,  0.006 sec
 * total energy  :   -67.0606939 Eh     change       -0.4884334E-04 Eh
   gradient norm :     0.0033830 Eh/α   predicted    -0.3285669E-04 ( -32.73%)
   displ. norm   :     0.4304684 α      lambda       -0.9592850E-04
   maximum displ.:     0.2882247 α      in ANC's #1, #2, #3, ...

........................................................................
.............................. CYCLE   41 ..............................
........................................................................

 iter      E             dE          RMSdq      gap      omega  full diag
   1    -67.9066649 -0.679067E+02  0.122E-01    3.74       0.0  T
   2    -67.9066666 -0.170086E-05  0.716E-02    3.74       1.0  T
   3    -67.9066653  0.128623E-05  0.710E-03    3.74       2.1  T
   4    -67.9066672 -0.191499E-05  0.252E-03    3.74       5.8  T
   5    -67.9066674 -0.125407E-06  0.132E-03    3.74      11.1  T
   6    -67.9066674 -0.861476E-08  0.295E-04    3.74      50.0  T
   7    -67.9066674 -0.676778E-09  0.819E-05    3.74     179.9  T
     SCC iter.                  ...        0 min,  0.018 sec
     gradient                   ...        0 min,  0.006 sec
 * total energy  :   -67.0607663 Eh     change       -0.7241469E-04 Eh
   gradient norm :     0.0029649 Eh/α   predicted    -0.5685443E-04 ( -21.49%)
   displ. norm   :     0.6600519 α      lambda       -0.1309747E-03
   maximum displ.:     0.4262180 α      in ANC's #1, #2, #7, ...

........................................................................
.............................. CYCLE   42 ..............................
........................................................................

 iter      E             dE          RMSdq      gap      omega  full diag
   1    -67.9017365 -0.679017E+02  0.204E-01    3.71       0.0  T
   2    -67.9017429 -0.640719E-05  0.120E-01    3.71       1.0  T
   3    -67.9017291  0.137234E-04  0.195E-02    3.72       1.0  T
   4    -67.9017456 -0.164130E-04  0.507E-03    3.72       2.9  T
   5    -67.9017461 -0.541681E-06  0.246E-03    3.72       6.0  T
   6    -67.9017461 -0.202883E-07  0.726E-04    3.72      20.3  T
   7    -67.9017461 -0.237233E-08  0.189E-04    3.72      78.2  T
     SCC iter.                  ...        0 min,  0.018 sec
     gradient                   ...        0 min,  0.006 sec
 * total energy  :   -67.0607866 Eh     change       -0.2029840E-04 Eh
   gradient norm :     0.0118090 Eh/α   predicted    -0.9402055E-04 ( 363.19%)
   displ. norm   :     0.1278863 α      lambda       -0.2348400E-03
   maximum displ.:     0.0683138 α      in ANC's #4, #5, #10, ...
 * RMSD in coord.:     0.5878745 α      energy gain  -0.6229545E-03 Eh

generating ANC from exact Hessian ...
Using Lindh-Hessian (1995)
 Shifting diagonal of input Hessian by   9.798468374153138E-003
 Lowest  eigenvalues of input Hessian
    0.000000    0.000000    0.000000    0.000000    0.000000    0.000000
    0.010000    0.010280    0.010415    0.010664    0.011320    0.011687
    0.012378    0.013402    0.014277    0.015455    0.016716    0.017415
 Highest eigenvalues
    1.759610    1.760415    2.027027    2.028346    2.391333    2.396318
 

........................................................................
.............................. CYCLE   43 ..............................
........................................................................

 iter      E             dE          RMSdq      gap      omega  full diag
   1    -67.9069146 -0.679069E+02  0.398E-02    3.75       0.0  T
   2    -67.9069222 -0.762417E-05  0.237E-02    3.75       1.0  T
   3    -67.9069204  0.176510E-05  0.130E-02    3.75       1.1  T
   4    -67.9069233 -0.286205E-05  0.507E-03    3.75       2.9  T
   5    -67.9069242 -0.878155E-06  0.730E-04    3.75      20.2  T
   6    -67.9069242 -0.847312E-08  0.398E-04    3.75      37.1  T
     SCC iter.                  ...        0 min,  0.015 sec
     gradient                   ...        0 min,  0.006 sec
 * total energy  :   -67.0609102 Eh     change       -0.1235743E-03 Eh
   gradient norm :     0.0056831 Eh/α   predicted     0.0000000E+00 (-100.00%)
   displ. norm   :     0.0454473 α      lambda       -0.3560797E-04
   maximum displ.:     0.0240442 α      in ANC's #5, #6, #10, ...

........................................................................
.............................. CYCLE   44 ..............................
........................................................................

 iter      E             dE          RMSdq      gap      omega  full diag
   1    -67.9070370 -0.679070E+02  0.216E-02    3.75       0.0  T
   2    -67.9070378 -0.821688E-06  0.127E-02    3.75       1.2  T
   3    -67.9070378  0.571252E-07  0.249E-03    3.75       5.9  T
   4    -67.9070378 -0.424179E-07  0.124E-03    3.75      11.9  T
   5    -67.9070379 -0.572407E-07  0.299E-04    3.75      49.3  T
   6    -67.9070379 -0.650275E-09  0.154E-04    3.75      95.4  T
     SCC iter.                  ...        0 min,  0.015 sec
     gradient                   ...        0 min,  0.006 sec
 * total energy  :   -67.0609556 Eh     change       -0.4539347E-04 Eh
   gradient norm :     0.0020005 Eh/α   predicted    -0.3073462E-04 ( -32.29%)
   displ. norm   :     0.1019161 α      lambda       -0.6310025E-04
   maximum displ.:     0.0572810 α      in ANC's #5, #6, #10, ...

........................................................................
.............................. CYCLE   45 ..............................
........................................................................

 iter      E             dE          RMSdq      gap      omega  full diag
   1    -67.9068678 -0.679069E+02  0.495E-02    3.75       0.0  T
   2    -67.9068689 -0.109223E-05  0.292E-02    3.75       1.0  T
   3    -67.9068688  0.125023E-06  0.288E-03    3.75       5.1  T
   4    -67.9068689 -0.149540E-06  0.178E-03    3.75       8.3  T
   5    -67.9068690 -0.109862E-06  0.550E-04    3.75      26.8  T
   6    -67.9068690 -0.930413E-09  0.232E-04    3.75      63.7  T
     SCC iter.                  ...        0 min,  0.018 sec
     gradient                   ...        0 min,  0.011 sec
 * total energy  :   -67.0609979 Eh     change       -0.4232691E-04 Eh
   gradient norm :     0.0025525 Eh/α   predicted    -0.3188026E-04 ( -24.68%)
   displ. norm   :     0.1019611 α      lambda       -0.3782399E-04
   maximum displ.:     0.0615944 α      in ANC's #6, #5, #10, ...

........................................................................
.............................. CYCLE   46 ..............................
........................................................................

 iter      E             dE          RMSdq      gap      omega  full diag
   1    -67.9064798 -0.679065E+02  0.550E-02    3.75       0.0  T
   2    -67.9064801 -0.331527E-06  0.324E-02    3.75       1.0  T
   3    -67.9064801  0.397787E-07  0.222E-03    3.75       6.6  T
   4    -67.9064803 -0.153991E-06  0.112E-03    3.75      13.2  T
   5    -67.9064803 -0.240544E-07  0.587E-04    3.75      25.1  T
   6    -67.9064803 -0.232852E-08  0.186E-04    3.75      79.1  T
     SCC iter.                  ...        0 min,  0.025 sec
     gradient                   ...        0 min,  0.008 sec
 * total energy  :   -67.0610264 Eh     change       -0.2848770E-04 Eh
   gradient norm :     0.0028842 Eh/α   predicted    -0.1910974E-04 ( -32.92%)
   displ. norm   :     0.1170968 α      lambda       -0.3996738E-04
   maximum displ.:     0.0726622 α      in ANC's #6, #5, #3, ...

........................................................................
.............................. CYCLE   47 ..............................
........................................................................

 iter      E             dE          RMSdq      gap      omega  full diag
   1    -67.9061177 -0.679061E+02  0.661E-02    3.74       0.0  T
   2    -67.9061181 -0.399517E-06  0.389E-02    3.74       1.0  T
   3    -67.9061181 -0.987441E-08  0.241E-03    3.74       6.1  T
   4    -67.9061183 -0.170001E-06  0.121E-03    3.74      12.2  T
   5    -67.9061183 -0.181709E-07  0.692E-04    3.74      21.3  T
   6    -67.9061183 -0.404867E-08  0.165E-04    3.74      89.3  T
     SCC iter.                  ...        0 min,  0.018 sec
     gradient                   ...        0 min,  0.006 sec
 * total energy  :   -67.0610576 Eh     change       -0.3120287E-04 Eh
   gradient norm :     0.0027469 Eh/α   predicted    -0.2026244E-04 ( -35.06%)
   displ. norm   :     0.1507008 α      lambda       -0.4890070E-04
   maximum displ.:     0.0942068 α      in ANC's #6, #5, #3, ...

........................................................................
.............................. CYCLE   48 ..............................
........................................................................

 iter      E             dE          RMSdq      gap      omega  full diag
   1    -67.9058209 -0.679058E+02  0.867E-02    3.73       0.0  T
   2    -67.9058216 -0.692613E-06  0.511E-02    3.73       1.0  T
   3    -67.9058216 -0.187690E-07  0.325E-03    3.73       4.5  T
   4    -67.9058219 -0.283511E-06  0.167E-03    3.73       8.9  T
   5    -67.9058219 -0.401526E-07  0.860E-04    3.73      17.2  T
   6    -67.9058219 -0.330347E-08  0.182E-04    3.73      80.9  T
     SCC iter.                  ...        0 min,  0.016 sec
     gradient                   ...        0 min,  0.006 sec
 * total energy  :   -67.0610950 Eh     change       -0.3737643E-04 Eh
   gradient norm :     0.0040989 Eh/α   predicted    -0.2500648E-04 ( -33.10%)
   displ. norm   :     0.1958041 α      lambda       -0.6167976E-04
   maximum displ.:     0.1226941 α      in ANC's #6, #5, #3, ...

........................................................................
.............................. CYCLE   49 ..............................
........................................................................

 iter      E             dE          RMSdq      gap      omega  full diag
   1    -67.9055018 -0.679055E+02  0.114E-01    3.73       0.0  T
   2    -67.9055027 -0.979053E-06  0.670E-02    3.73       1.0  T
   3    -67.9055029 -0.109560E-06  0.392E-03    3.73       3.8  T
   4    -67.9055032 -0.391743E-06  0.200E-03    3.73       7.4  T
   5    -67.9055033 -0.472586E-07  0.984E-04    3.73      15.0  T
   6    -67.9055033 -0.425159E-08  0.130E-04    3.73     113.4  T
     SCC iter.                  ...        0 min,  0.015 sec
     gradient                   ...        0 min,  0.006 sec
 * total energy  :   -67.0611402 Eh     change       -0.4516001E-04 Eh
   gradient norm :     0.0062263 Eh/α   predicted    -0.3202556E-04 ( -29.08%)
   displ. norm   :     0.1990625 α      lambda       -0.8343685E-04
   maximum displ.:     0.1211460 α      in ANC's #6, #5, #1, ...

........................................................................
.............................. CYCLE   50 ..............................
........................................................................

 iter      E             dE          RMSdq      gap      omega  full diag
   1    -67.9060639 -0.679061E+02  0.112E-01    3.73       0.0  T
   2    -67.9060649 -0.963047E-06  0.657E-02    3.73       1.0  T
   3    -67.9060647  0.148588E-06  0.446E-03    3.73       3.3  T
   4    -67.9060654 -0.645127E-06  0.194E-03    3.73       7.6  T
   5    -67.9060654 -0.411709E-07  0.113E-03    3.73      13.0  T
   6    -67.9060654 -0.104426E-07  0.148E-04    3.73      99.7  T
   7    -67.9060654 -0.216900E-09  0.611E-05    3.73     241.3  T
     SCC iter.                  ...        0 min,  0.017 sec
     gradient                   ...        0 min,  0.006 sec
 * total energy  :   -67.0612025 Eh     change       -0.6238880E-04 Eh
   gradient norm :     0.0058998 Eh/α   predicted    -0.4337289E-04 ( -30.48%)
   displ. norm   :     0.2125969 α      lambda       -0.9293464E-04
   maximum displ.:     0.1215860 α      in ANC's #6, #5, #1, ...

........................................................................
.............................. CYCLE   51 ..............................
........................................................................

 iter      E             dE          RMSdq      gap      omega  full diag
   1    -67.9065767 -0.679066E+02  0.114E-01    3.73       0.0  T
   2    -67.9065780 -0.129425E-05  0.672E-02    3.73       1.0  T
   3    -67.9065776  0.355245E-06  0.498E-03    3.73       3.0  T
   4    -67.9065785 -0.894359E-06  0.208E-03    3.73       7.1  T
   5    -67.9065786 -0.656330E-07  0.125E-03    3.73      11.8  T
   6    -67.9065786 -0.130609E-07  0.213E-04    3.73      69.2  T
   7    -67.9065786 -0.417259E-09  0.639E-05    3.73     230.8  T
     SCC iter.                  ...        0 min,  0.038 sec
     gradient                   ...        0 min,  0.006 sec
 * total energy  :   -67.0612719 Eh     change       -0.6933568E-04 Eh
   gradient norm :     0.0045787 Eh/α   predicted    -0.4856789E-04 ( -29.95%)
   displ. norm   :     0.2735310 α      lambda       -0.8391189E-04
   maximum displ.:     0.1547094 α      in ANC's #6, #5, #1, ...

........................................................................
.............................. CYCLE   52 ..............................
........................................................................

 iter      E             dE          RMSdq      gap      omega  full diag
   1    -67.9054201 -0.679054E+02  0.145E-01    3.73       0.0  T
   2    -67.9054216 -0.149107E-05  0.855E-02    3.72       1.0  T
   3    -67.9054224 -0.753129E-06  0.317E-03    3.73       4.7  T
   4    -67.9054224 -0.426083E-07  0.225E-03    3.73       6.5  T
   5    -67.9054224 -0.465447E-07  0.114E-03    3.73      12.9  T
   6    -67.9054225 -0.225879E-07  0.145E-04    3.73     101.4  T
   7    -67.9054225 -0.232063E-09  0.765E-05    3.73     192.7  T
     SCC iter.                  ...        0 min,  0.019 sec
     gradient                   ...        0 min,  0.006 sec
 * total energy  :   -67.0613250 Eh     change       -0.5313163E-04 Eh
   gradient norm :     0.0060112 Eh/α   predicted    -0.4509638E-04 ( -15.12%)
   displ. norm   :     0.2509155 α      lambda       -0.1693512E-03
   maximum displ.:     0.1307096 α      in ANC's #1, #6, #3, ...

........................................................................
.............................. CYCLE   53 ..............................
........................................................................

 iter      E             dE          RMSdq      gap      omega  full diag
   1    -67.9101802 -0.679102E+02  0.104E-01    3.76       0.0  T
   2    -67.9101892 -0.892124E-05  0.610E-02    3.76       1.0  T
   3    -67.9101821  0.704779E-05  0.150E-02    3.76       1.0  T
   4    -67.9101900 -0.791107E-05  0.487E-03    3.76       3.0  T
   5    -67.9101909 -0.870708E-06  0.140E-03    3.76      10.5  T
   6    -67.9101909 -0.175496E-07  0.767E-04    3.76      19.2  T
   7    -67.9101909 -0.183070E-08  0.137E-04    3.76     107.9  T
     SCC iter.                  ...        0 min,  0.019 sec
     gradient                   ...        0 min,  0.006 sec
 * total energy  :   -67.0612767 Eh     change        0.4828417E-04 Eh
   gradient norm :     0.0119641 Eh/α   predicted    -0.9001381E-04 (-286.43%)
   displ. norm   :     0.2238785 α      lambda       -0.2629002E-03
   maximum displ.:     0.1304984 α      in ANC's #6, #5, #1, ...

........................................................................
.............................. CYCLE   54 ..............................
........................................................................

 iter      E             dE          RMSdq      gap      omega  full diag
   1    -67.9054596 -0.679055E+02  0.126E-01    3.72       0.0  T
   2    -67.9054655 -0.592221E-05  0.744E-02    3.72       1.0  T
   3    -67.9054572  0.831881E-05  0.152E-02    3.73       1.0  T
   4    -67.9054667 -0.951777E-05  0.424E-03    3.73       3.5  T
   5    -67.9054673 -0.563642E-06  0.165E-03    3.73       9.0  T
   6    -67.9054673 -0.131841E-07  0.817E-04    3.73      18.1  T
   7    -67.9054673 -0.263367E-08  0.110E-04    3.73     134.6  T
     SCC iter.                  ...        0 min,  0.019 sec
     gradient                   ...        0 min,  0.006 sec
 * total energy  :   -67.0613912 Eh     change       -0.1145204E-03 Eh
   gradient norm :     0.0056057 Eh/α   predicted    -0.1380390E-03 (  20.54%)
   displ. norm   :     0.1441240 α      lambda       -0.9599399E-04
   maximum displ.:     0.0740494 α      in ANC's #6, #8, #1, ...

........................................................................
.............................. CYCLE   55 ..............................
........................................................................

 iter      E             dE          RMSdq      gap      omega  full diag
   1    -67.9068684 -0.679069E+02  0.750E-02    3.72       0.0  T
   2    -67.9068690 -0.593093E-06  0.442E-02    3.73       1.0  T
   3    -67.9068687  0.291824E-06  0.397E-03    3.73       3.7  T
   4    -67.9068692 -0.502287E-06  0.141E-03    3.73      10.4  T
   5    -67.9068693 -0.398145E-07  0.726E-04    3.73      20.3  T
   6    -67.9068693 -0.225494E-08  0.136E-04    3.73     108.8  T
     SCC iter.                  ...        0 min,  0.017 sec
     gradient                   ...        0 min,  0.004 sec
 * total energy  :   -67.0614178 Eh     change       -0.2660366E-04 Eh
   gradient norm :     0.0042525 Eh/α   predicted    -0.4899582E-04 (  84.17%)
   displ. norm   :     0.1094907 α      lambda       -0.4404936E-04
   maximum displ.:     0.0574034 α      in ANC's #1, #6, #5, ...

........................................................................
.............................. CYCLE   56 ..............................
........................................................................

 iter      E             dE          RMSdq      gap      omega  full diag
   1    -67.9069847 -0.679070E+02  0.517E-02    3.73       0.0  T
   2    -67.9069854 -0.739242E-06  0.304E-02    3.73       1.0  T
   3    -67.9069855 -0.357743E-07  0.185E-03    3.73       8.0  T
   4    -67.9069855 -0.656336E-07  0.795E-04    3.73      18.5  T
   5    -67.9069855 -0.843639E-08  0.514E-04    3.73      28.7  T
     SCC iter.                  ...        0 min,  0.014 sec
     gradient                   ...        0 min,  0.004 sec
 * total energy  :   -67.0614510 Eh     change       -0.3310520E-04 Eh
   gradient norm :     0.0013611 Eh/α   predicted    -0.2229021E-04 ( -32.67%)
   displ. norm   :     0.4642559 α      lambda       -0.6330842E-04
   maximum displ.:     0.2370782 α      in ANC's #1, #6, #5, ...

........................................................................
.............................. CYCLE   57 ..............................
........................................................................

 iter      E             dE          RMSdq      gap      omega  full diag
   1    -67.9038508 -0.679039E+02  0.215E-01    3.69       0.0  T
   2    -67.9038548 -0.406387E-05  0.127E-01    3.69       1.0  T
   3    -67.9038510  0.383437E-05  0.124E-02    3.69       1.2  T
   4    -67.9038571 -0.609383E-05  0.382E-03    3.69       3.9  T
   5    -67.9038572 -0.134804E-06  0.208E-03    3.69       7.1  T
   6    -67.9038573 -0.187730E-07  0.506E-04    3.69      29.2  T
   7    -67.9038573 -0.347185E-08  0.139E-04    3.69     105.8  T
     SCC iter.                  ...        0 min,  0.019 sec
     gradient                   ...        0 min,  0.005 sec
 * total energy  :   -67.0614588 Eh     change       -0.7865491E-05 Eh
   gradient norm :     0.0091834 Eh/α   predicted    -0.3469099E-04 ( 341.05%)
   displ. norm   :     0.0818712 α      lambda       -0.1135045E-03
   maximum displ.:     0.0515070 α      in ANC's #6, #5, #8, ...

........................................................................
.............................. CYCLE   58 ..............................
........................................................................

 iter      E             dE          RMSdq      gap      omega  full diag
   1    -67.9070658 -0.679071E+02  0.468E-02    3.72       0.0  T
   2    -67.9070674 -0.159206E-05  0.279E-02    3.72       1.0  T
   3    -67.9070643  0.313063E-05  0.925E-03    3.71       1.6  T
   4    -67.9070678 -0.351032E-05  0.236E-03    3.71       6.3  T
   5    -67.9070679 -0.179006E-06  0.644E-04    3.71      22.9  T
   6    -67.9070679 -0.897131E-09  0.343E-04    3.71      43.0  T
     SCC iter.                  ...        0 min,  0.017 sec
     gradient                   ...        0 min,  0.013 sec
 * total energy  :   -67.0615151 Eh     change       -0.5626114E-04 Eh
   gradient norm :     0.0040040 Eh/α   predicted    -0.5713270E-04 (   1.55%)
   displ. norm   :     0.0785201 α      lambda       -0.5028345E-04
   maximum displ.:     0.0448606 α      in ANC's #1, #3, #5, ...

........................................................................
.............................. CYCLE   59 ..............................
........................................................................

 iter      E             dE          RMSdq      gap      omega  full diag
   1    -67.9074004 -0.679074E+02  0.328E-02    3.72       0.0  T
   2    -67.9074013 -0.943928E-06  0.193E-02    3.72       1.0  T
   3    -67.9074012  0.116335E-06  0.291E-03    3.72       5.1  T
   4    -67.9074013 -0.946138E-07  0.147E-03    3.72      10.0  T
   5    -67.9074014 -0.913035E-07  0.407E-04    3.72      36.2  T
   6    -67.9074014 -0.118267E-08  0.125E-04    3.72     118.4  T
     SCC iter.                  ...        0 min,  0.018 sec
     gradient                   ...        0 min,  0.005 sec
 * total energy  :   -67.0615361 Eh     change       -0.2102842E-04 Eh
[...]
H31-C9-C8-H30= 91.40          H32-C9-C8-C7= 93.43           H32-C9-C8-H29=212.79          H32-C9-C8-H30=332.31          
C11-C10-C9-C8=260.26          C11-C10-C9-H31= 22.41         C11-C10-C9-H32=141.40         C22-C10-C9-C8= 13.45          
C22-C10-C9-H31=135.60         C22-C10-C9-H32=254.59         H33-C10-C9-C8=135.65          H33-C10-C9-H31=257.80         
H33-C10-C9-H32= 16.79         
           -------------------------------------------------
          |                Final Singlepoint                |
           -------------------------------------------------

          ...................................................
          :                      SETUP                      :
          :.................................................:
          :  # basis functions                 112          :
          :  # atomic orbitals                 112          :
          :  # shells                           68          :
          :  # electrons                       120          :
          :  max. iterations                   250          :
          :  Hamiltonian                  GFN2-xTB          :
          :  restarted?                      false          :
          :  GBSA solvation                  false          :
          :  PC potential                    false          :
          :  electronic temp.          300.0000000     K    :
          :  accuracy                    1.0000000          :
          :  -> integral cutoff          0.2500000E+02      :
          :  -> integral neglect         0.1000000E-07      :
          :  -> SCF convergence          0.1000000E-05 Eh   :
          :  -> wf. convergence          0.1000000E-03 e    :
          :  Broyden damping             0.4000000          :
          :  net charge                          0          :
          :  unpaired electrons                  0          :
          ...................................................

 iter      E             dE          RMSdq      gap      omega  full diag
   1    -67.9075628 -0.679076E+02  0.507E-05    3.71       0.0  T
   2    -67.9075628 -0.109424E-10  0.311E-05    3.71     473.8  T
   3    -67.9075628 -0.184741E-12  0.176E-05    3.71     836.2  T

   *** convergence criteria satisfied after 3 iterations ***

         #    Occupation            Energy/Eh            Energy/eV
      -------------------------------------------------------------
         1        2.0000           -0.7411321             -20.1672
       ...           ...                  ...                  ...
        54        2.0000           -0.4344043             -11.8207
        55        2.0000           -0.4296018             -11.6901
        56        2.0000           -0.4245308             -11.5521
        57        2.0000           -0.4219670             -11.4823
        58        2.0000           -0.4158219             -11.3151
        59        2.0000           -0.4140987             -11.2682
        60        2.0000           -0.4126736             -11.2294 (HOMO)
        61                         -0.2763593              -7.5201 (LUMO)
        62                         -0.2747001              -7.4750
        63                         -0.1662492              -4.5239
        64                         -0.1646675              -4.4808
        65                         -0.0138428              -0.3767
       ...                                ...                  ...
       112                          0.7078680              19.2621
      -------------------------------------------------------------
                  HL-Gap            0.1363143 Eh            3.7093 eV
             Fermi-level           -0.3445165 Eh           -9.3748 eV

 SCC (total)                   0 d,  0 h,  0 min,  0.017 sec
 SCC setup                      ...        0 min,  0.001 sec (  6.461%)
 Dispersion                     ...        0 min,  0.000 sec (  1.314%)
 classical contributions        ...        0 min,  0.000 sec (  0.974%)
 integral evaluation            ...        0 min,  0.001 sec (  7.254%)
 iterations                     ...        0 min,  0.007 sec ( 41.695%)
 molecular gradient             ...        0 min,  0.006 sec ( 32.255%)
 printout                       ...        0 min,  0.002 sec (  9.903%)

         :::::::::::::::::::::::::::::::::::::::::::::::::::::
         ::                     SUMMARY                     ::
         :::::::::::::::::::::::::::::::::::::::::::::::::::::
         :: total energy             -67.061665408683 Eh    ::
         :: gradient norm              0.000681629206 Eh/a0 ::
         :: HOMO-LUMO gap              3.709299603524 eV    ::
         ::.................................................::
         :: SCC energy               -67.907446452699 Eh    ::
         :: -> isotropic ES            0.091648634690 Eh    ::
         :: -> anisotropic ES          0.002237508805 Eh    ::
         :: -> anisotropic XC          0.022568725606 Eh    ::
         :: -> dispersion             -0.044077191701 Eh    ::
         :: repulsion energy           0.845781044016 Eh    ::
         :: add. restraining           0.000000000000 Eh    ::
         :: total charge               0.000000000000 e     ::
         :::::::::::::::::::::::::::::::::::::::::::::::::::::

           -------------------------------------------------
          |                Property Printout                |
           -------------------------------------------------

    * Orbital Energies and Occupations

         #    Occupation            Energy/Eh            Energy/eV
      -------------------------------------------------------------
         1        2.0000           -0.7411321             -20.1672
       ...           ...                  ...                  ...
        48        2.0000           -0.4456635             -12.1271
        49        2.0000           -0.4406502             -11.9907
        50        2.0000           -0.4398862             -11.9699
        51        2.0000           -0.4393168             -11.9544
        52        2.0000           -0.4385651             -11.9340
        53        2.0000           -0.4372421             -11.8980
        54        2.0000           -0.4344043             -11.8207
        55        2.0000           -0.4296018             -11.6901
        56        2.0000           -0.4245308             -11.5521
        57        2.0000           -0.4219670             -11.4823
        58        2.0000           -0.4158219             -11.3151
        59        2.0000           -0.4140987             -11.2682
        60        2.0000           -0.4126736             -11.2294 (HOMO)
        61                         -0.2763593              -7.5201 (LUMO)
        62                         -0.2747001              -7.4750
        63                         -0.1662492              -4.5239
        64                         -0.1646675              -4.4808
        65                         -0.0138428              -0.3767
        66                         -0.0024941              -0.0679
        67                          0.0218527               0.5946
        68                          0.0295763               0.8048
        69                          0.0357710               0.9734
        70                          0.0614459               1.6720
        71                          0.0700647               1.9066
       ...                                ...                  ...
       112                          0.7078680              19.2621
      -------------------------------------------------------------
                  HL-Gap            0.1363143 Eh            3.7093 eV
             Fermi-level           -0.3445165 Eh           -9.3748 eV

     #   Z          covCN         q      C6AA      α(0)
     1   6 C        2.842    -0.060    29.477     8.898
     2   6 C        2.887    -0.059    29.457     8.898
     3   6 C        2.725     0.356    20.965     7.496
     4   8 O        0.856    -0.415    21.989     6.287
     5   8 O        1.705    -0.267    18.427     5.796
     6   6 C        3.706     0.078    19.420     6.300
     7   6 C        3.863    -0.024    20.968     6.512
     8   6 C        3.816    -0.063    21.703     6.630
     9   6 C        3.814    -0.062    21.679     6.627
    10   6 C        3.896    -0.025    20.960     6.508
    11   6 C        3.984    -0.024    20.923     6.499
    12   6 C        3.885    -0.067    21.734     6.628
    13   6 C        3.982    -0.018    20.823     6.483
    14   6 C        3.847    -0.062    21.652     6.619
    15   6 C        3.886    -0.027    21.002     6.515
    16   6 C        3.698     0.073    19.519     6.319
    17   8 O        1.705    -0.265    18.399     5.791
    18   6 C        2.721     0.358    20.921     7.488
    19   8 O        0.856    -0.419    22.060     6.297
    20   6 C        2.888    -0.059    29.460     8.899
    21   6 C        2.842    -0.059    29.467     8.896
    22   6 C        3.898    -0.030    21.048     6.522
    23   1 H        0.926     0.079     1.992     2.207
    24   1 H        0.926     0.063     2.169     2.303
    25   1 H        0.926     0.064     2.157     2.297
    26   1 H        0.924     0.054     2.270     2.356
    27   1 H        0.924     0.049     2.336     2.390
    28   1 H        0.924     0.044     2.401     2.423
    29   1 H        0.925     0.041     2.442     2.444
    30   1 H        0.925     0.034     2.530     2.487
    31   1 H        0.925     0.038     2.472     2.459
    32   1 H        0.924     0.033     2.547     2.496
    33   1 H        0.924     0.029     2.608     2.525
    34   1 H        0.925     0.026     2.646     2.544
    35   1 H        0.925     0.044     2.401     2.423
    36   1 H        0.925     0.039     2.468     2.457
    37   1 H        0.925     0.031     2.576     2.510
    38   1 H        0.925     0.047     2.359     2.402
    39   1 H        0.925     0.030     2.583     2.513
    40   1 H        0.924     0.040     2.452     2.449
    41   1 H        0.924     0.062     2.171     2.304
    42   1 H        0.924     0.047     2.354     2.399
    43   1 H        0.926     0.064     2.152     2.294
    44   1 H        0.926     0.063     2.166     2.302
    45   1 H        0.926     0.079     1.991     2.206
    46   1 H        0.924     0.044     2.394     2.419

 Mol. C6AA /au·bohr⁶  :      19672.156374
 Mol. C8AA /au·bohr⁸  :     447099.753452
 Mol. α(0) /au        :        210.516821


Wiberg/Mayer (AO) data.
largest (>0.10) Wiberg bond orders for each atom

 ---------------------------------------------------------------------------
     #   Z sym  total        # sym  WBO       # sym  WBO       # sym  WBO
 ---------------------------------------------------------------------------
     1   6 C    3.981 --     2 C    1.933    24 H    0.975    23 H    0.970
     2   6 C    3.988 --     1 C    1.933     3 C    1.010    25 H    0.965
     3   6 C    3.920 --     4 O    1.723     5 O    1.125     2 C    1.010
     4   8 O    2.033 --     3 C    1.723     5 O    0.175
     5   8 O    2.309 --     3 C    1.125     6 C    0.939     4 O    0.175
     6   6 C    3.925 --     7 C    0.994    27 H    0.966    26 H    0.966
                             5 O    0.939
     7   6 C    3.991 --     6 C    0.994     8 C    0.993    22 C    0.985
                            28 H    0.967
     8   6 C    3.996 --     9 C    1.006     7 C    0.993    30 H    0.978
                            29 H    0.974
     9   6 C    3.996 --     8 C    1.006    10 C    0.995    32 H    0.982
                            31 H    0.978
    10   6 C    3.993 --     9 C    0.995    11 C    0.986    22 C    0.979
                            33 H    0.972
    11   6 C    3.992 --    12 C    0.996    10 C    0.986    15 C    0.980
                            34 H    0.970
    12   6 C    3.995 --    11 C    0.996    13 C    0.996    36 H    0.974
                            35 H    0.970
    13   6 C    3.994 --    12 C    0.996    14 C    0.995    22 C    0.986
                            37 H    0.970
    14   6 C    3.995 --    13 C    0.995    15 C    0.990    39 H    0.980
                            38 H    0.975
    15   6 C    3.990 --    14 C    0.990    16 C    0.989    11 C    0.980
                            40 H    0.969
    16   6 C    3.924 --    15 C    0.989    42 H    0.968    41 H    0.963
                            17 O    0.940
    17   8 O    2.314 --    18 C    1.129    16 C    0.940    19 O    0.176
    18   6 C    3.920 --    19 O    1.716    17 O    1.129    20 C    1.010
    19   8 O    2.032 --    18 C    1.716    17 O    0.176
    20   6 C    3.988 --    21 C    1.933    18 C    1.010    43 H    0.965
    21   6 C    3.978 --    20 C    1.933    44 H    0.975    45 H    0.970
    22   6 C    3.993 --    13 C    0.986     7 C    0.985    10 C    0.979
                            46 H    0.968
    23   1 H    0.994 --     1 C    0.970
    24   1 H    0.995 --     1 C    0.975
    25   1 H    0.996 --     2 C    0.965
    26   1 H    0.997 --     6 C    0.966
    27   1 H    0.998 --     6 C    0.966
    28   1 H    0.998 --     7 C    0.967
    29   1 H    0.998 --     8 C    0.974
    30   1 H    0.998 --     8 C    0.978
    31   1 H    0.998 --     9 C    0.978
    32   1 H    0.999 --     9 C    0.982
    33   1 H    0.999 --    10 C    0.972
    34   1 H    0.999 --    11 C    0.970
    35   1 H    0.998 --    12 C    0.970
    36   1 H    0.998 --    12 C    0.974
    37   1 H    0.999 --    13 C    0.970
    38   1 H    0.998 --    14 C    0.975
    39   1 H    0.999 --    14 C    0.980
    40   1 H    0.998 --    15 C    0.969
    41   1 H    0.996 --    16 C    0.963
    42   1 H    0.997 --    16 C    0.968
    43   1 H    0.996 --    20 C    0.965
    44   1 H    0.995 --    21 C    0.975
    45   1 H    0.994 --    21 C    0.970
    46   1 H    0.998 --    22 C    0.968
 ---------------------------------------------------------------------------

Topologies differ in total number of bonds
Writing topology from bond orders to xtbtopo.mol

molecular dipole:
                 x           y           z       tot (Debye)
 q only:       -0.494       0.294      -0.327
   full:       -0.565       0.379      -0.473       2.105
molecular quadrupole (traceless):
                xx          xy          yy          xz          yz          zz
 q only:      -19.634      -2.569      19.342       9.043       2.669       0.292
  q+dip:      -21.619      -2.357      19.291       9.873       1.849       2.328
   full:      -21.525      -1.888      19.417      11.254       1.991       2.109

           -------------------------------------------------
          |                Geometry Summary                 |
           -------------------------------------------------

      molecular mass/u    :      304.3814439
   center of mass at/Å    :       -0.0010444       0.1569938      -0.0753257
  moments of inertia/u·Å² :        0.1124574E+04   0.4228980E+04   0.5066997E+04
rotational constants/cm⁻¹ :        0.1499024E-01   0.3986217E-02   0.3326947E-02

 * 44 selected distances

     #   Z          #   Z                                           value/Å
     1   6 C        2   6 C                                       1.3245098
     3   6 C        4   8 O                                       1.2064052
     3   6 C        5   8 O                                       1.3385191
     5   8 O        6   6 C                                       1.4264206
     6   6 C        7   6 C                                       1.5273462
     7   6 C        8   6 C                                       1.5332191
     8   6 C        9   6 C                                       1.5316392
     9   6 C       10   6 C                                       1.5361669
    10   6 C       11   6 C                                       1.5367213
    11   6 C       12   6 C                                       1.5269698
    12   6 C       13   6 C                                       1.5267340
    13   6 C       14   6 C                                       1.5334267
    11   6 C       15   6 C                                       1.5409965 (max)
    15   6 C       16   6 C                                       1.5285643
    16   6 C       17   8 O                                       1.4263429
    17   8 O       18   6 C                                       1.3386364
    18   6 C       19   8 O                                       1.2070016
    20   6 C       21   6 C                                       1.3246039
     7   6 C       22   6 C                                       1.5372123
    13   6 C       22   6 C                                       1.5369807
     1   6 C       23   1 H                                       1.0780762
     1   6 C       24   1 H                                       1.0764190
     2   6 C       25   1 H                                       1.0793750
     6   6 C       26   1 H                                       1.0957419
     6   6 C       27   1 H                                       1.0956959
     7   6 C       28   1 H                                       1.0927674
     8   6 C       29   1 H                                       1.0890480
     8   6 C       30   1 H                                       1.0899452
     9   6 C       31   1 H                                       1.0895641
     9   6 C       32   1 H                                       1.0904356
    10   6 C       33   1 H                                       1.0916148
    11   6 C       34   1 H                                       1.0892334
    12   6 C       35   1 H                                       1.0843949
    12   6 C       36   1 H                                       1.0881086
    13   6 C       37   1 H                                       1.0884423
    14   6 C       38   1 H                                       1.0899974
    14   6 C       39   1 H                                       1.0895315
    15   6 C       40   1 H                                       1.0933880
    16   6 C       41   1 H                                       1.0941692
    16   6 C       42   1 H                                       1.0943192
    20   6 C       43   1 H                                       1.0791821
    21   6 C       44   1 H                                       1.0763497 (min)
    21   6 C       45   1 H                                       1.0780404
    22   6 C       46   1 H                                       1.0907778

 * 3 distinct bonds (by element types)

   Z      Z             #   av. dist./Å        max./Å        min./Å
   1 H    6 C          24     1.0876924     1.0957419     1.0763497
   6 C    6 C          14     1.5032208     1.5409965     1.3245098
   6 C    8 O           6     1.3238876     1.4264206     1.2064052


optimized geometry written to: xtbopt.xyz


           -------------------------------------------------
          | TOTAL ENERGY              -67.061665408683 Eh   |
          | GRADIENT NORM               0.000681629206 Eh/α |
          | HOMO-LUMO GAP               3.709299603524 eV   |
           -------------------------------------------------

------------------------------------------------------------------------
 * finished run on 2025/12/01 at 14:19:43.750     
------------------------------------------------------------------------
 total:
 * wall-time:     0 d,  0 h,  0 min,  2.294 sec
 *  cpu-time:     0 d,  0 h,  0 min, 52.161 sec
 * ratio c/w:    22.742 speedup
 SCF:
 * wall-time:     0 d,  0 h,  0 min,  0.051 sec
 *  cpu-time:     0 d,  0 h,  0 min,  1.147 sec
 * ratio c/w:    22.712 speedup
 ANC optimizer:
 * wall-time:     0 d,  0 h,  0 min,  2.226 sec
 *  cpu-time:     0 d,  0 h,  0 min, 50.688 sec
 * ratio c/w:    22.769 speedup

normal termination of xtb
