      -----------------------------------------------------------      
     |                   =====================                   |     
     |                           x T B                           |     
     |                   =====================                   |     
     |                         S. Grimme                         |     
     |          Mulliken Center for Theoretical Chemistry        |     
     |                    University of Bonn                     |     
      -----------------------------------------------------------      

   * xtb version 6.7.1 (edcfbbe) compiled by 'albert@albert-system' on 2024-07-22

   xtb is free software: you can redistribute it and/or modify it under
   the terms of the GNU Lesser General Public License as published by
   the Free Software Foundation, either version 3 of the License, or
   (at your option) any later version.
   
   xtb is distributed in the hope that it will be useful,
   but WITHOUT ANY WARRANTY; without even the implied warranty of
   MERCHANTABILITY or FITNESS FOR A PARTICULAR PURPOSE.  See the
   GNU Lesser General Public License for more details.
   
   Cite this work as:
   * C. Bannwarth, E. Caldeweyher, S. Ehlert, A. Hansen, P. Pracht,
     J. Seibert, S. Spicher, S. Grimme, WIREs Comput. Mol. Sci., 2020, 11,
     e01493. DOI: 10.1002/wcms.1493
   
   for GFN2-xTB:
   * C. Bannwarth, S. Ehlert and S. Grimme., J. Chem. Theory Comput., 2019,
     15, 1652-1671. DOI: 10.1021/acs.jctc.8b01176
   for GFN1-xTB:
   * S. Grimme, C. Bannwarth, P. Shushkov, J. Chem. Theory Comput., 2017,
     13, 1989-2009. DOI: 10.1021/acs.jctc.7b00118
   for GFN0-xTB:
   * P. Pracht, E. Caldeweyher, S. Ehlert, S. Grimme, ChemRxiv, 2019, preprint.
     DOI: 10.26434/chemrxiv.8326202.v1
   for GFN-FF:
   * S. Spicher and S. Grimme, Angew. Chem. Int. Ed., 2020, 59, 15665-15673.
     DOI: 10.1002/anie.202004239
   
   for ALPB and GBSA implicit solvation:
   * S. Ehlert, M. Stahn, S. Spicher, S. Grimme, J. Chem. Theory Comput.,
     2021, 17, 4250-4261. DOI: 10.1021/acs.jctc.1c00471
   
   for ddCOSMO and CPCM-X implicit solvation:
   * M. Stahn, S. Ehlert, S. Grimme, J. Phys. Chem. A,
     2023, XX, XXXX-XXXX. DOI: 10.1021/acs.jpca.3c04382
   
   for DFT-D4:
   * E. Caldeweyher, C. Bannwarth and S. Grimme, J. Chem. Phys., 2017,
     147, 034112. DOI: 10.1063/1.4993215
   * E. Caldeweyher, S. Ehlert, A. Hansen, H. Neugebauer, S. Spicher,
     C. Bannwarth and S. Grimme, J. Chem. Phys., 2019, 150, 154122.
     DOI: 10.1063/1.5090222
   * E. Caldeweyher, J.-M. Mewes, S. Ehlert and S. Grimme, Phys. Chem. Chem. Phys.
     2020, 22, 8499-8512. DOI: 10.1039/D0CP00502A
   
   for sTDA-xTB:
   * S. Grimme and C. Bannwarth, J. Chem. Phys., 2016, 145, 054103.
     DOI: 10.1063/1.4959605
   
   in the mass-spec context:
   * V. Asgeirsson, C. Bauer and S. Grimme, Chem. Sci., 2017, 8, 4879.
     DOI: 10.1039/c7sc00601b
   * J. Koopman and S. Grimme, ACS Omega 2019, 4, 12, 15120-15133.
     DOI: 10.1021/acsomega.9b02011
   
   for metadynamics refer to:
   * S. Grimme, J. Chem. Theory Comput., 2019, 155, 2847-2862
     DOI: 10.1021/acs.jctc.9b00143
   
   for SPH calculations refer to:
   * S. Spicher and S. Grimme, J. Chem. Theory Comput., 2021, 17, 1701-1714
     DOI: 10.1021/acs.jctc.0c01306
   
   for ONIOM refer to:
   * C. Plett, A. Katbashev, S. Ehlert, S. Grimme, M. Bursch,
     Phys. Chem. Chem. Phys., 2023, 25, 17860-17868. DOI: 10.1039/D3CP02178E
   
   for DIPRO refer to:
   * J. Kohn, N. Gildemeister, S. Grimme, D. Fazzi, A. Hansen,
     J. Chem. Phys., 2023, just accepted.
   
   for PTB refer to:
   * S. Grimme, M. Mueller, A. Hansen, J. Chem. Phys., 2023, 158, 124111.
     DOI: 10.1063/5.0137838
   
   with help from (in alphabetical order)
   P. Atkinson, C. Bannwarth, F. Bohle, G. Brandenburg, E. Caldeweyher
   M. Checinski, S. Dohm, S. Ehlert, S. Ehrlich, I. Gerasimov, C. Hölzer
   A. Katbashev, J. Kohn, J. Koopman, C. Lavigne, S. Lehtola, F. März, M. Müller,
   F. Musil, H. Neugebauer, J. Pisarek, C. Plett, P. Pracht, F. Pultar,
   J. Seibert, P. Shushkov, S. Spicher, M. Stahn, M. Steiner, T. Strunk,
   J. Stückrath, T. Rose, and J. Unsleber
   
 * started run on 2025/12/01 at 14:19:50.069     
   ID    Z sym.   atoms
    1    6 C      1-4, 6-17, 20-25
    2   15 P      5
    3    8 O      18, 19
    4    1 H      26-46

           -------------------------------------------------
          |                Calculation Setup                |
           -------------------------------------------------

          program call               : xtb pipeline_data/3_conformer_xyz/acrylates/rdkit/VFHVQBAGLAREND-UHFFFAOYSA-N_conf28.xyz --opt --gfn 2-xTB --iterations 250
          coordinate file            : pipeline_data/3_conformer_xyz/acrylates/rdkit/VFHVQBAGLAREND-UHFFFAOYSA-N_conf28.xyz
          omp threads                :                    24

########################################################################
[WARNING] Please study the warnings concerning your input carefully
-1- readin_getIntValue: could not parse '2-xTB'
########################################################################

           -------------------------------------------------
          |                 G F N 2 - x T B                 |
           -------------------------------------------------

        Reference                      10.1021/acs.jctc.8b01176
      * Hamiltonian:
        H0-scaling (s, p, d)           1.850000    2.230000    2.230000
        zeta-weighting                 0.500000
      * Dispersion:
        s8                             2.700000
        a1                             0.520000
        a2                             5.000000
        s9                             5.000000
      * Repulsion:
        kExp                           1.500000    1.000000
        rExp                           1.000000
      * Coulomb:
        alpha                          2.000000
        third order                    shell-resolved
        anisotropic                    true
        a3                             3.000000
        a5                             4.000000
        cn-shift                       1.200000
        cn-exp                         4.000000
        max-rad                        5.000000

q/qsh data taken from xtbrestart
CAMM data taken from xtbrestart

          ...................................................
          :                      SETUP                      :
          :.................................................:
          :  # basis functions                 127          :
          :  # atomic orbitals                 126          :
          :  # shells                           72          :
          :  # electrons                       126          :
          :  max. iterations                   250          :
          :  Hamiltonian                  GFN2-xTB          :
          :  restarted?                       true          :
          :  GBSA solvation                  false          :
          :  PC potential                    false          :
          :  electronic temp.          300.0000000     K    :
          :  accuracy                    1.0000000          :
          :  -> integral cutoff          0.2500000E+02      :
          :  -> integral neglect         0.1000000E-07      :
          :  -> SCF convergence          0.1000000E-05 Eh   :
          :  -> wf. convergence          0.1000000E-03 e    :
          :  Broyden damping             0.4000000          :
          :  net charge                          0          :
          :  unpaired electrons                  0          :
          ...................................................

 iter      E             dE          RMSdq      gap      omega  full diag
   1    -69.5767220 -0.695767E+02  0.473E+00    2.08       0.0  T
   2    -69.5831352 -0.641319E-02  0.281E+00    2.18       1.0  T
   3    -69.5691614  0.139738E-01  0.646E-01    1.97       1.0  T
   4    -69.5858328 -0.166714E-01  0.130E-01    2.15       1.0  T
   5    -69.5860601 -0.227358E-03  0.788E-02    2.11       1.0  T
   6    -69.5861044 -0.443276E-04  0.382E-02    2.12       1.0  T
   7    -69.5861337 -0.292146E-04  0.114E-02    2.12       1.3  T
   8    -69.5861354 -0.176909E-05  0.355E-03    2.12       4.2  T
   9    -69.5861357 -0.262468E-06  0.154E-03    2.12       9.6  T
  10    -69.5861357 -0.265647E-07  0.696E-04    2.12      21.2  T
  11    -69.5861357 -0.315836E-08  0.308E-04    2.12      47.9  T

   *** convergence criteria satisfied after 11 iterations ***

         #    Occupation            Energy/Eh            Energy/eV
      -------------------------------------------------------------
         1        2.0000           -0.7156359             -19.4734
       ...           ...                  ...                  ...
        57        2.0000           -0.4216140             -11.4727
        58        2.0000           -0.4171353             -11.3508
        59        2.0000           -0.4164962             -11.3334
        60        2.0000           -0.3987717             -10.8511
        61        2.0000           -0.3966961             -10.7947
        62        2.0000           -0.3934505             -10.7063
        63        2.0000           -0.3857775             -10.4975 (HOMO)
        64                         -0.3078286              -8.3764 (LUMO)
        65                         -0.2539806              -6.9112
        66                         -0.2449467              -6.6653
        67                         -0.2413562              -6.5676
        68                         -0.2327222              -6.3327
       ...                                ...                  ...
       126                          1.1343850              30.8682
      -------------------------------------------------------------
                  HL-Gap            0.0779489 Eh            2.1211 eV
             Fermi-level           -0.3468030 Eh           -9.4370 eV

 SCC (total)                   0 d,  0 h,  0 min,  0.068 sec
 SCC setup                      ...        0 min,  0.002 sec (  3.025%)
 Dispersion                     ...        0 min,  0.001 sec (  1.683%)
 classical contributions        ...        0 min,  0.000 sec (  0.180%)
 integral evaluation            ...        0 min,  0.011 sec ( 16.052%)
 iterations                     ...        0 min,  0.048 sec ( 70.479%)
 molecular gradient             ...        0 min,  0.005 sec (  7.834%)
 printout                       ...        0 min,  0.000 sec (  0.685%)

         :::::::::::::::::::::::::::::::::::::::::::::::::::::
         ::                     SUMMARY                     ::
         :::::::::::::::::::::::::::::::::::::::::::::::::::::
         :: total energy             -68.460398301510 Eh    ::
         :: gradient norm              0.187281805380 Eh/a0 ::
         :: HOMO-LUMO gap              2.121098108566 eV    ::
         ::.................................................::
         :: SCC energy               -69.585446271885 Eh    ::
         :: -> isotropic ES            0.070217614680 Eh    ::
         :: -> anisotropic ES          0.004477816358 Eh    ::
         :: -> anisotropic XC          0.040138847938 Eh    ::
         :: -> dispersion             -0.058480250933 Eh    ::
         :: repulsion energy           1.125047970374 Eh    ::
         :: add. restraining           0.000000000000 Eh    ::
         :: total charge              -0.000000000000 e     ::
         :::::::::::::::::::::::::::::::::::::::::::::::::::::

      ----------------------------------------------------------- 
     |                   =====================                   |
     |                        A N C O P T                        |
     |                   =====================                   |
     |               Approximate Normal Coordinate               |
     |                Rational Function Optimizer                |
      ----------------------------------------------------------- 
      ----------------------------------------------------------- 
     |                   =====================                   |
     |                        A N C O P T                        |
     |                   =====================                   |
     |               Approximate Normal Coordinate               |
     |                Rational Function Optimizer                |
      ----------------------------------------------------------- 

          ...................................................
          :                      SETUP                      :
          :.................................................:
          :   optimization level            normal          :
          :   max. optcycles                   200          :
          :   ANC micro-cycles                  20          :
          :   degrees of freedom               132          :
          :.................................................:
          :   RF solver                   davidson          :
          :   write xtbopt.log                true          :
          :   linear?                        false          :
          :   energy convergence         0.5000000E-05 Eh   :
          :   grad. convergence          0.1000000E-02 Eh/α :
          :   maxmium RF displ.          1.0000000          :
          :   Hlow (freq-cutoff)         0.1000000E-01      :
          :   Hmax (freq-cutoff)         5.0000000          :
          :   S6 in model hess.         20.0000000          :
          ...................................................

generating ANC from exact Hessian ...
Using Lindh-Hessian (1995)
 Shifting diagonal of input Hessian by   9.692650027596268E-003
 Lowest  eigenvalues of input Hessian
    0.000000    0.000000    0.000000    0.000000    0.000000    0.000000
    0.010000    0.010172    0.010344    0.010610    0.011109    0.011296
    0.011730    0.012929    0.013563    0.014369    0.014915    0.017234
 Highest eigenvalues
    1.981489    2.017394    2.021700    2.027830    2.070158    2.300610
 

........................................................................
.............................. CYCLE    1 ..............................
........................................................................

 iter      E             dE          RMSdq      gap      omega  full diag
   1    -69.5861357 -0.695861E+02  0.146E-04    2.12       0.0  T
   2    -69.5861357 -0.101622E-09  0.757E-05    2.12     194.8  T
   3    -69.5861357 -0.590887E-10  0.590E-05    2.12     249.8  T
     SCC iter.                  ...        0 min,  0.011 sec
     gradient                   ...        0 min,  0.005 sec
 * total energy  :   -68.4603983 Eh     change       -0.2303977E-08 Eh
   gradient norm :     0.1872828 Eh/α   predicted     0.0000000E+00 (-100.00%)
   displ. norm   :     0.2849683 α      lambda       -0.3082522E-01
   maximum displ.:     0.0774355 α      in ANC's #45, #32, #61, ...

........................................................................
.............................. CYCLE    2 ..............................
........................................................................

 iter      E             dE          RMSdq      gap      omega  full diag
   1    -69.6233341 -0.696233E+02  0.368E-01    2.33       0.0  T
   2    -69.6237677 -0.433615E-03  0.253E-01    2.34       1.0  T
   3    -69.6237632  0.451837E-05  0.121E-01    2.32       1.0  T
   4    -69.6238033 -0.400350E-04  0.566E-02    2.34       1.0  T
   5    -69.6239372 -0.133916E-03  0.108E-02    2.33       1.4  T
   6    -69.6239387 -0.153648E-05  0.411E-03    2.33       3.6  T
   7    -69.6239390 -0.316350E-06  0.168E-03    2.33       8.8  T
   8    -69.6239390 -0.190300E-07  0.909E-04    2.33      16.2  T
   9    -69.6239390 -0.924175E-09  0.293E-04    2.33      50.3  T
     SCC iter.                  ...        0 min,  0.030 sec
     gradient                   ...        0 min,  0.005 sec
 * total energy  :   -68.4828675 Eh     change       -0.2246921E-01 Eh
   gradient norm :     0.0945522 Eh/α   predicted    -0.1667197E-01 ( -25.80%)
   displ. norm   :     0.2634768 α      lambda       -0.1323920E-01
   maximum displ.:     0.0780806 α      in ANC's #11, #62, #132, ...

........................................................................
.............................. CYCLE    3 ..............................
........................................................................

 iter      E             dE          RMSdq      gap      omega  full diag
   1    -69.6435447 -0.696435E+02  0.328E-01    2.48       0.0  T
   2    -69.6439849 -0.440145E-03  0.212E-01    2.49       1.0  T
   3    -69.6440495 -0.646551E-04  0.108E-01    2.48       1.0  T
   4    -69.6440492  0.372921E-06  0.595E-02    2.49       1.0  T
   5    -69.6441645 -0.115317E-03  0.122E-02    2.48       1.2  T
   6    -69.6441667 -0.222591E-05  0.407E-03    2.48       3.6  T
   7    -69.6441670 -0.294575E-06  0.167E-03    2.48       8.8  T
   8    -69.6441670 -0.308413E-07  0.750E-04    2.48      19.7  T
   9    -69.6441670  0.136438E-08  0.363E-04    2.48      40.6  T
     SCC iter.                  ...        0 min,  0.030 sec
     gradient                   ...        0 min,  0.005 sec
 * total energy  :   -68.4900828 Eh     change       -0.7215331E-02 Eh
   gradient norm :     0.0234846 Eh/α   predicted    -0.7080667E-02 (  -1.87%)
   displ. norm   :     0.2039395 α      lambda       -0.1299085E-02
   maximum displ.:     0.1229178 α      in ANC's #11, #9, #7, ...

........................................................................
.............................. CYCLE    4 ..............................
........................................................................

 iter      E             dE          RMSdq      gap      omega  full diag
   1    -69.6409957 -0.696410E+02  0.104E-01    2.44       0.0  T
   2    -69.6410190 -0.233101E-04  0.604E-02    2.46       1.0  T
   3    -69.6410109  0.810218E-05  0.293E-02    2.45       1.0  T
   4    -69.6410260 -0.151168E-04  0.970E-03    2.46       1.5  T
   5    -69.6410281 -0.206621E-05  0.399E-03    2.46       3.7  T
   6    -69.6410286 -0.510083E-06  0.127E-03    2.46      11.6  T
   7    -69.6410286 -0.346969E-07  0.423E-04    2.46      34.8  T
   8    -69.6410286 -0.584322E-09  0.199E-04    2.46      74.1  T
     SCC iter.                  ...        0 min,  0.043 sec
     gradient                   ...        0 min,  0.008 sec
 * total energy  :   -68.4910396 Eh     change       -0.9567647E-03 Eh
   gradient norm :     0.0085518 Eh/α   predicted    -0.6765699E-03 ( -29.29%)
   displ. norm   :     0.3358952 α      lambda       -0.9880416E-03
   maximum displ.:     0.2092789 α      in ANC's #11, #9, #7, ...

........................................................................
.............................. CYCLE    5 ..............................
........................................................................

 iter      E             dE          RMSdq      gap      omega  full diag
   1    -69.6393766 -0.696394E+02  0.134E-01    2.44       0.0  T
   2    -69.6393873 -0.106736E-04  0.794E-02    2.45       1.0  T
   3    -69.6393716  0.157303E-04  0.242E-02    2.45       1.0  T
   4    -69.6393893 -0.177860E-04  0.733E-03    2.45       2.0  T
   5    -69.6393909 -0.154894E-05  0.272E-03    2.45       5.4  T
   6    -69.6393911 -0.261881E-06  0.964E-04    2.45      15.3  T
   7    -69.6393912 -0.121795E-07  0.448E-04    2.45      32.9  T
     SCC iter.                  ...        0 min,  0.033 sec
     gradient                   ...        0 min,  0.006 sec
 * total energy  :   -68.4917231 Eh     change       -0.6835003E-03 Eh
   gradient norm :     0.0072449 Eh/α   predicted    -0.5497609E-03 ( -19.57%)
   displ. norm   :     0.3195971 α      lambda       -0.5150658E-03
   maximum displ.:     0.1890221 α      in ANC's #11, #9, #7, ...

........................................................................
.............................. CYCLE    6 ..............................
........................................................................

 iter      E             dE          RMSdq      gap      omega  full diag
   1    -69.6403008 -0.696403E+02  0.113E-01    2.45       0.0  T
   2    -69.6403026 -0.180679E-05  0.671E-02    2.45       1.0  T
   3    -69.6402981  0.443428E-05  0.107E-02    2.45       1.4  T
   4    -69.6403030 -0.482588E-05  0.370E-03    2.45       4.0  T
   5    -69.6403033 -0.377886E-06  0.113E-03    2.45      13.0  T
   6    -69.6403033 -0.737228E-08  0.579E-04    2.45      25.5  T
   7    -69.6403033 -0.551648E-08  0.171E-04    2.45      86.3  T
     SCC iter.                  ...        0 min,  0.020 sec
     gradient                   ...        0 min,  0.008 sec
 * total energy  :   -68.4921094 Eh     change       -0.3863289E-03 Eh
   gradient norm :     0.0094261 Eh/α   predicted    -0.2838400E-03 ( -26.53%)
   displ. norm   :     0.3527803 α      lambda       -0.4563907E-03
   maximum displ.:     0.1857732 α      in ANC's #11, #7, #9, ...

........................................................................
.............................. CYCLE    7 ..............................
........................................................................

 iter      E             dE          RMSdq      gap      omega  full diag
   1    -69.6429479 -0.696429E+02  0.117E-01    2.46       0.0  T
   2    -69.6429498 -0.184319E-05  0.690E-02    2.45       1.0  T
   3    -69.6429444  0.536940E-05  0.129E-02    2.45       1.1  T
   4    -69.6429506 -0.621501E-05  0.278E-03    2.45       5.3  T
   5    -69.6429507 -0.855265E-07  0.143E-03    2.45      10.3  T
   6    -69.6429507 -0.312262E-07  0.570E-04    2.45      25.9  T
   7    -69.6429507 -0.474428E-08  0.198E-04    2.45      74.4  T
     SCC iter.                  ...        0 min,  0.020 sec
     gradient                   ...        0 min,  0.007 sec
 * total energy  :   -68.4924486 Eh     change       -0.3391307E-03 Eh
   gradient norm :     0.0084519 Eh/α   predicted    -0.2565960E-03 ( -24.34%)
   displ. norm   :     0.3260550 α      lambda       -0.3480645E-03
   maximum displ.:     0.1551284 α      in ANC's #7, #2, #11, ...

........................................................................
.............................. CYCLE    8 ..............................
........................................................................

 iter      E             dE          RMSdq      gap      omega  full diag
   1    -69.6456875 -0.696457E+02  0.104E-01    2.46       0.0  T
   2    -69.6456891 -0.158649E-05  0.603E-02    2.45       1.0  T
   3    -69.6456861  0.295745E-05  0.105E-02    2.46       1.4  T
   4    -69.6456897 -0.361978E-05  0.257E-03    2.45       5.7  T
   5    -69.6456897  0.186709E-07  0.114E-03    2.45      13.0  T
   6    -69.6456898 -0.428426E-07  0.428E-04    2.45      34.5  T
   7    -69.6456898 -0.231233E-08  0.166E-04    2.45      88.7  T
     SCC iter.                  ...        0 min,  0.020 sec
     gradient                   ...        0 min,  0.008 sec
 * total energy  :   -68.4927054 Eh     change       -0.2568190E-03 Eh
   gradient norm :     0.0061785 Eh/α   predicted    -0.1925351E-03 ( -25.03%)
   displ. norm   :     0.2905080 α      lambda       -0.2505440E-03
   maximum displ.:     0.1449263 α      in ANC's #2, #7, #8, ...

........................................................................
.............................. CYCLE    9 ..............................
........................................................................

 iter      E             dE          RMSdq      gap      omega  full diag
   1    -69.6470329 -0.696470E+02  0.890E-02    2.45       0.0  T
   2    -69.6470342 -0.130207E-05  0.513E-02    2.45       1.0  T
   3    -69.6470330  0.121603E-05  0.636E-03    2.45       2.3  T
   4    -69.6470344 -0.144197E-05  0.242E-03    2.45       6.1  T
   5    -69.6470345 -0.139748E-06  0.887E-04    2.45      16.6  T
   6    -69.6470346 -0.159046E-07  0.487E-04    2.45      30.3  T
     SCC iter.                  ...        0 min,  0.019 sec
     gradient                   ...        0 min,  0.007 sec
 * total energy  :   -68.4928910 Eh     change       -0.1855910E-03 Eh
   gradient norm :     0.0041305 Eh/α   predicted    -0.1358445E-03 ( -26.80%)
   displ. norm   :     0.2649117 α      lambda       -0.1812836E-03
   maximum displ.:     0.1408183 α      in ANC's #2, #7, #8, ...

........................................................................
.............................. CYCLE   10 ..............................
........................................................................

 iter      E             dE          RMSdq      gap      omega  full diag
   1    -69.6469746 -0.696470E+02  0.770E-02    2.45       0.0  T
   2    -69.6469762 -0.163689E-05  0.446E-02    2.45       1.0  T
   3    -69.6469736  0.265495E-05  0.901E-03    2.45       1.6  T
   4    -69.6469764 -0.279736E-05  0.314E-03    2.45       4.7  T
   5    -69.6469768 -0.408649E-06  0.813E-04    2.45      18.1  T
   6    -69.6469768 -0.776595E-09  0.360E-04    2.45      41.0  T
     SCC iter.                  ...        0 min,  0.017 sec
     gradient                   ...        0 min,  0.007 sec
 * total energy  :   -68.4930219 Eh     change       -0.1309688E-03 Eh
   gradient norm :     0.0032283 Eh/α   predicted    -0.9700650E-04 ( -25.93%)
   displ. norm   :     0.2083353 α      lambda       -0.1113782E-03
   maximum displ.:     0.1140040 α      in ANC's #2, #8, #6, ...

........................................................................
.............................. CYCLE   11 ..............................
........................................................................

 iter      E             dE          RMSdq      gap      omega  full diag
   1    -69.6465605 -0.696466E+02  0.561E-02    2.45       0.0  T
   2    -69.6465617 -0.115920E-05  0.330E-02    2.45       1.0  T
   3    -69.6465592  0.248361E-05  0.888E-03    2.45       1.7  T
   4    -69.6465619 -0.274186E-05  0.234E-03    2.45       6.3  T
   5    -69.6465621 -0.236191E-06  0.658E-04    2.45      22.4  T
   6    -69.6465621 -0.366569E-09  0.291E-04    2.45      50.7  T
     SCC iter.                  ...        0 min,  0.020 sec
     gradient                   ...        0 min,  0.009 sec
 * total energy  :   -68.4931031 Eh     change       -0.8114503E-04 Eh
   gradient norm :     0.0036654 Eh/α   predicted    -0.5810738E-04 ( -28.39%)
   displ. norm   :     0.1782089 α      lambda       -0.7953236E-04
   maximum displ.:     0.0960005 α      in ANC's #2, #8, #1, ...

........................................................................
.............................. CYCLE   12 ..............................
........................................................................

 iter      E             dE          RMSdq      gap      omega  full diag
   1    -69.6461580 -0.696462E+02  0.454E-02    2.45       0.0  T
   2    -69.6461585 -0.538125E-06  0.270E-02    2.45       1.0  T
   3    -69.6461569  0.161953E-05  0.673E-03    2.45       2.2  T
   4    -69.6461588 -0.185353E-05  0.118E-03    2.45      12.5  T
   5    -69.6461588 -0.428038E-07  0.551E-04    2.45      26.7  T
   6    -69.6461588 -0.240415E-08  0.237E-04    2.45      62.1  T
     SCC iter.                  ...        0 min,  0.037 sec
     gradient                   ...        0 min,  0.005 sec
 * total energy  :   -68.4931635 Eh     change       -0.6037318E-04 Eh
   gradient norm :     0.0039366 Eh/α   predicted    -0.4103191E-04 ( -32.04%)
   displ. norm   :     0.1897322 α      lambda       -0.7707193E-04
   maximum displ.:     0.0978202 α      in ANC's #2, #1, #6, ...

........................................................................
.............................. CYCLE   13 ..............................
........................................................................

 iter      E             dE          RMSdq      gap      omega  full diag
   1    -69.6459832 -0.696460E+02  0.474E-02    2.45       0.0  T
   2    -69.6459836 -0.361630E-06  0.282E-02    2.45       1.0  T
   3    -69.6459826  0.100710E-05  0.561E-03    2.45       2.6  T
   4    -69.6459837 -0.118367E-05  0.873E-04    2.45      16.9  T
   5    -69.6459837 -0.273306E-08  0.570E-04    2.45      25.9  T
   6    -69.6459837 -0.389672E-08  0.226E-04    2.45      65.1  T
     SCC iter.                  ...        0 min,  0.019 sec
     gradient                   ...        0 min,  0.008 sec
 * total energy  :   -68.4932222 Eh     change       -0.5874345E-04 Eh
   gradient norm :     0.0035280 Eh/α   predicted    -0.3992536E-04 ( -32.03%)
   displ. norm   :     0.2031533 α      lambda       -0.7254458E-04
   maximum displ.:     0.1045276 α      in ANC's #1, #2, #6, ...

........................................................................
.............................. CYCLE   14 ..............................
........................................................................

 iter      E             dE          RMSdq      gap      omega  full diag
   1    -69.6458144 -0.696458E+02  0.490E-02    2.45       0.0  T
   2    -69.6458149 -0.519520E-06  0.291E-02    2.45       1.0  T
   3    -69.6458142  0.734435E-06  0.511E-03    2.45       2.9  T
   4    -69.6458150 -0.843800E-06  0.141E-03    2.45      10.5  T
   5    -69.6458151 -0.575939E-07  0.667E-04    2.45      22.1  T
   6    -69.6458151 -0.573354E-08  0.245E-04    2.45      60.3  T
     SCC iter.                  ...        0 min,  0.020 sec
     gradient                   ...        0 min,  0.008 sec
 * total energy  :   -68.4932775 Eh     change       -0.5525387E-04 Eh
   gradient norm :     0.0026483 Eh/α   predicted    -0.3777219E-04 ( -31.64%)
   displ. norm   :     0.1905330 α      lambda       -0.6119540E-04
   maximum displ.:     0.1067606 α      in ANC's #1, #2, #6, ...

........................................................................
.............................. CYCLE   15 ..............................
........................................................................

 iter      E             dE          RMSdq      gap      omega  full diag
   1    -69.6462409 -0.696462E+02  0.436E-02    2.45       0.0  T
   2    -69.6462415 -0.607103E-06  0.259E-02    2.45       1.0  T
   3    -69.6462409  0.638241E-06  0.501E-03    2.45       2.9  T
   4    -69.6462416 -0.709218E-06  0.167E-03    2.45       8.8  T
   5    -69.6462417 -0.960090E-07  0.639E-04    2.45      23.1  T
   6    -69.6462417 -0.552014E-08  0.247E-04    2.45      59.7  T
     SCC iter.                  ...        0 min,  0.020 sec
     gradient                   ...        0 min,  0.008 sec
 * total energy  :   -68.4933248 Eh     change       -0.4736628E-04 Eh
   gradient norm :     0.0021670 Eh/α   predicted    -0.3171098E-04 ( -33.05%)
   displ. norm   :     0.1839152 α      lambda       -0.5235030E-04
   maximum displ.:     0.1070208 α      in ANC's #1, #2, #6, ...

........................................................................
.............................. CYCLE   16 ..............................
........................................................................

 iter      E             dE          RMSdq      gap      omega  full diag
   1    -69.6460771 -0.696461E+02  0.381E-02    2.45       0.0  T
   2    -69.6460776 -0.502856E-06  0.225E-02    2.45       1.0  T
   3    -69.6460771  0.454902E-06  0.445E-03    2.45       3.3  T
   4    -69.6460776 -0.520532E-06  0.142E-03    2.45      10.4  T
   5    -69.6460777 -0.711563E-07  0.521E-04    2.45      28.3  T
   6    -69.6460777 -0.311643E-08  0.228E-04    2.45      64.6  T
     SCC iter.                  ...        0 min,  0.019 sec
     gradient                   ...        0 min,  0.006 sec
 * total energy  :   -68.4933651 Eh     change       -0.4022887E-04 Eh
   gradient norm :     0.0028366 Eh/α   predicted    -0.2706466E-04 ( -32.72%)
   displ. norm   :     0.1646175 α      lambda       -0.4722461E-04
   maximum displ.:     0.1022405 α      in ANC's #1, #2, #7, ...

........................................................................
.............................. CYCLE   17 ..............................
........................................................................

 iter      E             dE          RMSdq      gap      omega  full diag
   1    -69.6471159 -0.696471E+02  0.335E-02    2.45       0.0  T
   2    -69.6471163 -0.413632E-06  0.198E-02    2.45       1.0  T
   3    -69.6471158  0.485418E-06  0.406E-03    2.45       3.6  T
   4    -69.6471164 -0.563105E-06  0.127E-03    2.45      11.6  T
   5    -69.6471164 -0.540643E-07  0.467E-04    2.45      31.5  T
   6    -69.6471164 -0.182565E-08  0.224E-04    2.45      65.8  T
     SCC iter.                  ...        0 min,  0.018 sec
     gradient                   ...        0 min,  0.008 sec
 * total energy  :   -68.4933993 Eh     change       -0.3421224E-04 Eh
   gradient norm :     0.0030920 Eh/α   predicted    -0.2425583E-04 ( -29.10%)
   displ. norm   :     0.1593599 α      lambda       -0.3796975E-04
   maximum displ.:     0.0989274 α      in ANC's #1, #2, #6, ...

........................................................................
.............................. CYCLE   18 ..............................
........................................................................

 iter      E             dE          RMSdq      gap      omega  full diag
   1    -69.6466173 -0.696466E+02  0.315E-02    2.45       0.0  T
   2    -69.6466175 -0.269305E-06  0.183E-02    2.45       1.0  T
   3    -69.6466170  0.475958E-06  0.355E-03    2.45       4.2  T
   4    -69.6466176 -0.556422E-06  0.947E-04    2.45      15.6  T
   5    -69.6466176 -0.261010E-07  0.329E-04    2.45      44.9  T
     SCC iter.                  ...        0 min,  0.015 sec
     gradient                   ...        0 min,  0.008 sec
 * total energy  :   -68.4934273 Eh     change       -0.2799644E-04 Eh
   gradient norm :     0.0026197 Eh/α   predicted    -0.1946865E-04 ( -30.46%)
   displ. norm   :     0.1232249 α      lambda       -0.2878598E-04
   maximum displ.:     0.0820519 α      in ANC's #1, #7, #2, ...

........................................................................
.............................. CYCLE   19 ..............................
........................................................................

 iter      E             dE          RMSdq      gap      omega  full diag
   1    -69.6468654 -0.696469E+02  0.240E-02    2.45       0.0  T
   2    -69.6468656 -0.196380E-06  0.139E-02    2.45       1.1  T
   3    -69.6468653  0.328055E-06  0.301E-03    2.45       4.9  T
   4    -69.6468657 -0.381331E-06  0.842E-04    2.45      17.5  T
   5    -69.6468657 -0.219584E-07  0.244E-04    2.45      60.4  T
     SCC iter.                  ...        0 min,  0.015 sec
     gradient                   ...        0 min,  0.006 sec
 * total energy  :   -68.4934500 Eh     change       -0.2274916E-04 Eh
   gradient norm :     0.0017036 Eh/α   predicted    -0.1461391E-04 ( -35.76%)
   displ. norm   :     0.2028232 α      lambda       -0.3028978E-04
   maximum displ.:     0.1282561 α      in ANC's #1, #7, #2, ...

........................................................................
.............................. CYCLE   20 ..............................
........................................................................

 iter      E             dE          RMSdq      gap      omega  full diag
   1    -69.6471857 -0.696472E+02  0.444E-02    2.45       0.0  T
   2    -69.6471863 -0.624216E-06  0.258E-02    2.45       1.0  T
   3    -69.6471854  0.949992E-06  0.516E-03    2.45       2.9  T
   4    -69.6471865 -0.109443E-05  0.143E-03    2.45      10.3  T
   5    -69.6471865 -0.719755E-07  0.394E-04    2.45      37.4  T
   6    -69.6471865 -0.868994E-09  0.212E-04    2.45      69.6  T
     SCC iter.                  ...        0 min,  0.017 sec
     gradient                   ...        0 min,  0.006 sec
 * total energy  :   -68.4934614 Eh     change       -0.1137501E-04 Eh
   gradient norm :     0.0029584 Eh/α   predicted    -0.1542358E-04 (  35.59%)
   displ. norm   :     0.0460769 α      lambda       -0.1922145E-04
   maximum displ.:     0.0301206 α      in ANC's #1, #3, #2, ...
 * RMSD in coord.:     0.4693642 α      energy gain  -0.3306309E-01 Eh

generating ANC from exact Hessian ...
Using Lindh-Hessian (1995)
 Shifting diagonal of input Hessian by   9.674607114720363E-003
 Lowest  eigenvalues of input Hessian
    0.000000    0.000000    0.000000    0.000000    0.000000    0.000000
    0.010000    0.010114    0.010389    0.010513    0.010913    0.011139
    0.011526    0.012467    0.013455    0.014695    0.015003    0.016722
 Highest eigenvalues
    1.993280    1.995360    2.001201    2.010215    2.158126    2.575507
 

........................................................................
.............................. CYCLE   21 ..............................
........................................................................

 iter      E             dE          RMSdq      gap      omega  full diag
   1    -69.6467565 -0.696468E+02  0.105E-02    2.45       0.0  T
   2    -69.6467566 -0.645961E-07  0.610E-03    2.45       2.4  T
   3    -69.6467566  0.516347E-07  0.131E-03    2.45      11.3  T
   4    -69.6467566 -0.631643E-07  0.295E-04    2.45      50.0  T
   5    -69.6467566 -0.154526E-08  0.150E-04    2.45      98.2  T
     SCC iter.                  ...        0 min,  0.014 sec
     gradient                   ...        0 min,  0.008 sec
 * total energy  :   -68.4934768 Eh     change       -0.1537150E-04 Eh
   gradient norm :     0.0019933 Eh/α   predicted     0.0000000E+00 (-100.00%)
   displ. norm   :     0.0390090 α      lambda       -0.1355141E-04
   maximum displ.:     0.0211929 α      in ANC's #1, #6, #3, ...

........................................................................
.............................. CYCLE   22 ..............................
........................................................................

 iter      E             dE          RMSdq      gap      omega  full diag
   1    -69.6466929 -0.696467E+02  0.122E-02    2.45       0.0  T
   2    -69.6466930 -0.104837E-06  0.692E-03    2.45       2.1  T
   3    -69.6466930  0.641426E-07  0.196E-03    2.45       7.5  T
   4    -69.6466930 -0.695937E-07  0.680E-04    2.45      21.7  T
   5    -69.6466931 -0.175018E-07  0.211E-04    2.45      70.0  T
     SCC iter.                  ...        0 min,  0.028 sec
     gradient                   ...        0 min,  0.008 sec
 * total energy  :   -68.4934916 Eh     change       -0.1482947E-04 Eh
   gradient norm :     0.0006537 Eh/α   predicted    -0.6981706E-05 ( -52.92%)
   displ. norm   :     0.0760237 α      lambda       -0.1364958E-04
   maximum displ.:     0.0423520 α      in ANC's #1, #6, #3, ...

........................................................................
.............................. CYCLE   23 ..............................
........................................................................

 iter      E             dE          RMSdq      gap      omega  full diag
   1    -69.6466639 -0.696467E+02  0.199E-02    2.45       0.0  T
   2    -69.6466640 -0.103160E-06  0.115E-02    2.45       1.3  T
   3    -69.6466639  0.490872E-07  0.164E-03    2.45       9.0  T
   4    -69.6466640 -0.482270E-07  0.702E-04    2.45      21.0  T
   5    -69.6466640 -0.215653E-07  0.228E-04    2.45      64.6  T
     SCC iter.                  ...        0 min,  0.014 sec
     gradient                   ...        0 min,  0.007 sec
 * total energy  :   -68.4935067 Eh     change       -0.1511630E-04 Eh
   gradient norm :     0.0010768 Eh/α   predicted    -0.6849591E-05 ( -54.69%)
   displ. norm   :     0.0921332 α      lambda       -0.1150577E-04
   maximum displ.:     0.0545204 α      in ANC's #1, #6, #3, ...

........................................................................
.............................. CYCLE   24 ..............................
........................................................................

 iter      E             dE          RMSdq      gap      omega  full diag
   1    -69.6466310 -0.696466E+02  0.228E-02    2.45       0.0  T
   2    -69.6466311 -0.656523E-07  0.134E-02    2.45       1.1  T
   3    -69.6466309  0.153640E-06  0.196E-03    2.45       7.5  T
   4    -69.6466311 -0.177869E-06  0.445E-04    2.45      33.1  T
   5    -69.6466311 -0.670410E-08  0.169E-04    2.45      87.2  T
     SCC iter.                  ...        0 min,  0.014 sec
     gradient                   ...        0 min,  0.006 sec
 * total energy  :   -68.4935209 Eh     change       -0.1419299E-04 Eh
   gradient norm :     0.0014197 Eh/α   predicted    -0.5774834E-05 ( -59.31%)
   displ. norm   :     0.1280121 α      lambda       -0.1434840E-04
   maximum displ.:     0.0774627 α      in ANC's #1, #6, #3, ...

........................................................................
.............................. CYCLE   25 ..............................
........................................................................

 iter      E             dE          RMSdq      gap      omega  full diag
   1    -69.6465955 -0.696466E+02  0.328E-02    2.45       0.0  T
   2    -69.6465956 -0.924365E-07  0.193E-02    2.45       1.0  T
   3    -69.6465952  0.390767E-06  0.293E-03    2.45       5.0  T
   4    -69.6465957 -0.454294E-06  0.441E-04    2.45      33.4  T
   5    -69.6465957 -0.362722E-08  0.212E-04    2.45      69.4  T
     SCC iter.                  ...        0 min,  0.014 sec
     gradient                   ...        0 min,  0.007 sec
 * total energy  :   -68.4935386 Eh     change       -0.1771668E-04 Eh
   gradient norm :     0.0011376 Eh/α   predicted    -0.7249123E-05 ( -59.08%)
   displ. norm   :     0.1605866 α      lambda       -0.1526378E-04
   maximum displ.:     0.1004608 α      in ANC's #1, #6, #3, ...

........................................................................
.............................. CYCLE   26 ..............................
........................................................................

 iter      E             dE          RMSdq      gap      omega  full diag
   1    -69.6465938 -0.696466E+02  0.420E-02    2.45       0.0  T
   2    -69.6465939 -0.145517E-06  0.245E-02    2.45       1.0  T
   3    -69.6465935  0.452154E-06  0.328E-03    2.45       4.5  T
   4    -69.6465940 -0.531849E-06  0.709E-04    2.45      20.8  T
   5    -69.6465940 -0.135433E-07  0.284E-04    2.45      51.8  T
     SCC iter.                  ...        0 min,  0.018 sec
     gradient                   ...        0 min,  0.006 sec
 * total energy  :   -68.4935564 Eh     change       -0.1774015E-04 Eh
   gradient norm :     0.0005481 Eh/α   predicted    -0.7719558E-05 ( -56.49%)
   displ. norm   :     0.1239875 α      lambda       -0.9778572E-05
   maximum displ.:     0.0827046 α      in ANC's #1, #5, #6, ...

........................................................................
.............................. CYCLE   27 ..............................
........................................................................

 iter      E             dE          RMSdq      gap      omega  full diag
   1    -69.6467602 -0.696468E+02  0.337E-02    2.45       0.0  T
   2    -69.6467603 -0.907667E-07  0.197E-02    2.45       1.0  T
   3    -69.6467600  0.225805E-06  0.229E-03    2.45       6.4  T
   4    -69.6467603 -0.272649E-06  0.510E-04    2.45      28.9  T
   5    -69.6467603 -0.603841E-08  0.211E-04    2.45      69.8  T
     SCC iter.                  ...        0 min,  0.014 sec
     gradient                   ...        0 min,  0.006 sec
 * total energy  :   -68.4935683 Eh     change       -0.1191482E-04 Eh
   gradient norm :     0.0004099 Eh/α   predicted    -0.4932495E-05 ( -58.60%)
   displ. norm   :     0.0890215 α      lambda       -0.7525421E-05
   maximum displ.:     0.0634283 α      in ANC's #1, #5, #6, ...

........................................................................
.............................. CYCLE   28 ..............................
........................................................................

 iter      E             dE          RMSdq      gap      omega  full diag
   1    -69.6469668 -0.696470E+02  0.245E-02    2.45       0.0  T
   2    -69.6469669 -0.506565E-07  0.143E-02    2.45       1.0  T
   3    -69.6469668  0.763228E-07  0.139E-03    2.45      10.6  T
   4    -69.6469669 -0.974738E-07  0.399E-04    2.45      37.0  T
   5    -69.6469669 -0.371389E-08  0.155E-04    2.45      94.9  T
     SCC iter.                  ...        0 min,  0.014 sec
     gradient                   ...        0 min,  0.006 sec
 * total energy  :   -68.4935782 Eh     change       -0.9898375E-05 Eh
   gradient norm :     0.0005045 Eh/α   predicted    -0.3778074E-05 ( -61.83%)
   displ. norm   :     0.0908540 α      lambda       -0.8817658E-05
   maximum displ.:     0.0647078 α      in ANC's #1, #5, #7, ...

........................................................................
.............................. CYCLE   29 ..............................
........................................................................

 iter      E             dE          RMSdq      gap      omega  full diag
   1    -69.6470778 -0.696471E+02  0.245E-02    2.45       0.0  T
   2    -69.6470779 -0.541626E-07  0.144E-02    2.45       1.0  T
   3    -69.6470778  0.109724E-06  0.161E-03    2.45       9.2  T
   4    -69.6470779 -0.135485E-06  0.359E-04    2.45      41.1  T
   5    -69.6470779 -0.224011E-08  0.198E-04    2.45      74.6  T
     SCC iter.                  ...        0 min,  0.014 sec
     gradient                   ...        0 min,  0.006 sec
 * total energy  :   -68.4935900 Eh     change       -0.1184295E-04 Eh
   gradient norm :     0.0005380 Eh/α   predicted    -0.4428818E-05 ( -62.60%)
   displ. norm   :     0.1281823 α      lambda       -0.1239115E-04
   maximum displ.:     0.0884711 α      in ANC's #1, #5, #7, ...

........................................................................
.............................. CYCLE   30 ..............................
........................................................................

 iter      E             dE          RMSdq      gap      omega  full diag
   1    -69.6470179 -0.696470E+02  0.334E-02    2.44       0.0  T
   2    -69.6470180 -0.101816E-06  0.197E-02    2.44       1.0  T
   3    -69.6470179  0.182744E-06  0.219E-03    2.45       6.7  T
   4    -69.6470181 -0.228919E-06  0.535E-04    2.45      27.6  T
   5    -69.6470181 -0.471444E-08  0.304E-04    2.44      48.5  T
     SCC iter.                  ...        0 min,  0.017 sec
     gradient                   ...        0 min,  0.008 sec
 * total energy  :   -68.4936065 Eh     change       -0.1650850E-04 Eh
   gradient norm :     0.0005115 Eh/α   predicted    -0.6241857E-05 ( -62.19%)
   displ. norm   :     0.1773058 α      lambda       -0.1597295E-04
   maximum displ.:     0.1210240 α      in ANC's #1, #5, #7, ...

........................................................................
.............................. CYCLE   31 ..............................
........................................................................

 iter      E             dE          RMSdq      gap      omega  full diag
   1    -69.6468230 -0.696468E+02  0.455E-02    2.44       0.0  T
   2    -69.6468232 -0.176173E-06  0.268E-02    2.44       1.0  T
   3    -69.6468229  0.283917E-06  0.298E-03    2.44       5.0  T
   4    -69.6468233 -0.363366E-06  0.706E-04    2.44      20.9  T
   5    -69.6468233 -0.681050E-08  0.440E-04    2.44      33.5  T
     SCC iter.                  ...        0 min,  0.017 sec
     gradient                   ...        0 min,  0.005 sec
 * total energy  :   -68.4936277 Eh     change       -0.2119257E-04 Eh
   gradient norm :     0.0005066 Eh/α   predicted    -0.8099245E-05 ( -61.78%)
   displ. norm   :     0.2373242 α      lambda       -0.1976217E-04
   maximum displ.:     0.1616928 α      in ANC's #1, #5, #14, ...

........................................................................
.............................. CYCLE   32 ..............................
........................................................................

 iter      E             dE          RMSdq      gap      omega  full diag
   1    -69.6464470 -0.696464E+02  0.610E-02    2.44       0.0  T
   2    -69.6464473 -0.302536E-06  0.359E-02    2.44       1.0  T
   3    -69.6464468  0.523016E-06  0.413E-03    2.44       3.6  T
   4    -69.6464474 -0.670812E-06  0.932E-04    2.44      15.8  T
   5    -69.6464474 -0.751085E-08  0.595E-04    2.44      24.8  T
     SCC iter.                  ...        0 min,  0.017 sec
     gradient                   ...        0 min,  0.008 sec
 * total energy  :   -68.4936538 Eh     change       -0.2612550E-04 Eh
   gradient norm :     0.0006881 Eh/α   predicted    -0.1012976E-04 ( -61.23%)
   displ. norm   :     0.3205896 α      lambda       -0.2494229E-04
   maximum displ.:     0.2191031 α      in ANC's #1, #5, #14, ...

........................................................................
.............................. CYCLE   33 ..............................
........................................................................

 iter      E             dE          RMSdq      gap      omega  full diag
   1    -69.6458300 -0.696458E+02  0.824E-02    2.44       0.0  T
   2    -69.6458305 -0.514835E-06  0.485E-02    2.44       1.0  T
   3    -69.6458297  0.779400E-06  0.524E-03    2.44       2.8  T
   4    -69.6458307 -0.103216E-05  0.120E-03    2.44      12.3  T
   5    -69.6458307 -0.101569E-07  0.776E-04    2.44      19.0  T
   6    -69.6458307 -0.228749E-08  0.246E-04    2.44      59.8  T
     SCC iter.                  ...        0 min,  0.020 sec
     gradient                   ...        0 min,  0.008 sec
 * total energy  :   -68.4936859 Eh     change       -0.3201449E-04 Eh
   gradient norm :     0.0011569 Eh/α   predicted    -0.1304245E-04 ( -59.26%)
   displ. norm   :     0.4545852 α      lambda       -0.3282309E-04
   maximum displ.:     0.3120385 α      in ANC's #1, #5, #14, ...

........................................................................
.............................. CYCLE   34 ..............................
........................................................................

 iter      E             dE          RMSdq      gap      omega  full diag
   1    -69.6446175 -0.696446E+02  0.117E-01    2.44       0.0  T
   2    -69.6446185 -0.102781E-05  0.691E-02    2.44       1.0  T
   3    -69.6446168  0.170213E-05  0.761E-03    2.44       1.9  T
   4    -69.6446191 -0.222841E-05  0.168E-03    2.44       8.8  T
   5    -69.6446191 -0.139708E-07  0.109E-03    2.44      13.6  T
   6    -69.6446191 -0.447044E-08  0.367E-04    2.44      40.1  T
   7    -69.6446191 -0.502747E-08  0.857E-05    2.44     172.1  T
     SCC iter.                  ...        0 min,  0.023 sec
     gradient                   ...        0 min,  0.007 sec
 * total energy  :   -68.4937235 Eh     change       -0.3761108E-04 Eh
   gradient norm :     0.0020825 Eh/α   predicted    -0.1791905E-04 ( -52.36%)
   displ. norm   :     0.3174645 α      lambda       -0.3488566E-04
   maximum displ.:     0.2198972 α      in ANC's #1, #5, #2, ...

........................................................................
.............................. CYCLE   35 ..............................
........................................................................

 iter      E             dE          RMSdq      gap      omega  full diag
   1    -69.6445858 -0.696446E+02  0.823E-02    2.44       0.0  T
   2    -69.6445862 -0.455990E-06  0.484E-02    2.44       1.0  T
   3    -69.6445855  0.738912E-06  0.502E-03    2.44       2.9  T
   4    -69.6445865 -0.986482E-06  0.109E-03    2.44      13.6  T
   5    -69.6445865 -0.270741E-08  0.678E-04    2.44      21.8  T
   6    -69.6445865 -0.187730E-08  0.252E-04    2.44      58.5  T
     SCC iter.                  ...        0 min,  0.018 sec
     gradient                   ...        0 min,  0.006 sec
 * total energy  :   -68.4937519 Eh     change       -0.2838642E-04 Eh
   gradient norm :     0.0021576 Eh/α   predicted    -0.1920116E-04 ( -32.36%)
   displ. norm   :     0.3847700 α      lambda       -0.5181076E-04
   maximum displ.:     0.2653613 α      in ANC's #1, #5, #2, ...

........................................................................
.............................. CYCLE   36 ..............................
........................................................................

 iter      E             dE          RMSdq      gap      omega  full diag
   1    -69.6454225 -0.696454E+02  0.101E-01    2.44       0.0  T
   2    -69.6454231 -0.675114E-06  0.591E-02    2.44       1.0  T
   3    -69.6454220  0.113219E-05  0.604E-03    2.44       2.4  T
   4    -69.6454235 -0.150164E-05  0.129E-03    2.44      11.5  T
   5    -69.6454235 -0.502845E-08  0.760E-04    2.44      19.4  T
   6    -69.6454235 -0.269533E-08  0.292E-04    2.44      50.6  T
     SCC iter.                  ...        0 min,  0.017 sec
     gradient                   ...        0 min,  0.006 sec
 * total energy  :   -68.4937927 Eh     change       -0.4079678E-04 Eh
   gradient norm :     0.0016920 Eh/α   predicted    -0.2974292E-04 ( -27.09%)
   displ. norm   :     0.5560338 α      lambda       -0.5034101E-04
   maximum displ.:     0.3729241 α      in ANC's #1, #5, #2, ...

........................................................................
.............................. CYCLE   37 ..............................
........................................................................

 iter      E             dE          RMSdq      gap      omega  full diag
   1    -69.6457251 -0.696457E+02  0.147E-01    2.44       0.0  T
   2    -69.6457266 -0.150025E-05  0.861E-02    2.45       1.0  T
   3    -69.6457240  0.269050E-05  0.888E-03    2.44       1.7  T
   4    -69.6457274 -0.347661E-05  0.189E-03    2.45       7.8  T
   5    -69.6457275 -0.432130E-07  0.106E-03    2.45      13.9  T
   6    -69.6457275 -0.639295E-08  0.405E-04    2.45      36.5  T
   7    -69.6457275 -0.594638E-08  0.119E-04    2.45     124.4  T
     SCC iter.                  ...        0 min,  0.019 sec
     gradient                   ...        0 min,  0.006 sec
 * total energy  :   -68.4938468 Eh     change       -0.5412334E-04 Eh
   gradient norm :     0.0018332 Eh/α   predicted    -0.2862991E-04 ( -47.10%)
   displ. norm   :     0.2459990 α      lambda       -0.4547336E-04
   maximum displ.:     0.1242714 α      in ANC's #1, #5, #7, ...

........................................................................
.............................. CYCLE   38 ..............................
........................................................................

 iter      E             dE          RMSdq      gap      omega  full diag
   1    -69.6516363 -0.696516E+02  0.700E-02    2.45       0.0  T
   2    -69.6516371 -0.773184E-06  0.409E-02    2.45       1.0  T
   3    -69.6516362  0.866661E-06  0.539E-03    2.45       2.7  T
   4    -69.6516373 -0.100834E-05  0.162E-03    2.45       9.1  T
   5    -69.6516374 -0.106257E-06  0.579E-04    2.45      25.5  T
   6    -69.6516374 -0.222440E-08  0.255E-04    2.45      57.9  T
     SCC iter.                  ...        0 min,  0.017 sec
     gradient                   ...        0 min,  0.006 sec
 * total energy  :   -68.4938576 Eh     change       -0.1086838E-04 Eh
   gradient norm :     0.0042901 Eh/α   predicted    -0.2334858E-04 ( 114.83%)
   displ. norm   :     0.4643129 α      lambda       -0.7938427E-04
   maximum displ.:     0.2934450 α      in ANC's #1, #5, #2, ...

........................................................................
.............................. CYCLE   39 ..............................
........................................................................

 iter      E             dE          RMSdq      gap      omega  full diag
   1    -69.6465003 -0.696465E+02  0.126E-01    2.45       0.0  T
   2    -69.6465019 -0.157328E-05  0.739E-02    2.45       1.0  T
   3    -69.6464989  0.292797E-05  0.890E-03    2.45       1.7  T
   4    -69.6465026 -0.365183E-05  0.172E-03    2.45       8.6  T
   5    -69.6465026 -0.425800E-07  0.955E-04    2.45      15.4  T
   6    -69.6465026 -0.544044E-08  0.462E-04    2.45      31.9  T
     SCC iter.                  ...        0 min,  0.016 sec
     gradient                   ...        0 min,  0.008 sec
 * total energy  :   -68.4939040 Eh     change       -0.4634127E-04 Eh
   gradient norm :     0.0017489 Eh/α   predicted    -0.4825922E-04 (   4.14%)
   displ. norm   :     0.0482203 α      lambda       -0.1178379E-04
   maximum displ.:     0.0370058 α      in ANC's #1, #11, #5, ...

........................................................................
.............................. CYCLE   40 ..............................
........................................................................

 iter      E             dE          RMSdq      gap      omega  full diag
   1    -69.6470383 -0.696470E+02  0.158E-02    2.45       0.0  T
   2    -69.6470384 -0.722934E-07  0.948E-03    2.45       1.6  T
   3    -69.6470383  0.981533E-07  0.188E-03    2.45       7.8  T
   4    -69.6470384 -0.114440E-06  0.491E-04    2.45      30.0  T
   5    -69.6470384 -0.373652E-08  0.293E-04    2.45      50.3  T
     SCC iter.                  ...        0 min,  0.028 sec
     gradient                   ...        0 min,  0.008 sec
 * total energy  :   -68.4939116 Eh     change       -0.7593329E-05 Eh
   gradient norm :     0.0018025 Eh/α   predicted    -0.5901384E-05 ( -22.28%)
   displ. norm   :     0.0659519 α      lambda       -0.1144090E-04
   maximum displ.:     0.0365024 α      in ANC's #5, #2, #11, ...

........................................................................
.............................. CYCLE   41 ..............................
........................................................................

 iter      E             dE          RMSdq      gap      omega  full diag
   1    -69.6470388 -0.696470E+02  0.218E-02    2.45       0.0  T
   2    -69.6470389 -0.647729E-07  0.128E-02    2.45       1.2  T
   3    -69.6470388  0.983570E-07  0.162E-03    2.45       9.1  T
   4    -69.6470389 -0.118225E-06  0.538E-04    2.45      27.4  T
   5    -69.6470389 -0.564600E-08  0.216E-04    2.45      68.2  T
     SCC iter.                  ...        0 min,  0.024 sec
     gradient                   ...        0 min,  0.006 sec
 * total energy  :   -68.4939243 Eh     change       -0.1270510E-04 Eh
   gradient norm :     0.0008482 Eh/α   predicted    -0.5732662E-05 ( -54.88%)
   displ. norm   :     0.1297948 α      lambda       -0.1248701E-04
   maximum displ.:     0.0817853 α      in ANC's #5, #2, #11, ...

........................................................................
.............................. CYCLE   42 ..............................
........................................................................

 iter      E             dE          RMSdq      gap      omega  full diag
   1    -69.6470358 -0.696470E+02  0.407E-02    2.45       0.0  T
   2    -69.6470360 -0.186989E-06  0.240E-02    2.45       1.0  T
   3    -69.6470354  0.559770E-06  0.374E-03    2.45       3.9  T
   4    -69.6470361 -0.661645E-06  0.666E-04    2.45      22.1  T
   5    -69.6470361 -0.221786E-08  0.347E-04    2.45      42.4  T
     SCC iter.                  ...        0 min,  0.016 sec
     gradient                   ...        0 min,  0.006 sec
 * total energy  :   -68.4939359 Eh     change       -0.1158697E-04 Eh
   gradient norm :     0.0013604 Eh/α   predicted    -0.6290851E-05 ( -45.71%)
   displ. norm   :     0.1218805 α      lambda       -0.1021754E-04
   maximum displ.:     0.0789677 α      in ANC's #5, #2, #14, ...
 * RMSD in coord.:     0.5784052 α      energy gain  -0.4744770E-03 Eh

generating ANC from exact Hessian ...
Using Lindh-Hessian (1995)
 Shifting diagonal of input Hessian by   9.689503806380078E-003
 Lowest  eigenvalues of input Hessian
    0.000000    0.000000    0.000000    0.000000    0.000000    0.000000
    0.010000    0.010121    0.010411    0.010538    0.010968    0.011118
    0.011525    0.012505    0.013289    0.014692    0.014999    0.016766
 Highest eigenvalues
    1.992804    1.994648    2.000460    2.010308    2.165118    2.572898
 

........................................................................
.............................. CYCLE   43 ..............................
........................................................................

 iter      E             dE          RMSdq      gap      omega  full diag
   1    -69.6469467 -0.696469E+02  0.369E-02    2.45       0.0  T
   2    -69.6469469 -0.138531E-06  0.217E-02    2.45       1.0  T
   3    -69.6469466  0.267770E-06  0.269E-03    2.45       5.5  T
   4    -69.6469469 -0.327254E-06  0.601E-04    2.45      24.5  T
   5    -69.6469469 -0.706966E-08  0.297E-04    2.45      49.6  T
     SCC iter.                  ...        0 min,  0.016 sec
     gradient                   ...        0 min,  0.006 sec
 * total energy  :   -68.4939471 Eh     change       -0.1120177E-04 Eh
   gradient norm :     0.0016305 Eh/α   predicted     0.0000000E+00 (-100.00%)
   displ. norm   :     0.0372427 α      lambda       -0.1317404E-04
   maximum displ.:     0.0166204 α      in ANC's #1, #11, #5, ...

........................................................................
.............................. CYCLE   44 ..............................
........................................................................

 iter      E             dE          RMSdq      gap      omega  full diag
   1    -69.6476018 -0.696476E+02  0.137E-02    2.45       0.0  T
   2    -69.6476018 -0.553945E-07  0.795E-03    2.45       1.9  T
   3    -69.6476018  0.368962E-07  0.116E-03    2.45      12.8  T
   4    -69.6476018 -0.419289E-07  0.471E-04    2.45      31.3  T
   5    -69.6476018 -0.719601E-08  0.165E-04    2.45      89.5  T
     SCC iter.                  ...        0 min,  0.016 sec
     gradient                   ...        0 min,  0.008 sec
 * total energy  :   -68.4939605 Eh     change       -0.1342401E-04 Eh
   gradient norm :     0.0004858 Eh/α   predicted    -0.6612228E-05 ( -50.74%)
   displ. norm   :     0.0719997 α      lambda       -0.1279770E-04
   maximum displ.:     0.0347326 α      in ANC's #1, #5, #11, ...

........................................................................
.............................. CYCLE   45 ..............................
........................................................................

 iter      E             dE          RMSdq      gap      omega  full diag
   1    -69.6478452 -0.696478E+02  0.217E-02    2.45       0.0  T
   2    -69.6478452 -0.640008E-07  0.127E-02    2.45       1.2  T
   3    -69.6478451  0.138872E-06  0.181E-03    2.45       8.1  T
   4    -69.6478452 -0.161362E-06  0.526E-04    2.45      28.0  T
   5    -69.6478452 -0.714736E-08  0.229E-04    2.45      64.4  T
     SCC iter.                  ...        0 min,  0.018 sec
     gradient                   ...        0 min,  0.006 sec
 * total energy  :   -68.4939743 Eh     change       -0.1380411E-04 Eh
   gradient norm :     0.0012062 Eh/α   predicted    -0.6425007E-05 ( -53.46%)
   displ. norm   :     0.1004430 α      lambda       -0.1215744E-04
   maximum displ.:     0.0523672 α      in ANC's #1, #5, #4, ...

........................................................................
.............................. CYCLE   46 ..............................
........................................................................

 iter      E             dE          RMSdq      gap      omega  full diag
   1    -69.6475073 -0.696475E+02  0.285E-02    2.45       0.0  T
   2    -69.6475074 -0.688815E-07  0.169E-02    2.45       1.0  T
   3    -69.6475072  0.222901E-06  0.227E-03    2.45       6.5  T
   4    -69.6475074 -0.264157E-06  0.381E-04    2.45      38.7  T
   5    -69.6475074 -0.184575E-08  0.237E-04    2.45      62.2  T
     SCC iter.                  ...        0 min,  0.027 sec
     gradient                   ...        0 min,  0.005 sec
 * total energy  :   -68.4939879 Eh     change       -0.1359402E-04 Eh
   gradient norm :     0.0009479 Eh/α   predicted    -0.6106287E-05 ( -55.08%)
   displ. norm   :     0.1165477 α      lambda       -0.1197547E-04
   maximum displ.:     0.0636706 α      in ANC's #1, #5, #4, ...

........................................................................
.............................. CYCLE   47 ..............................
........................................................................

 iter      E             dE          RMSdq      gap      omega  full diag
   1    -69.6472101 -0.696472E+02  0.322E-02    2.45       0.0  T
   2    -69.6472102 -0.898511E-07  0.190E-02    2.45       1.0  T
   3    -69.6472100  0.191425E-06  0.216E-03    2.45       6.8  T
   4    -69.6472103 -0.236333E-06  0.415E-04    2.45      35.5  T
   5    -69.6472103 -0.278449E-08  0.247E-04    2.45      59.8  T
     SCC iter.                  ...        0 min,  0.014 sec
     gradient                   ...        0 min,  0.007 sec
 * total energy  :   -68.4940032 Eh     change       -0.1535101E-04 Eh
   gradient norm :     0.0005271 Eh/α   predicted    -0.6024594E-05 ( -60.75%)
   displ. norm   :     0.1823755 α      lambda       -0.1938495E-04
   maximum displ.:     0.1000258 α      in ANC's #1, #5, #4, ...

........................................................................
.............................. CYCLE   48 ..............................
........................................................................

 iter      E             dE          RMSdq      gap      omega  full diag
   1    -69.6467066 -0.696467E+02  0.492E-02    2.45       0.0  T
   2    -69.6467068 -0.223128E-06  0.289E-02    2.45       1.0  T
   3    -69.6467065  0.291574E-06  0.266E-03    2.45       5.5  T
   4    -69.6467069 -0.384308E-06  0.600E-04    2.45      24.6  T
   5    -69.6467069 -0.697997E-08  0.299E-04    2.45      49.3  T
     SCC iter.                  ...        0 min,  0.014 sec
     gradient                   ...        0 min,  0.007 sec
 * total energy  :   -68.4940287 Eh     change       -0.2547127E-04 Eh
   gradient norm :     0.0010796 Eh/α   predicted    -0.9843250E-05 ( -61.36%)
   displ. norm   :     0.2924123 α      lambda       -0.3032135E-04
   maximum displ.:     0.1609203 α      in ANC's #1, #5, #2, ...

........................................................................
.............................. CYCLE   49 ..............................
........................................................................

 iter      E             dE          RMSdq      gap      omega  full diag
   1    -69.6459606 -0.696460E+02  0.796E-02    2.45       0.0  T
   2    -69.6459612 -0.589334E-06  0.467E-02    2.46       1.0  T
   3    -69.6459604  0.829802E-06  0.453E-03    2.46       3.3  T
   4    -69.6459615 -0.109101E-05  0.923E-04    2.46      16.0  T
   5    -69.6459615 -0.938375E-08  0.467E-04    2.46      31.6  T
   6    -69.6459615 -0.196010E-09  0.213E-04    2.46      69.3  T
     SCC iter.                  ...        0 min,  0.030 sec
     gradient                   ...        0 min,  0.009 sec
 * total energy  :   -68.4940660 Eh     change       -0.3727835E-04 Eh
   gradient norm :     0.0021878 Eh/α   predicted    -0.1576459E-04 ( -57.71%)
   displ. norm   :     0.2158766 α      lambda       -0.3141500E-04
   maximum displ.:     0.1211485 α      in ANC's #1, #5, #2, ...

........................................................................
.............................. CYCLE   50 ..............................
........................................................................

 iter      E             dE          RMSdq      gap      omega  full diag
   1    -69.6458264 -0.696458E+02  0.601E-02    2.46       0.0  T
   2    -69.6458267 -0.318794E-06  0.353E-02    2.46       1.0  T
   3    -69.6458261  0.584418E-06  0.385E-03    2.46       3.8  T
   4    -69.6458269 -0.741041E-06  0.700E-04    2.46      21.1  T
   5    -69.6458269 -0.315291E-08  0.387E-04    2.46      38.1  T
     SCC iter.                  ...        0 min,  0.028 sec
     gradient                   ...        0 min,  0.009 sec
 * total energy  :   -68.4940932 Eh     change       -0.2718074E-04 Eh
   gradient norm :     0.0024600 Eh/α   predicted    -0.1644131E-04 ( -39.51%)
   displ. norm   :     0.3074478 α      lambda       -0.4528010E-04
   maximum displ.:     0.1750233 α      in ANC's #1, #5, #2, ...

........................................................................
.............................. CYCLE   51 ..............................
........................................................................

 iter      E             dE          RMSdq      gap      omega  full diag
   1    -69.6457345 -0.696457E+02  0.877E-02    2.46       0.0  T
   2    -69.6457352 -0.697404E-06  0.515E-02    2.46       1.0  T
   3    -69.6457336  0.151134E-05  0.618E-03    2.46       2.4  T
   4    -69.6457355 -0.186839E-05  0.108E-03    2.46      13.6  T
   5    -69.6457355 -0.784100E-08  0.624E-04    2.46      23.6  T
   6    -69.6457355 -0.280923E-08  0.234E-04    2.46      62.9  T
     SCC iter.                  ...        0 min,  0.033 sec
     gradient                   ...        0 min,  0.008 sec
 * total energy  :   -68.4941305 Eh     change       -0.3728352E-04 Eh
   gradient norm :     0.0025393 Eh/α   predicted    -0.2478132E-04 ( -33.53%)
   displ. norm   :     0.3638714 α      lambda       -0.5248688E-04
   maximum displ.:     0.2107011 α      in ANC's #1, #5, #2, ...

........................................................................
.............................. CYCLE   52 ..............................
........................................................................

 iter      E             dE          RMSdq      gap      omega  full diag
   1    -69.6456969 -0.696457E+02  0.106E-01    2.46       0.0  T
   2    -69.6456979 -0.101242E-05  0.625E-02    2.46       1.0  T
   3    -69.6456954  0.248928E-05  0.799E-03    2.46       1.8  T
   4    -69.6456984 -0.302233E-05  0.137E-03    2.46      10.7  T
   5    -69.6456985 -0.167607E-07  0.815E-04    2.46      18.1  T
   6    -69.6456985 -0.442360E-08  0.306E-04    2.46      48.1  T
     SCC iter.                  ...        0 min,  0.017 sec
     gradient                   ...        0 min,  0.007 sec
 * total energy  :   -68.4941728 Eh     change       -0.4232602E-04 Eh
   gradient norm :     0.0024690 Eh/α   predicted    -0.2972048E-04 ( -29.78%)
   displ. norm   :     0.4124636 α      lambda       -0.6606700E-04
   maximum displ.:     0.2430611 α      in ANC's #1, #5, #2, ...

........................................................................
.............................. CYCLE   53 ..............................
........................................................................

 iter      E             dE          RMSdq      gap      omega  full diag
   1    -69.6462202 -0.696462E+02  0.123E-01    2.46       0.0  T
   2    -69.6462215 -0.136049E-05  0.726E-02    2.46       1.0  T
   3    -69.6462180  0.357086E-05  0.955E-03    2.46       1.5  T
   4    -69.6462222 -0.428633E-05  0.170E-03    2.46       8.7  T
   5    -69.6462223 -0.356414E-07  0.992E-04    2.46      14.9  T
   6    -69.6462223 -0.548769E-08  0.386E-04    2.46      38.2  T
     SCC iter.                  ...        0 min,  0.017 sec
     gradient                   ...        0 min,  0.006 sec
 * total energy  :   -68.4942260 Eh     change       -0.5317557E-04 Eh
   gradient norm :     0.0020731 Eh/α   predicted    -0.3865601E-04 ( -27.30%)
   displ. norm   :     0.4435576 α      lambda       -0.7954413E-04
   maximum displ.:     0.2635621 α      in ANC's #1, #5, #2, ...

........................................................................
.............................. CYCLE   54 ..............................
........................................................................

 iter      E             dE          RMSdq      gap      omega  full diag
   1    -69.6471254 -0.696471E+02  0.134E-01    2.46       0.0  T
   2    -69.6471270 -0.166464E-05  0.788E-02    2.46       1.0  T
   3    -69.6471226  0.438249E-05  0.105E-02    2.46       1.4  T
   4    -69.6471278 -0.521040E-05  0.195E-03    2.46       7.6  T
   5    -69.6471279 -0.715371E-07  0.107E-03    2.46      13.7  T
   6    -69.6471279 -0.339834E-08  0.449E-04    2.46      32.8  T
   7    -69.6471279 -0.542502E-08  0.165E-04    2.46      89.4  T
     SCC iter.                  ...        0 min,  0.026 sec
     gradient                   ...        0 min,  0.009 sec
 * total energy  :   -68.4942916 Eh     change       -0.6562386E-04 Eh
   gradient norm :     0.0017967 Eh/α   predicted    -0.4759705E-04 ( -27.47%)
   displ. norm   :     0.8670155 α      lambda       -0.9271759E-04
   maximum displ.:     0.5114630 α      in ANC's #1, #5, #2, ...

........................................................................
.............................. CYCLE   55 ..............................
........................................................................

 iter      E             dE          RMSdq      gap      omega  full diag
   1    -69.6432194 -0.696432E+02  0.263E-01    2.46       0.0  T
   2    -69.6432261 -0.675590E-05  0.155E-01    2.46       1.0  T
   3    -69.6432070  0.190766E-04  0.215E-02    2.46       1.0  T
   4    -69.6432296 -0.225615E-04  0.352E-03    2.46       4.2  T
   5    -69.6432298 -0.205231E-06  0.199E-03    2.46       7.4  T
   6    -69.6432298 -0.141435E-07  0.875E-04    2.46      16.8  T
   7    -69.6432299 -0.222354E-07  0.278E-04    2.46      53.1  T
     SCC iter.                  ...        0 min,  0.038 sec
     gradient                   ...        0 min,  0.009 sec
 * total energy  :   -68.4943608 Eh     change       -0.6923359E-04 Eh
   gradient norm :     0.0056010 Eh/α   predicted    -0.6185059E-04 ( -10.66%)
   displ. norm   :     0.3827220 α      lambda       -0.2603355E-03
   maximum displ.:     0.1904966 α      in ANC's #1, #5, #7, ...

........................................................................
.............................. CYCLE   56 ..............................
........................................................................

 iter      E             dE          RMSdq      gap      omega  full diag
   1    -69.6521675 -0.696522E+02  0.116E-01    2.45       0.0  T
   2    -69.6521707 -0.317454E-05  0.680E-02    2.46       1.0  T
   3    -69.6521650  0.567363E-05  0.125E-02    2.45       1.2  T
   4    -69.6521715 -0.647809E-05  0.322E-03    2.46       4.6  T
   5    -69.6521719 -0.392985E-06  0.114E-03    2.46      12.9  T
   6    -69.6521719 -0.636734E-08  0.601E-04    2.46      24.5  T
   7    -69.6521719 -0.665375E-08  0.228E-04    2.46      64.7  T
     SCC iter.                  ...        0 min,  0.024 sec
     gradient                   ...        0 min,  0.012 sec
 * total energy  :   -68.4943838 Eh     change       -0.2298478E-04 Eh
   gradient norm :     0.0062286 Eh/α   predicted    -0.1492340E-03 ( 549.27%)
   displ. norm   :     0.2428581 α      lambda       -0.1452411E-03
   maximum displ.:     0.1388969 α      in ANC's #1, #5, #2, ...

........................................................................
.............................. CYCLE   57 ..............................
........................................................................

 iter      E             dE          RMSdq      gap      omega  full diag
   1    -69.6471267 -0.696471E+02  0.766E-02    2.46       0.0  T
   2    -69.6471278 -0.109841E-05  0.448E-02    2.46       1.0  T
   3    -69.6471260  0.179372E-05  0.729E-03    2.46       2.0  T
   4    -69.6471282 -0.216522E-05  0.132E-03    2.46      11.2  T
   5    -69.6471282 -0.295720E-07  0.708E-04    2.46      20.8  T
   6    -69.6471282 -0.525947E-08  0.305E-04    2.46      48.4  T
     SCC iter.                  ...        0 min,  0.018 sec
     gradient                   ...        0 min,  0.007 sec
 * total energy  :   -68.4944639 Eh     change       -0.8008689E-04 Eh
   gradient norm :     0.0025964 Eh/α   predicted    -0.7690527E-04 (  -3.97%)
   displ. norm   :     0.0511580 α      lambda       -0.2568547E-04
   maximum displ.:     0.0252340 α      in ANC's #6, #1, #5, ...

........................................................................
.............................. CYCLE   58 ..............................
........................................................................

 iter      E             dE          RMSdq      gap      omega  full diag
   1    -69.6475573 -0.696476E+02  0.182E-02    2.46       0.0  T
   2    -69.6475574 -0.971523E-07  0.108E-02    2.46       1.4  T
   3    -69.6475573  0.128229E-06  0.206E-03    2.46       7.1  T
   4    -69.6475574 -0.143390E-06  0.616E-04    2.46      23.9  T
   5    -69.6475574 -0.143961E-07  0.234E-04    2.46      63.1  T
     SCC iter.                  ...        0 min,  0.015 sec
     gradient                   ...        0 min,  0.007 sec
 * total energy  :   -68.4944846 Eh     change       -0.2072830E-04 Eh
   gradient norm :     0.0019456 Eh/α   predicted    -0.1287909E-04 ( -37.87%)
   displ. norm   :     0.5491462 α      lambda       -0.7676416E-04
   maximum displ.:     0.3177670 α      in ANC's #1, #5, #6, ...

........................................................................
.............................. CYCLE   59 ..............................
........................................................................

 iter      E             dE          RMSdq      gap      omega  full diag
   1    -69.6462562 -0.696463E+02  0.177E-01    2.46       0.0  T
   2    -69.6462592 -0.296419E-05  0.104E-01    2.46       1.0  T
   3    -69.6462528  0.638954E-05  0.121E-02    2.46       1.2  T
   4    -69.6462604 -0.763869E-05  0.292E-03    2.46       5.0  T
   5    -69.6462606 -0.219885E-06  0.113E-03    2.46      13.1  T
   6    -69.6462607 -0.130631E-07  0.555E-04    2.46      26.6  T
   7    -69.6462607 -0.617443E-08  0.234E-04    2.46      63.0  T
     SCC iter.                  ...        0 min,  0.021 sec
     gradient                   ...        0 min,  0.006 sec
 * total energy  :   -68.4945432 Eh     change       -0.5859648E-04 Eh
   gradient norm :     0.0056617 Eh/α   predicted    -0.4353140E-04 ( -25.71%)
   displ. norm   :     0.1126770 α      lambda       -0.8337090E-04
   maximum displ.:     0.0518909 α      in ANC's #2, #9, #6, ...

........................................................................
.............................. CYCLE   60 ..............................
........................................................................

 iter      E             dE          RMSdq      gap      omega  full diag
   1    -69.6499789 -0.696500E+02  0.434E-02    2.46       0.0  T
   2    -69.6499793 -0.485856E-06  0.263E-02    2.46       1.0  T
   3    -69.6499775  0.187403E-05  0.705E-03    2.46       2.1  T
   4    -69.6499796 -0.212429E-05  0.112E-03    2.46      13.2  T
   5    -69.6499796 -0.415469E-07  0.533E-04    2.46      27.7  T
   6    -69.6499796 -0.346495E-08  0.257E-04    2.46      57.5  T
[...]
H32-C10-C9-C8=180.42          H32-C10-C9-H31=  0.09         
           -------------------------------------------------
          |                Final Singlepoint                |
           -------------------------------------------------

          ...................................................
          :                      SETUP                      :
          :.................................................:
          :  # basis functions                 127          :
          :  # atomic orbitals                 126          :
          :  # shells                           72          :
          :  # electrons                       126          :
          :  max. iterations                   250          :
          :  Hamiltonian                  GFN2-xTB          :
          :  restarted?                      false          :
          :  GBSA solvation                  false          :
          :  PC potential                    false          :
          :  electronic temp.          300.0000000     K    :
          :  accuracy                    1.0000000          :
          :  -> integral cutoff          0.2500000E+02      :
          :  -> integral neglect         0.1000000E-07      :
          :  -> SCF convergence          0.1000000E-05 Eh   :
          :  -> wf. convergence          0.1000000E-03 e    :
          :  Broyden damping             0.4000000          :
          :  net charge                          0          :
          :  unpaired electrons                  0          :
          ...................................................

 iter      E             dE          RMSdq      gap      omega  full diag
   1    -69.6532781 -0.696533E+02  0.456E-05    2.43       0.0  T
   2    -69.6532781 -0.821387E-11  0.284E-05    2.43     518.3  T
   3    -69.6532781 -0.598277E-11  0.180E-05    2.43     816.9  T

   *** convergence criteria satisfied after 3 iterations ***

         #    Occupation            Energy/Eh            Energy/eV
      -------------------------------------------------------------
         1        2.0000           -0.7258183             -19.7505
       ...           ...                  ...                  ...
        57        2.0000           -0.4171926             -11.3524
        58        2.0000           -0.4166771             -11.3384
        59        2.0000           -0.4153711             -11.3028
        60        2.0000           -0.4040003             -10.9934
        61        2.0000           -0.3931551             -10.6983
        62        2.0000           -0.3927374             -10.6869
        63        2.0000           -0.3737601             -10.1705 (HOMO)
        64                         -0.2843041              -7.7363 (LUMO)
        65                         -0.2546017              -6.9281
        66                         -0.2376148              -6.4658
        67                         -0.2352310              -6.4010
        68                         -0.2336137              -6.3570
       ...                                ...                  ...
       126                          1.2253071              33.3423
      -------------------------------------------------------------
                  HL-Gap            0.0894560 Eh            2.4342 eV
             Fermi-level           -0.3290321 Eh           -8.9534 eV

 SCC (total)                   0 d,  0 h,  0 min,  0.017 sec
 SCC setup                      ...        0 min,  0.000 sec (  0.578%)
 Dispersion                     ...        0 min,  0.000 sec (  1.127%)
 classical contributions        ...        0 min,  0.000 sec (  0.086%)
 integral evaluation            ...        0 min,  0.001 sec (  7.691%)
 iterations                     ...        0 min,  0.010 sec ( 56.191%)
 molecular gradient             ...        0 min,  0.005 sec ( 29.321%)
 printout                       ...        0 min,  0.001 sec (  4.831%)

         :::::::::::::::::::::::::::::::::::::::::::::::::::::
         ::                     SUMMARY                     ::
         :::::::::::::::::::::::::::::::::::::::::::::::::::::
         :: total energy             -68.497462762318 Eh    ::
         :: gradient norm              0.000682093808 Eh/a0 ::
         :: HOMO-LUMO gap              2.434221443342 eV    ::
         ::.................................................::
         :: SCC energy               -69.652281053601 Eh    ::
         :: -> isotropic ES            0.055137216532 Eh    ::
         :: -> anisotropic ES          0.004502011495 Eh    ::
         :: -> anisotropic XC          0.037503690677 Eh    ::
         :: -> dispersion             -0.058365263725 Eh    ::
         :: repulsion energy           1.154818291283 Eh    ::
         :: add. restraining           0.000000000000 Eh    ::
         :: total charge              -0.000000000000 e     ::
         :::::::::::::::::::::::::::::::::::::::::::::::::::::

           -------------------------------------------------
          |                Property Printout                |
           -------------------------------------------------

    * Orbital Energies and Occupations

         #    Occupation            Energy/Eh            Energy/eV
      -------------------------------------------------------------
         1        2.0000           -0.7258183             -19.7505
       ...           ...                  ...                  ...
        51        2.0000           -0.4455130             -12.1230
        52        2.0000           -0.4340367             -11.8107
        53        2.0000           -0.4324153             -11.7666
        54        2.0000           -0.4310147             -11.7285
        55        2.0000           -0.4257431             -11.5851
        56        2.0000           -0.4222631             -11.4904
        57        2.0000           -0.4171926             -11.3524
        58        2.0000           -0.4166771             -11.3384
        59        2.0000           -0.4153711             -11.3028
        60        2.0000           -0.4040003             -10.9934
        61        2.0000           -0.3931551             -10.6983
        62        2.0000           -0.3927374             -10.6869
        63        2.0000           -0.3737601             -10.1705 (HOMO)
        64                         -0.2843041              -7.7363 (LUMO)
        65                         -0.2546017              -6.9281
        66                         -0.2376148              -6.4658
        67                         -0.2352310              -6.4010
        68                         -0.2336137              -6.3570
        69                         -0.2198825              -5.9833
        70                         -0.2181177              -5.9353
        71                         -0.1282513              -3.4899
        72                         -0.1136275              -3.0920
        73                         -0.1026817              -2.7941
        74                         -0.0731170              -1.9896
       ...                                ...                  ...
       126                          1.2253071              33.3423
      -------------------------------------------------------------
                  HL-Gap            0.0894560 Eh            2.4342 eV
             Fermi-level           -0.3290321 Eh           -8.9534 eV

     #   Z          covCN         q      C6AA      α(0)
     1   6 C        3.757    -0.102    22.508     6.764
     2   6 C        2.966     0.024    27.466     8.596
     3   6 C        3.079    -0.026    28.559     8.761
     4   6 C        2.768     0.244    22.906     7.838
     5  15 P        4.038     0.052   157.910    22.573
     6   6 C        2.922     0.016    27.658     8.624
     7   6 C        2.968    -0.027    28.668     8.783
     8   6 C        2.921    -0.027    28.674     8.781
     9   6 C        2.920    -0.025    28.629     8.774
    10   6 C        2.919    -0.027    28.673     8.781
    11   6 C        3.037    -0.022    28.509     8.758
    12   6 C        2.922     0.014    27.704     8.631
    13   6 C        2.972    -0.024    28.607     8.773
    14   6 C        2.920    -0.027    28.669     8.780
    15   6 C        2.920    -0.025    28.628     8.774
    16   6 C        2.919    -0.028    28.691     8.784
    17   6 C        3.031    -0.022    28.528     8.761
    18   8 O        0.808    -0.360    20.916     6.131
    19   8 O        0.879    -0.330    20.326     6.045
    20   6 C        2.968     0.027    27.396     8.585
    21   6 C        3.758    -0.103    22.514     6.765
    22   6 C        2.930    -0.049    29.210     8.863
    23   6 C        2.964     0.022    27.524     8.605
    24   6 C        3.758    -0.110    22.663     6.787
    25   6 C        2.930    -0.050    29.238     8.868
    26   1 H        0.925     0.051     2.309     2.377
    27   1 H        0.924     0.043     2.414     2.430
    28   1 H        0.925     0.046     2.375     2.410
    29   1 H        0.926     0.059     2.213     2.326
    30   1 H        0.926     0.039     2.462     2.454
    31   1 H        0.926     0.038     2.472     2.459
    32   1 H        0.926     0.040     2.452     2.449
    33   1 H        0.926     0.059     2.207     2.323
    34   1 H        0.926     0.056     2.245     2.343
    35   1 H        0.926     0.039     2.465     2.455
    36   1 H        0.926     0.038     2.477     2.461
    37   1 H        0.926     0.039     2.460     2.453
    38   1 H        0.926     0.063     2.167     2.302
    39   1 H        0.924     0.062     2.172     2.305
    40   1 H        0.925     0.049     2.334     2.389
    41   1 H        0.924     0.043     2.415     2.430
    42   1 H        0.926     0.039     2.458     2.452
    43   1 H        0.925     0.046     2.368     2.407
    44   1 H        0.924     0.053     2.281     2.362
    45   1 H        0.925     0.045     2.387     2.416
    46   1 H        0.926     0.038     2.475     2.460

 Mol. C6AA /au·bohr⁶  :      28397.449884
 Mol. C8AA /au·bohr⁸  :     744376.489132
 Mol. α(0) /au        :        270.649393


Wiberg/Mayer (AO) data.
largest (>0.10) Wiberg bond orders for each atom

 ---------------------------------------------------------------------------
     #   Z sym  total        # sym  WBO       # sym  WBO       # sym  WBO
 ---------------------------------------------------------------------------
     1   6 C    3.996 --     2 C    1.025    28 H    0.985    26 H    0.973
                            27 H    0.965
     2   6 C    3.986 --    25 C    1.420     3 C    1.355     1 C    1.025
                            22 C    0.101
     3   6 C    3.981 --     2 C    1.355    20 C    1.352     4 C    0.999
     4   6 C    3.892 --    19 O    1.874     3 C    0.999     5 P    0.822
     5  15 P    5.241 --    18 O    2.093    12 C    0.945     6 C    0.941
                             4 C    0.822
     6   6 C    3.983 --     7 C    1.392    11 C    1.386     5 P    0.941
                             9 C    0.103
     7   6 C    3.989 --     8 C    1.446     6 C    1.392    29 H    0.959
                            10 C    0.110
     8   6 C    3.992 --     7 C    1.446     9 C    1.436    30 H    0.970
                            11 C    0.109
     9   6 C    3.981 --    10 C    1.437     8 C    1.436    31 H    0.971
                             6 C    0.103
    10   6 C    3.989 --    11 C    1.444     9 C    1.437    32 H    0.969
                             7 C    0.110
    11   6 C    3.988 --    10 C    1.444     6 C    1.386    33 H    0.957
                             8 C    0.109
    12   6 C    3.983 --    17 C    1.387    13 C    1.387     5 P    0.945
                            15 C    0.103
    13   6 C    3.989 --    14 C    1.451    12 C    1.387    34 H    0.960
                            16 C    0.111
    14   6 C    3.992 --    13 C    1.451    15 C    1.431    35 H    0.970
                            17 C    0.108
    15   6 C    3.984 --    16 C    1.440    14 C    1.431    36 H    0.971
                            12 C    0.103
    16   6 C    3.990 --    17 C    1.442    15 C    1.440    37 H    0.969
                            13 C    0.111
    17   6 C    3.988 --    16 C    1.442    12 C    1.387    38 H    0.956
                            14 C    0.108
    18   8 O    2.287 --     5 P    2.093
    19   8 O    2.125 --     4 C    1.874
    20   6 C    3.986 --    22 C    1.423     3 C    1.352    21 C    1.027
    21   6 C    3.995 --    20 C    1.027    40 H    0.984    41 H    0.972
                            39 H    0.945
    22   6 C    3.989 --    20 C    1.423    23 C    1.407    42 H    0.965
                             2 C    0.101
    23   6 C    3.986 --    25 C    1.409    22 C    1.407    24 C    1.027
    24   6 C    3.995 --    23 C    1.027    45 H    0.983    43 H    0.980
                            44 H    0.966
    25   6 C    3.989 --     2 C    1.420    23 C    1.409    46 H    0.965
    26   1 H    0.997 --     1 C    0.973
    27   1 H    0.998 --     1 C    0.965
    28   1 H    0.998 --     1 C    0.985
    29   1 H    0.996 --     7 C    0.959
    30   1 H    0.998 --     8 C    0.970
    31   1 H    0.998 --     9 C    0.971
    32   1 H    0.997 --    10 C    0.969
    33   1 H    0.996 --    11 C    0.957
    34   1 H    0.997 --    13 C    0.960
    35   1 H    0.998 --    14 C    0.970
    36   1 H    0.998 --    15 C    0.971
    37   1 H    0.998 --    16 C    0.969
    38   1 H    0.996 --    17 C    0.956
    39   1 H    0.996 --    21 C    0.945
    40   1 H    0.997 --    21 C    0.984
    41   1 H    0.998 --    21 C    0.972
    42   1 H    0.996 --    22 C    0.965
    43   1 H    0.997 --    24 C    0.980
    44   1 H    0.996 --    24 C    0.966
    45   1 H    0.998 --    24 C    0.983
    46   1 H    0.998 --    25 C    0.965
 ---------------------------------------------------------------------------

Topologies differ in total number of bonds
Writing topology from bond orders to xtbtopo.mol

molecular dipole:
                 x           y           z       tot (Debye)
 q only:       -0.147      -0.008      -0.151
   full:       -0.354       0.023      -0.254       1.109
molecular quadrupole (traceless):
                xx          xy          yy          xz          yz          zz
 q only:       11.362       0.928       5.518      -0.201      -0.742     -16.880
  q+dip:        9.784       2.376       8.095       3.099      -0.728     -17.879
   full:       10.561       1.454       8.269      -0.605      -0.460     -18.830

           -------------------------------------------------
          |                Geometry Summary                 |
           -------------------------------------------------

      molecular mass/u    :      348.3755174
   center of mass at/Å    :       -0.2278998      -0.0074512       0.0056822
  moments of inertia/u·Å² :        0.1760280E+04   0.2900204E+04   0.3965165E+04
rotational constants/cm⁻¹ :        0.9576675E-02   0.5812568E-02   0.4251433E-02

 * 43 selected distances

     #   Z          #   Z                                           value/Å
     2   6 C        3   6 C                                       1.3954867
     5  15 P        6   6 C                                       1.8227363 (max)
     6   6 C        7   6 C                                       1.3881193
     7   6 C        8   6 C                                       1.3836869
     8   6 C        9   6 C                                       1.3854115
     9   6 C       10   6 C                                       1.3856419
     6   6 C       11   6 C                                       1.3884412
    10   6 C       11   6 C                                       1.3826945
     5  15 P       12   6 C                                       1.8219621
    12   6 C       13   6 C                                       1.3885926
    13   6 C       14   6 C                                       1.3828005
    14   6 C       15   6 C                                       1.3864984
    15   6 C       16   6 C                                       1.3853873
    12   6 C       17   6 C                                       1.3882342
    16   6 C       17   6 C                                       1.3831984
     5  15 P       18   8 O                                       1.4674323
     4   6 C       19   8 O                                       1.2030187
     3   6 C       20   6 C                                       1.3957507
    20   6 C       22   6 C                                       1.3845779
    22   6 C       23   6 C                                       1.3887090
     2   6 C       25   6 C                                       1.3855668
    23   6 C       25   6 C                                       1.3881255
     1   6 C       26   1 H                                       1.0889075
     1   6 C       27   1 H                                       1.0915665
     1   6 C       28   1 H                                       1.0869556
     7   6 C       29   1 H                                       1.0794686
     8   6 C       30   1 H                                       1.0802451
     9   6 C       31   1 H                                       1.0801323
    10   6 C       32   1 H                                       1.0798376
    11   6 C       33   1 H                                       1.0807671
    13   6 C       34   1 H                                       1.0787322 (min)
    14   6 C       35   1 H                                       1.0802023
    15   6 C       36   1 H                                       1.0801755
    16   6 C       37   1 H                                       1.0801678
    17   6 C       38   1 H                                       1.0808348
    21   6 C       39   1 H                                       1.0921972
    21   6 C       40   1 H                                       1.0870241
    21   6 C       41   1 H                                       1.0902521
    22   6 C       42   1 H                                       1.0806783
    24   6 C       43   1 H                                       1.0876651
    24   6 C       44   1 H                                       1.0903259
    24   6 C       45   1 H                                       1.0872445
    25   6 C       46   1 H                                       1.0808192

 * 5 distinct bonds (by element types)

   Z      Z             #   av. dist./Å        max./Å        min./Å
   1 H    6 C          21     1.0840095     1.0921972     1.0787322
   6 C    6 C          18     1.3870513     1.3957507     1.3826945
   6 C    8 O           1     1.2030187     1.2030187     1.2030187
   6 C   15 P           2     1.8223492     1.8227363     1.8219621
   8 O   15 P           1     1.4674323     1.4674323     1.4674323


optimized geometry written to: xtbopt.xyz


           -------------------------------------------------
          | TOTAL ENERGY              -68.497462762318 Eh   |
          | GRADIENT NORM               0.000682093808 Eh/α |
          | HOMO-LUMO GAP               2.434221443342 eV   |
           -------------------------------------------------

------------------------------------------------------------------------
 * finished run on 2025/12/01 at 14:19:53.711     
------------------------------------------------------------------------
 total:
 * wall-time:     0 d,  0 h,  0 min,  3.641 sec
 *  cpu-time:     0 d,  0 h,  1 min, 22.655 sec
 * ratio c/w:    22.701 speedup
 SCF:
 * wall-time:     0 d,  0 h,  0 min,  0.068 sec
 *  cpu-time:     0 d,  0 h,  0 min,  1.510 sec
 * ratio c/w:    22.308 speedup
 ANC optimizer:
 * wall-time:     0 d,  0 h,  0 min,  3.542 sec
 *  cpu-time:     0 d,  0 h,  1 min, 20.786 sec
 * ratio c/w:    22.805 speedup

normal termination of xtb
