      -----------------------------------------------------------      
     |                   =====================                   |     
     |                           x T B                           |     
     |                   =====================                   |     
     |                         S. Grimme                         |     
     |          Mulliken Center for Theoretical Chemistry        |     
     |                    University of Bonn                     |     
      -----------------------------------------------------------      

   * xtb version 6.7.1 (edcfbbe) compiled by 'albert@albert-system' on 2024-07-22

   xtb is free software: you can redistribute it and/or modify it under
   the terms of the GNU Lesser General Public License as published by
   the Free Software Foundation, either version 3 of the License, or
   (at your option) any later version.
   
   xtb is distributed in the hope that it will be useful,
   but WITHOUT ANY WARRANTY; without even the implied warranty of
   MERCHANTABILITY or FITNESS FOR A PARTICULAR PURPOSE.  See the
   GNU Lesser General Public License for more details.
   
   Cite this work as:
   * C. Bannwarth, E. Caldeweyher, S. Ehlert, A. Hansen, P. Pracht,
     J. Seibert, S. Spicher, S. Grimme, WIREs Comput. Mol. Sci., 2020, 11,
     e01493. DOI: 10.1002/wcms.1493
   
   for GFN2-xTB:
   * C. Bannwarth, S. Ehlert and S. Grimme., J. Chem. Theory Comput., 2019,
     15, 1652-1671. DOI: 10.1021/acs.jctc.8b01176
   for GFN1-xTB:
   * S. Grimme, C. Bannwarth, P. Shushkov, J. Chem. Theory Comput., 2017,
     13, 1989-2009. DOI: 10.1021/acs.jctc.7b00118
   for GFN0-xTB:
   * P. Pracht, E. Caldeweyher, S. Ehlert, S. Grimme, ChemRxiv, 2019, preprint.
     DOI: 10.26434/chemrxiv.8326202.v1
   for GFN-FF:
   * S. Spicher and S. Grimme, Angew. Chem. Int. Ed., 2020, 59, 15665-15673.
     DOI: 10.1002/anie.202004239
   
   for ALPB and GBSA implicit solvation:
   * S. Ehlert, M. Stahn, S. Spicher, S. Grimme, J. Chem. Theory Comput.,
     2021, 17, 4250-4261. DOI: 10.1021/acs.jctc.1c00471
   
   for ddCOSMO and CPCM-X implicit solvation:
   * M. Stahn, S. Ehlert, S. Grimme, J. Phys. Chem. A,
     2023, XX, XXXX-XXXX. DOI: 10.1021/acs.jpca.3c04382
   
   for DFT-D4:
   * E. Caldeweyher, C. Bannwarth and S. Grimme, J. Chem. Phys., 2017,
     147, 034112. DOI: 10.1063/1.4993215
   * E. Caldeweyher, S. Ehlert, A. Hansen, H. Neugebauer, S. Spicher,
     C. Bannwarth and S. Grimme, J. Chem. Phys., 2019, 150, 154122.
     DOI: 10.1063/1.5090222
   * E. Caldeweyher, J.-M. Mewes, S. Ehlert and S. Grimme, Phys. Chem. Chem. Phys.
     2020, 22, 8499-8512. DOI: 10.1039/D0CP00502A
   
   for sTDA-xTB:
   * S. Grimme and C. Bannwarth, J. Chem. Phys., 2016, 145, 054103.
     DOI: 10.1063/1.4959605
   
   in the mass-spec context:
   * V. Asgeirsson, C. Bauer and S. Grimme, Chem. Sci., 2017, 8, 4879.
     DOI: 10.1039/c7sc00601b
   * J. Koopman and S. Grimme, ACS Omega 2019, 4, 12, 15120-15133.
     DOI: 10.1021/acsomega.9b02011
   
   for metadynamics refer to:
   * S. Grimme, J. Chem. Theory Comput., 2019, 155, 2847-2862
     DOI: 10.1021/acs.jctc.9b00143
   
   for SPH calculations refer to:
   * S. Spicher and S. Grimme, J. Chem. Theory Comput., 2021, 17, 1701-1714
     DOI: 10.1021/acs.jctc.0c01306
   
   for ONIOM refer to:
   * C. Plett, A. Katbashev, S. Ehlert, S. Grimme, M. Bursch,
     Phys. Chem. Chem. Phys., 2023, 25, 17860-17868. DOI: 10.1039/D3CP02178E
   
   for DIPRO refer to:
   * J. Kohn, N. Gildemeister, S. Grimme, D. Fazzi, A. Hansen,
     J. Chem. Phys., 2023, just accepted.
   
   for PTB refer to:
   * S. Grimme, M. Mueller, A. Hansen, J. Chem. Phys., 2023, 158, 124111.
     DOI: 10.1063/5.0137838
   
   with help from (in alphabetical order)
   P. Atkinson, C. Bannwarth, F. Bohle, G. Brandenburg, E. Caldeweyher
   M. Checinski, S. Dohm, S. Ehlert, S. Ehrlich, I. Gerasimov, C. Hölzer
   A. Katbashev, J. Kohn, J. Koopman, C. Lavigne, S. Lehtola, F. März, M. Müller,
   F. Musil, H. Neugebauer, J. Pisarek, C. Plett, P. Pracht, F. Pultar,
   J. Seibert, P. Shushkov, S. Spicher, M. Stahn, M. Steiner, T. Strunk,
   J. Stückrath, T. Rose, and J. Unsleber
   
 * started run on 2025/12/01 at 14:19:48.217     
   ID    Z sym.   atoms
    1    6 C      1-4, 6-17, 20-25
    2   15 P      5
    3    8 O      18, 19
    4    1 H      26-46

           -------------------------------------------------
          |                Calculation Setup                |
           -------------------------------------------------

          program call               : xtb pipeline_data/3_conformer_xyz/acrylates/rdkit/VFHVQBAGLAREND-UHFFFAOYSA-N_conf189.xyz --opt --gfn 2-xTB --iterations 250
          coordinate file            : pipeline_data/3_conformer_xyz/acrylates/rdkit/VFHVQBAGLAREND-UHFFFAOYSA-N_conf189.xyz
          omp threads                :                    24

########################################################################
[WARNING] Please study the warnings concerning your input carefully
-1- readin_getIntValue: could not parse '2-xTB'
########################################################################

           -------------------------------------------------
          |                 G F N 2 - x T B                 |
           -------------------------------------------------

        Reference                      10.1021/acs.jctc.8b01176
      * Hamiltonian:
        H0-scaling (s, p, d)           1.850000    2.230000    2.230000
        zeta-weighting                 0.500000
      * Dispersion:
        s8                             2.700000
        a1                             0.520000
        a2                             5.000000
        s9                             5.000000
      * Repulsion:
        kExp                           1.500000    1.000000
        rExp                           1.000000
      * Coulomb:
        alpha                          2.000000
        third order                    shell-resolved
        anisotropic                    true
        a3                             3.000000
        a5                             4.000000
        cn-shift                       1.200000
        cn-exp                         4.000000
        max-rad                        5.000000

q/qsh data taken from xtbrestart
CAMM data taken from xtbrestart

          ...................................................
          :                      SETUP                      :
          :.................................................:
          :  # basis functions                 127          :
          :  # atomic orbitals                 126          :
          :  # shells                           72          :
          :  # electrons                       126          :
          :  max. iterations                   250          :
          :  Hamiltonian                  GFN2-xTB          :
          :  restarted?                       true          :
          :  GBSA solvation                  false          :
          :  PC potential                    false          :
          :  electronic temp.          300.0000000     K    :
          :  accuracy                    1.0000000          :
          :  -> integral cutoff          0.2500000E+02      :
          :  -> integral neglect         0.1000000E-07      :
          :  -> SCF convergence          0.1000000E-05 Eh   :
          :  -> wf. convergence          0.1000000E-03 e    :
          :  Broyden damping             0.4000000          :
          :  net charge                          0          :
          :  unpaired electrons                  0          :
          ...................................................

 iter      E             dE          RMSdq      gap      omega  full diag
   1    -69.5892712 -0.695893E+02  0.511E+00    2.34       0.0  T
   2    -69.6014864 -0.122152E-01  0.283E+00    2.33       1.0  T
   3    -69.6004065  0.107993E-02  0.521E-01    2.11       1.0  T
   4    -69.6032459 -0.283944E-02  0.221E-01    2.21       1.0  T
   5    -69.6043913 -0.114536E-02  0.695E-02    2.18       1.0  T
   6    -69.6044233 -0.319994E-04  0.365E-02    2.19       1.0  T
   7    -69.6044189  0.440290E-05  0.166E-02    2.19       1.0  T
   8    -69.6044279 -0.900871E-05  0.456E-03    2.19       3.2  T
   9    -69.6044281 -0.230680E-06  0.220E-03    2.19       6.7  T
  10    -69.6044282 -0.784812E-07  0.133E-03    2.19      11.1  T
  11    -69.6044282 -0.127743E-07  0.411E-04    2.19      35.9  T
  12    -69.6044282 -0.126502E-08  0.185E-04    2.19      79.7  T

   *** convergence criteria satisfied after 12 iterations ***

         #    Occupation            Energy/Eh            Energy/eV
      -------------------------------------------------------------
         1        2.0000           -0.7176228             -19.5275
       ...           ...                  ...                  ...
        57        2.0000           -0.4207139             -11.4482
        58        2.0000           -0.4185118             -11.3883
        59        2.0000           -0.4139524             -11.2642
        60        2.0000           -0.3983074             -10.8385
        61        2.0000           -0.3933190             -10.7028
        62        2.0000           -0.3929096             -10.6916
        63        2.0000           -0.3821241             -10.3981 (HOMO)
        64                         -0.3017080              -8.2099 (LUMO)
        65                         -0.2531387              -6.8883
        66                         -0.2444777              -6.6526
        67                         -0.2391258              -6.5069
        68                         -0.2364305              -6.4336
       ...                                ...                  ...
       126                          1.1864560              32.2851
      -------------------------------------------------------------
                  HL-Gap            0.0804161 Eh            2.1882 eV
             Fermi-level           -0.3419161 Eh           -9.3040 eV

 SCC (total)                   0 d,  0 h,  0 min,  0.058 sec
 SCC setup                      ...        0 min,  0.000 sec (  0.520%)
 Dispersion                     ...        0 min,  0.001 sec (  1.336%)
 classical contributions        ...        0 min,  0.000 sec (  0.168%)
 integral evaluation            ...        0 min,  0.007 sec ( 12.104%)
 iterations                     ...        0 min,  0.044 sec ( 75.571%)
 molecular gradient             ...        0 min,  0.006 sec (  9.719%)
 printout                       ...        0 min,  0.000 sec (  0.522%)

         :::::::::::::::::::::::::::::::::::::::::::::::::::::
         ::                     SUMMARY                     ::
         :::::::::::::::::::::::::::::::::::::::::::::::::::::
         :: total energy             -68.465918067392 Eh    ::
         :: gradient norm              0.154056389146 Eh/a0 ::
         :: HOMO-LUMO gap              2.188232931229 eV    ::
         ::.................................................::
         :: SCC energy               -69.603656642873 Eh    ::
         :: -> isotropic ES            0.068614913190 Eh    ::
         :: -> anisotropic ES          0.004265377871 Eh    ::
         :: -> anisotropic XC          0.039979292268 Eh    ::
         :: -> dispersion             -0.058439767453 Eh    ::
         :: repulsion energy           1.137738575481 Eh    ::
         :: add. restraining           0.000000000000 Eh    ::
         :: total charge               0.000000000000 e     ::
         :::::::::::::::::::::::::::::::::::::::::::::::::::::

      ----------------------------------------------------------- 
     |                   =====================                   |
     |                        A N C O P T                        |
     |                   =====================                   |
     |               Approximate Normal Coordinate               |
     |                Rational Function Optimizer                |
      ----------------------------------------------------------- 
      ----------------------------------------------------------- 
     |                   =====================                   |
     |                        A N C O P T                        |
     |                   =====================                   |
     |               Approximate Normal Coordinate               |
     |                Rational Function Optimizer                |
      ----------------------------------------------------------- 

          ...................................................
          :                      SETUP                      :
          :.................................................:
          :   optimization level            normal          :
          :   max. optcycles                   200          :
          :   ANC micro-cycles                  20          :
          :   degrees of freedom               132          :
          :.................................................:
          :   RF solver                   davidson          :
          :   write xtbopt.log                true          :
          :   linear?                        false          :
          :   energy convergence         0.5000000E-05 Eh   :
          :   grad. convergence          0.1000000E-02 Eh/α :
          :   maxmium RF displ.          1.0000000          :
          :   Hlow (freq-cutoff)         0.1000000E-01      :
          :   Hmax (freq-cutoff)         5.0000000          :
          :   S6 in model hess.         20.0000000          :
          ...................................................

generating ANC from exact Hessian ...
Using Lindh-Hessian (1995)
 Shifting diagonal of input Hessian by   9.654029802099316E-003
 Lowest  eigenvalues of input Hessian
    0.000000    0.000000    0.000000    0.000000    0.000000    0.000000
    0.010000    0.010161    0.010188    0.010411    0.011214    0.011317
    0.012053    0.012789    0.013679    0.014421    0.014922    0.016967
 Highest eigenvalues
    2.007588    2.016065    2.020423    2.032297    2.039334    2.452762
 

........................................................................
.............................. CYCLE    1 ..............................
........................................................................

 iter      E             dE          RMSdq      gap      omega  full diag
   1    -69.6044282 -0.696044E+02  0.473E-05    2.19       0.0  T
   2    -69.6044282 -0.927969E-11  0.266E-05    2.19     554.6  T
   3    -69.6044282 -0.174794E-11  0.185E-05    2.19     797.9  T
     SCC iter.                  ...        0 min,  0.011 sec
     gradient                   ...        0 min,  0.004 sec
 * total energy  :   -68.4659181 Eh     change       -0.8083845E-09 Eh
   gradient norm :     0.1540588 Eh/α   predicted     0.0000000E+00 (-100.00%)
   displ. norm   :     0.3353825 α      lambda       -0.2759899E-01
   maximum displ.:     0.0955443 α      in ANC's #79, #32, #46, ...

........................................................................
.............................. CYCLE    2 ..............................
........................................................................

 iter      E             dE          RMSdq      gap      omega  full diag
   1    -69.6354277 -0.696354E+02  0.355E-01    2.33       0.0  T
   2    -69.6358034 -0.375737E-03  0.204E-01    2.34       1.0  T
   3    -69.6357879  0.154690E-04  0.100E-01    2.33       1.0  T
   4    -69.6358521 -0.641990E-04  0.491E-02    2.35       1.0  T
   5    -69.6359334 -0.812328E-04  0.115E-02    2.34       1.3  T
   6    -69.6359354 -0.204082E-05  0.404E-03    2.34       3.7  T
   7    -69.6359359 -0.457133E-06  0.165E-03    2.34       8.9  T
   8    -69.6359359 -0.235643E-07  0.731E-04    2.34      20.2  T
   9    -69.6359359  0.211685E-09  0.323E-04    2.34      45.6  T
     SCC iter.                  ...        0 min,  0.072 sec
     gradient                   ...        0 min,  0.011 sec
 * total energy  :   -68.4856611 Eh     change       -0.1974305E-01 Eh
   gradient norm :     0.0782674 Eh/α   predicted    -0.1536896E-01 ( -22.16%)
   displ. norm   :     0.2801539 α      lambda       -0.1066393E-01
   maximum displ.:     0.0658059 α      in ANC's #36, #46, #31, ...

........................................................................
.............................. CYCLE    3 ..............................
........................................................................

 iter      E             dE          RMSdq      gap      omega  full diag
   1    -69.6483949 -0.696484E+02  0.295E-01    2.44       0.0  T
   2    -69.6487399 -0.345068E-03  0.166E-01    2.45       1.0  T
   3    -69.6487697 -0.298015E-04  0.823E-02    2.44       1.0  T
   4    -69.6487987 -0.290010E-04  0.472E-02    2.45       1.0  T
   5    -69.6488643 -0.656004E-04  0.114E-02    2.45       1.3  T
   6    -69.6488661 -0.178595E-05  0.397E-03    2.44       3.7  T
   7    -69.6488665 -0.390174E-06  0.148E-03    2.44      10.0  T
   8    -69.6488665 -0.242016E-07  0.658E-04    2.44      22.4  T
   9    -69.6488665  0.926718E-09  0.349E-04    2.44      42.3  T
     SCC iter.                  ...        0 min,  0.027 sec
     gradient                   ...        0 min,  0.004 sec
 * total energy  :   -68.4917111 Eh     change       -0.6049963E-02 Eh
   gradient norm :     0.0182693 Eh/α   predicted    -0.5752303E-02 (  -4.92%)
   displ. norm   :     0.1994730 α      lambda       -0.1144071E-02
   maximum displ.:     0.0872133 α      in ANC's #9, #11, #6, ...

........................................................................
.............................. CYCLE    4 ..............................
........................................................................

 iter      E             dE          RMSdq      gap      omega  full diag
   1    -69.6451862 -0.696452E+02  0.894E-02    2.42       0.0  T
   2    -69.6452065 -0.202844E-04  0.573E-02    2.44       1.0  T
   3    -69.6452036  0.283819E-05  0.275E-02    2.43       1.0  T
   4    -69.6452116 -0.796458E-05  0.112E-02    2.44       1.3  T
   5    -69.6452157 -0.414735E-05  0.333E-03    2.44       4.4  T
   6    -69.6452160 -0.283592E-06  0.119E-03    2.44      12.4  T
   7    -69.6452160 -0.352576E-07  0.475E-04    2.44      31.0  T
   8    -69.6452160 -0.121450E-08  0.210E-04    2.44      70.2  T
     SCC iter.                  ...        0 min,  0.023 sec
     gradient                   ...        0 min,  0.018 sec
 * total energy  :   -68.4925428 Eh     change       -0.8317409E-03 Eh
   gradient norm :     0.0082458 Eh/α   predicted    -0.5947970E-03 ( -28.49%)
   displ. norm   :     0.2877130 α      lambda       -0.7899808E-03
   maximum displ.:     0.1423943 α      in ANC's #6, #9, #11, ...

........................................................................
.............................. CYCLE    5 ..............................
........................................................................

 iter      E             dE          RMSdq      gap      omega  full diag
   1    -69.6426623 -0.696427E+02  0.107E-01    2.42       0.0  T
   2    -69.6426716 -0.932774E-05  0.672E-02    2.43       1.0  T
   3    -69.6426546  0.169777E-04  0.234E-02    2.42       1.0  T
   4    -69.6426739 -0.192882E-04  0.590E-03    2.43       2.5  T
   5    -69.6426755 -0.159392E-05  0.212E-03    2.43       7.0  T
   6    -69.6426756 -0.117424E-06  0.887E-04    2.43      16.6  T
   7    -69.6426756 -0.167719E-07  0.452E-04    2.43      32.6  T
     SCC iter.                  ...        0 min,  0.024 sec
     gradient                   ...        0 min,  0.005 sec
 * total energy  :   -68.4930713 Eh     change       -0.5285243E-03 Eh
   gradient norm :     0.0082586 Eh/α   predicted    -0.4276878E-03 ( -19.08%)
   displ. norm   :     0.2565408 α      lambda       -0.3955711E-03
   maximum displ.:     0.1565888 α      in ANC's #6, #11, #9, ...

........................................................................
.............................. CYCLE    6 ..............................
........................................................................

 iter      E             dE          RMSdq      gap      omega  full diag
   1    -69.6433184 -0.696433E+02  0.914E-02    2.43       0.0  T
   2    -69.6433199 -0.140871E-05  0.543E-02    2.42       1.0  T
   3    -69.6433171  0.278079E-05  0.802E-03    2.43       1.8  T
   4    -69.6433202 -0.317748E-05  0.212E-03    2.42       7.0  T
   5    -69.6433204 -0.135930E-06  0.103E-03    2.42      14.3  T
   6    -69.6433204 -0.640763E-08  0.507E-04    2.42      29.1  T
   7    -69.6433204 -0.732570E-08  0.175E-04    2.42      84.4  T
     SCC iter.                  ...        0 min,  0.031 sec
     gradient                   ...        0 min,  0.005 sec
 * total energy  :   -68.4933798 Eh     change       -0.3084478E-03 Eh
   gradient norm :     0.0087709 Eh/α   predicted    -0.2108027E-03 ( -31.66%)
   displ. norm   :     0.3138864 α      lambda       -0.4328577E-03
   maximum displ.:     0.2049408 α      in ANC's #6, #11, #9, ...

........................................................................
.............................. CYCLE    7 ..............................
........................................................................

 iter      E             dE          RMSdq      gap      omega  full diag
   1    -69.6459916 -0.696460E+02  0.110E-01    2.43       0.0  T
   2    -69.6459939 -0.230890E-05  0.642E-02    2.42       1.0  T
   3    -69.6459885  0.541917E-05  0.129E-02    2.43       1.1  T
   4    -69.6459949 -0.638775E-05  0.321E-03    2.43       4.6  T
   5    -69.6459950 -0.932190E-07  0.155E-03    2.43       9.5  T
   6    -69.6459951 -0.694713E-07  0.552E-04    2.43      26.7  T
   7    -69.6459951 -0.582118E-08  0.221E-04    2.43      66.8  T
     SCC iter.                  ...        0 min,  0.019 sec
     gradient                   ...        0 min,  0.004 sec
 * total energy  :   -68.4937198 Eh     change       -0.3399802E-03 Eh
   gradient norm :     0.0074314 Eh/α   predicted    -0.2377525E-03 ( -30.07%)
   displ. norm   :     0.3441093 α      lambda       -0.3828416E-03
   maximum displ.:     0.2354656 α      in ANC's #6, #11, #3, ...

........................................................................
.............................. CYCLE    8 ..............................
........................................................................

 iter      E             dE          RMSdq      gap      omega  full diag
   1    -69.6480357 -0.696480E+02  0.116E-01    2.43       0.0  T
   2    -69.6480377 -0.195568E-05  0.679E-02    2.42       1.0  T
   3    -69.6480332  0.446219E-05  0.117E-02    2.43       1.3  T
   4    -69.6480385 -0.532645E-05  0.303E-03    2.42       4.9  T
   5    -69.6480386 -0.599216E-07  0.140E-03    2.42      10.5  T
   6    -69.6480387 -0.658972E-07  0.531E-04    2.42      27.8  T
   7    -69.6480387 -0.327584E-08  0.231E-04    2.42      64.0  T
     SCC iter.                  ...        0 min,  0.023 sec
     gradient                   ...        0 min,  0.005 sec
 * total energy  :   -68.4940235 Eh     change       -0.3037591E-03 Eh
   gradient norm :     0.0068959 Eh/α   predicted    -0.2140883E-03 ( -29.52%)
   displ. norm   :     0.3462502 α      lambda       -0.3333118E-03
   maximum displ.:     0.2439400 α      in ANC's #6, #3, #11, ...

........................................................................
.............................. CYCLE    9 ..............................
........................................................................

 iter      E             dE          RMSdq      gap      omega  full diag
   1    -69.6493025 -0.696493E+02  0.114E-01    2.42       0.0  T
   2    -69.6493037 -0.122422E-05  0.666E-02    2.42       1.0  T
   3    -69.6493021  0.159846E-05  0.750E-03    2.42       2.0  T
   4    -69.6493042 -0.210566E-05  0.201E-03    2.42       7.3  T
   5    -69.6493042 -0.139007E-07  0.968E-04    2.42      15.2  T
   6    -69.6493042 -0.166256E-07  0.445E-04    2.42      33.1  T
     SCC iter.                  ...        0 min,  0.018 sec
     gradient                   ...        0 min,  0.015 sec
 * total energy  :   -68.4942943 Eh     change       -0.2707266E-03 Eh
   gradient norm :     0.0062841 Eh/α   predicted    -0.1866368E-03 ( -31.06%)
   displ. norm   :     0.3733333 α      lambda       -0.3247401E-03
   maximum displ.:     0.2632897 α      in ANC's #6, #3, #5, ...

........................................................................
.............................. CYCLE   10 ..............................
........................................................................

 iter      E             dE          RMSdq      gap      omega  full diag
   1    -69.6493619 -0.696494E+02  0.120E-01    2.42       0.0  T
   2    -69.6493634 -0.145428E-05  0.704E-02    2.42       1.0  T
   3    -69.6493621  0.131200E-05  0.664E-03    2.42       2.2  T
   4    -69.6493637 -0.165128E-05  0.232E-03    2.42       6.4  T
   5    -69.6493639 -0.161037E-06  0.101E-03    2.42      14.6  T
   6    -69.6493639 -0.162003E-07  0.458E-04    2.42      32.2  T
   7    -69.6493639 -0.303228E-08  0.216E-04    2.42      68.3  T
     SCC iter.                  ...        0 min,  0.020 sec
     gradient                   ...        0 min,  0.005 sec
 * total energy  :   -68.4945598 Eh     change       -0.2655083E-03 Eh
   gradient norm :     0.0054430 Eh/α   predicted    -0.1850022E-03 ( -30.32%)
   displ. norm   :     0.4156411 α      lambda       -0.3357375E-03
   maximum displ.:     0.2914584 α      in ANC's #6, #3, #5, ...

........................................................................
.............................. CYCLE   11 ..............................
........................................................................

 iter      E             dE          RMSdq      gap      omega  full diag
   1    -69.6491393 -0.696491E+02  0.133E-01    2.42       0.0  T
   2    -69.6491410 -0.166479E-05  0.783E-02    2.42       1.0  T
   3    -69.6491386  0.235815E-05  0.851E-03    2.42       1.7  T
   4    -69.6491414 -0.280099E-05  0.282E-03    2.42       5.2  T
   5    -69.6491417 -0.250410E-06  0.109E-03    2.42      13.5  T
   6    -69.6491417 -0.190788E-07  0.472E-04    2.42      31.3  T
   7    -69.6491417 -0.481060E-08  0.234E-04    2.42      63.0  T
     SCC iter.                  ...        0 min,  0.032 sec
     gradient                   ...        0 min,  0.005 sec
 * total energy  :   -68.4948297 Eh     change       -0.2699687E-03 Eh
   gradient norm :     0.0060889 Eh/α   predicted    -0.1968744E-03 ( -27.08%)
   displ. norm   :     0.4838784 α      lambda       -0.3370556E-03
   maximum displ.:     0.3318282 α      in ANC's #6, #3, #5, ...

........................................................................
.............................. CYCLE   12 ..............................
........................................................................

 iter      E             dE          RMSdq      gap      omega  full diag
   1    -69.6464957 -0.696465E+02  0.154E-01    2.42       0.0  T
   2    -69.6464979 -0.217929E-05  0.906E-02    2.42       1.0  T
   3    -69.6464951  0.277537E-05  0.920E-03    2.42       1.6  T
   4    -69.6464986 -0.348187E-05  0.256E-03    2.42       5.8  T
   5    -69.6464987 -0.157301E-06  0.117E-03    2.42      12.6  T
   6    -69.6464988 -0.143616E-07  0.482E-04    2.42      30.6  T
   7    -69.6464988 -0.639265E-08  0.219E-04    2.42      67.2  T
     SCC iter.                  ...        0 min,  0.040 sec
     gradient                   ...        0 min,  0.005 sec
 * total energy  :   -68.4950859 Eh     change       -0.2561946E-03 Eh
   gradient norm :     0.0084707 Eh/α   predicted    -0.2079885E-03 ( -18.82%)
   displ. norm   :     0.5173294 α      lambda       -0.4566803E-03
   maximum displ.:     0.3444009 α      in ANC's #6, #3, #5, ...

........................................................................
.............................. CYCLE   13 ..............................
........................................................................

 iter      E             dE          RMSdq      gap      omega  full diag
   1    -69.6488347 -0.696488E+02  0.170E-01    2.42       0.0  T
   2    -69.6488393 -0.462917E-05  0.998E-02    2.42       1.0  T
   3    -69.6488357  0.358673E-05  0.105E-02    2.42       1.4  T
   4    -69.6488404 -0.465406E-05  0.299E-03    2.42       4.9  T
   5    -69.6488406 -0.211251E-06  0.152E-03    2.42       9.7  T
   6    -69.6488406 -0.116866E-07  0.651E-04    2.42      22.6  T
   7    -69.6488406 -0.113142E-07  0.242E-04    2.42      60.9  T
     SCC iter.                  ...        0 min,  0.039 sec
     gradient                   ...        0 min,  0.005 sec
 * total energy  :   -68.4953267 Eh     change       -0.2408144E-03 Eh
   gradient norm :     0.0113205 Eh/α   predicted    -0.2894540E-03 (  20.20%)
   displ. norm   :     0.4564312 α      lambda       -0.3500059E-03
   maximum displ.:     0.3059399 α      in ANC's #6, #3, #5, ...

........................................................................
.............................. CYCLE   14 ..............................
........................................................................

 iter      E             dE          RMSdq      gap      omega  full diag
   1    -69.6444510 -0.696445E+02  0.149E-01    2.43       0.0  T
   2    -69.6444555 -0.453933E-05  0.867E-02    2.42       1.0  T
   3    -69.6444551  0.394036E-06  0.679E-03    2.43       2.2  T
   4    -69.6444560 -0.859084E-06  0.283E-03    2.42       5.2  T
   5    -69.6444562 -0.240698E-06  0.145E-03    2.43      10.2  T
   6    -69.6444562 -0.159206E-07  0.406E-04    2.43      36.3  T
   7    -69.6444562 -0.135906E-08  0.151E-04    2.42      97.9  T
     SCC iter.                  ...        0 min,  0.057 sec
     gradient                   ...        0 min,  0.006 sec
 * total energy  :   -68.4955393 Eh     change       -0.2125765E-03 Eh
   gradient norm :     0.0097867 Eh/α   predicted    -0.2114614E-03 (  -0.52%)
   displ. norm   :     0.1552410 α      lambda       -0.2526697E-03
   maximum displ.:     0.0801684 α      in ANC's #6, #7, #5, ...

........................................................................
.............................. CYCLE   15 ..............................
........................................................................

 iter      E             dE          RMSdq      gap      omega  full diag
   1    -69.6511775 -0.696512E+02  0.584E-02    2.43       0.0  T
   2    -69.6511807 -0.315749E-05  0.316E-02    2.43       1.0  T
   3    -69.6511791  0.153315E-05  0.113E-02    2.43       1.3  T
   4    -69.6511809 -0.178741E-05  0.436E-03    2.43       3.4  T
   5    -69.6511815 -0.550604E-06  0.152E-03    2.43       9.7  T
   6    -69.6511815 -0.431436E-07  0.559E-04    2.43      26.4  T
   7    -69.6511815 -0.686113E-08  0.222E-04    2.43      66.4  T
     SCC iter.                  ...        0 min,  0.023 sec
     gradient                   ...        0 min,  0.006 sec
 * total energy  :   -68.4956782 Eh     change       -0.1388565E-03 Eh
   gradient norm :     0.0057868 Eh/α   predicted    -0.1293810E-03 (  -6.82%)
   displ. norm   :     0.4444959 α      lambda       -0.2679335E-03
   maximum displ.:     0.3177308 α      in ANC's #6, #5, #3, ...

........................................................................
.............................. CYCLE   16 ..............................
........................................................................

 iter      E             dE          RMSdq      gap      omega  full diag
   1    -69.6475383 -0.696475E+02  0.156E-01    2.44       0.0  T
   2    -69.6475428 -0.450371E-05  0.900E-02    2.43       1.0  T
   3    -69.6475394  0.345078E-05  0.122E-02    2.44       1.2  T
   4    -69.6475431 -0.368768E-05  0.488E-03    2.43       3.0  T
   5    -69.6475439 -0.876862E-06  0.163E-03    2.43       9.0  T
   6    -69.6475440 -0.287665E-07  0.589E-04    2.43      25.0  T
   7    -69.6475440 -0.702508E-08  0.217E-04    2.43      68.0  T
     SCC iter.                  ...        0 min,  0.023 sec
     gradient                   ...        0 min,  0.006 sec
 * total energy  :   -68.4958395 Eh     change       -0.1612948E-03 Eh
   gradient norm :     0.0060724 Eh/α   predicted    -0.1604391E-03 (  -0.53%)
   displ. norm   :     0.2002312 α      lambda       -0.1263036E-03
   maximum displ.:     0.1405963 α      in ANC's #6, #5, #7, ...

........................................................................
.............................. CYCLE   17 ..............................
........................................................................

 iter      E             dE          RMSdq      gap      omega  full diag
   1    -69.6489082 -0.696489E+02  0.707E-02    2.44       0.0  T
   2    -69.6489091 -0.963182E-06  0.413E-02    2.44       1.0  T
   3    -69.6489084  0.775337E-06  0.537E-03    2.44       2.7  T
   4    -69.6489093 -0.930397E-06  0.185E-03    2.44       8.0  T
   5    -69.6489094 -0.106772E-06  0.704E-04    2.44      20.9  T
   6    -69.6489094 -0.196461E-08  0.273E-04    2.44      53.9  T
     SCC iter.                  ...        0 min,  0.020 sec
     gradient                   ...        0 min,  0.007 sec
 * total energy  :   -68.4959269 Eh     change       -0.8741268E-04 Eh
   gradient norm :     0.0058149 Eh/α   predicted    -0.6568622E-04 ( -24.86%)
   displ. norm   :     0.3020510 α      lambda       -0.1741919E-03
   maximum displ.:     0.1958572 α      in ANC's #6, #5, #7, ...

........................................................................
.............................. CYCLE   18 ..............................
........................................................................

 iter      E             dE          RMSdq      gap      omega  full diag
   1    -69.6506568 -0.696507E+02  0.995E-02    2.44       0.0  T
   2    -69.6506576 -0.835563E-06  0.583E-02    2.44       1.0  T
   3    -69.6506565  0.109753E-05  0.576E-03    2.44       2.6  T
   4    -69.6506580 -0.148485E-05  0.134E-03    2.44      11.0  T
   5    -69.6506580 -0.219640E-07  0.665E-04    2.44      22.2  T
   6    -69.6506580 -0.302894E-08  0.288E-04    2.44      51.3  T
     SCC iter.                  ...        0 min,  0.020 sec
     gradient                   ...        0 min,  0.006 sec
 * total energy  :   -68.4960628 Eh     change       -0.1359063E-03 Eh
   gradient norm :     0.0062064 Eh/α   predicted    -0.9504588E-04 ( -30.07%)
   displ. norm   :     0.4803569 α      lambda       -0.2561685E-03
   maximum displ.:     0.3240560 α      in ANC's #6, #5, #7, ...

........................................................................
.............................. CYCLE   19 ..............................
........................................................................

 iter      E             dE          RMSdq      gap      omega  full diag
   1    -69.6493657 -0.696494E+02  0.160E-01    2.43       0.0  T
   2    -69.6493687 -0.294168E-05  0.938E-02    2.43       1.0  T
   3    -69.6493641  0.459699E-05  0.111E-02    2.43       1.3  T
   4    -69.6493699 -0.578513E-05  0.228E-03    2.44       6.5  T
   5    -69.6493699 -0.572265E-07  0.120E-03    2.43      12.3  T
   6    -69.6493699 -0.110446E-07  0.617E-04    2.43      23.9  T
   7    -69.6493699 -0.110723E-07  0.260E-04    2.43      56.8  T
     SCC iter.                  ...        0 min,  0.023 sec
     gradient                   ...        0 min,  0.005 sec
 * total energy  :   -68.4962442 Eh     change       -0.1813820E-03 Eh
   gradient norm :     0.0056316 Eh/α   predicted    -0.1576447E-03 ( -13.09%)
   displ. norm   :     0.3508786 α      lambda       -0.2281001E-03
   maximum displ.:     0.1908181 α      in ANC's #6, #7, #1, ...

........................................................................
.............................. CYCLE   20 ..............................
........................................................................

 iter      E             dE          RMSdq      gap      omega  full diag
   1    -69.6538754 -0.696539E+02  0.112E-01    2.43       0.0  T
   2    -69.6538772 -0.180470E-05  0.656E-02    2.43       1.0  T
   3    -69.6538738  0.336329E-05  0.957E-03    2.43       1.5  T
   4    -69.6538780 -0.411436E-05  0.204E-03    2.43       7.2  T
   5    -69.6538780 -0.904427E-07  0.957E-04    2.43      15.4  T
   6    -69.6538781 -0.804745E-08  0.504E-04    2.43      29.2  T
     SCC iter.                  ...        0 min,  0.032 sec
     gradient                   ...        0 min,  0.008 sec
 * total energy  :   -68.4963694 Eh     change       -0.1252747E-03 Eh
   gradient norm :     0.0060809 Eh/α   predicted    -0.1280916E-03 (   2.25%)
   displ. norm   :     0.6302551 α      lambda       -0.2477662E-03
   maximum displ.:     0.4231447 α      in ANC's #6, #5, #7, ...
 * RMSD in coord.:     0.8752060 α      energy gain  -0.3045138E-01 Eh

generating ANC from exact Hessian ...
Using Lindh-Hessian (1995)
 Shifting diagonal of input Hessian by   9.700315589287176E-003
 Lowest  eigenvalues of input Hessian
    0.000000    0.000000    0.000000    0.000000    0.000000    0.000000
    0.010000    0.010123    0.010200    0.010305    0.011131    0.011194
    0.011873    0.012262    0.013433    0.014606    0.014822    0.015346
 Highest eigenvalues
    1.981574    1.988933    1.991285    2.002864    2.170028    2.604514
 

........................................................................
.............................. CYCLE   21 ..............................
........................................................................

 iter      E             dE          RMSdq      gap      omega  full diag
   1    -69.6433480 -0.696433E+02  0.208E-01    2.44       0.0  T
   2    -69.6433543 -0.637178E-05  0.122E-01    2.44       1.0  T
   3    -69.6433481  0.621781E-05  0.151E-02    2.44       1.0  T
   4    -69.6433562 -0.808666E-05  0.332E-03    2.44       4.4  T
   5    -69.6433564 -0.222409E-06  0.178E-03    2.44       8.3  T
   6    -69.6433565 -0.158504E-07  0.741E-04    2.44      19.9  T
   7    -69.6433565 -0.125084E-07  0.288E-04    2.44      51.3  T
     SCC iter.                  ...        0 min,  0.023 sec
     gradient                   ...        0 min,  0.006 sec
 * total energy  :   -68.4964054 Eh     change       -0.3596974E-04 Eh
   gradient norm :     0.0111534 Eh/α   predicted     0.0000000E+00 (-100.00%)
   displ. norm   :     0.0600101 α      lambda       -0.3194847E-03
   maximum displ.:     0.0216790 α      in ANC's #5, #14, #10, ...

........................................................................
.............................. CYCLE   22 ..............................
........................................................................

 iter      E             dE          RMSdq      gap      omega  full diag
   1    -69.6509557 -0.696510E+02  0.334E-02    2.44       0.0  T
   2    -69.6509575 -0.181342E-05  0.192E-02    2.44       1.0  T
   3    -69.6509569  0.580357E-06  0.601E-03    2.44       2.5  T
   4    -69.6509577 -0.783436E-06  0.240E-03    2.44       6.2  T
   5    -69.6509578 -0.994661E-07  0.965E-04    2.44      15.3  T
   6    -69.6509578 -0.294666E-08  0.435E-04    2.44      33.9  T
     SCC iter.                  ...        0 min,  0.021 sec
     gradient                   ...        0 min,  0.005 sec
 * total energy  :   -68.4966110 Eh     change       -0.2056310E-03 Eh
   gradient norm :     0.0033799 Eh/α   predicted    -0.1607450E-03 ( -21.83%)
   displ. norm   :     0.0683300 α      lambda       -0.7625188E-04
   maximum displ.:     0.0319081 α      in ANC's #5, #14, #10, ...

........................................................................
.............................. CYCLE   23 ..............................
........................................................................

 iter      E             dE          RMSdq      gap      omega  full diag
   1    -69.6535652 -0.696536E+02  0.235E-02    2.44       0.0  T
   2    -69.6535655 -0.298749E-06  0.135E-02    2.44       1.1  T
   3    -69.6535652  0.298838E-06  0.323E-03    2.44       4.6  T
   4    -69.6535656 -0.363321E-06  0.105E-03    2.44      14.0  T
   5    -69.6535656 -0.155566E-07  0.477E-04    2.44      30.9  T
   6    -69.6535656 -0.180930E-08  0.193E-04    2.44      76.2  T
     SCC iter.                  ...        0 min,  0.035 sec
     gradient                   ...        0 min,  0.012 sec
 * total energy  :   -68.4966656 Eh     change       -0.5454102E-04 Eh
   gradient norm :     0.0015525 Eh/α   predicted    -0.3830599E-04 ( -29.77%)
   displ. norm   :     0.1730000 α      lambda       -0.6868447E-04
   maximum displ.:     0.0868832 α      in ANC's #5, #14, #10, ...

........................................................................
.............................. CYCLE   24 ..............................
........................................................................

 iter      E             dE          RMSdq      gap      omega  full diag
   1    -69.6547885 -0.696548E+02  0.489E-02    2.44       0.0  T
   2    -69.6547889 -0.430252E-06  0.286E-02    2.44       1.0  T
   3    -69.6547880  0.929335E-06  0.515E-03    2.44       2.9  T
   4    -69.6547891 -0.113519E-05  0.130E-03    2.44      11.3  T
   5    -69.6547891 -0.227546E-08  0.624E-04    2.44      23.6  T
   6    -69.6547891 -0.524746E-08  0.222E-04    2.44      66.4  T
     SCC iter.                  ...        0 min,  0.034 sec
     gradient                   ...        0 min,  0.007 sec
 * total energy  :   -68.4967355 Eh     change       -0.6995599E-04 Eh
   gradient norm :     0.0037572 Eh/α   predicted    -0.3480627E-04 ( -50.25%)
   displ. norm   :     0.1500501 α      lambda       -0.7136777E-04
   maximum displ.:     0.0775978 α      in ANC's #5, #14, #10, ...

........................................................................
.............................. CYCLE   25 ..............................
........................................................................

 iter      E             dE          RMSdq      gap      omega  full diag
   1    -69.6536182 -0.696536E+02  0.370E-02    2.44       0.0  T
   2    -69.6536184 -0.225560E-06  0.219E-02    2.44       1.0  T
   3    -69.6536180  0.446175E-06  0.340E-03    2.44       4.3  T
   4    -69.6536185 -0.545501E-06  0.668E-04    2.44      22.1  T
   5    -69.6536185 -0.392430E-08  0.396E-04    2.44      37.2  T
     SCC iter.                  ...        0 min,  0.017 sec
     gradient                   ...        0 min,  0.005 sec
 * total energy  :   -68.4967975 Eh     change       -0.6200605E-04 Eh
   gradient norm :     0.0034427 Eh/α   predicted    -0.3648811E-04 ( -41.15%)
   displ. norm   :     0.3555638 α      lambda       -0.1490758E-03
   maximum displ.:     0.1822895 α      in ANC's #5, #14, #10, ...

........................................................................
.............................. CYCLE   26 ..............................
........................................................................

 iter      E             dE          RMSdq      gap      omega  full diag
   1    -69.6497413 -0.696497E+02  0.842E-02    2.44       0.0  T
   2    -69.6497430 -0.162078E-05  0.498E-02    2.44       1.0  T
   3    -69.6497406  0.233633E-05  0.777E-03    2.44       1.9  T
   4    -69.6497434 -0.282702E-05  0.178E-03    2.44       8.3  T
   5    -69.6497435 -0.735251E-07  0.899E-04    2.44      16.4  T
   6    -69.6497435 -0.154692E-08  0.420E-04    2.44      35.1  T
     SCC iter.                  ...        0 min,  0.020 sec
     gradient                   ...        0 min,  0.005 sec
 * total energy  :   -68.4968859 Eh     change       -0.8834455E-04 Eh
   gradient norm :     0.0050023 Eh/α   predicted    -0.8397412E-04 (  -4.95%)
   displ. norm   :     0.0920745 α      lambda       -0.5570660E-04
   maximum displ.:     0.0519226 α      in ANC's #5, #14, #2, ...

........................................................................
.............................. CYCLE   27 ..............................
........................................................................

 iter      E             dE          RMSdq      gap      omega  full diag
   1    -69.6499141 -0.696499E+02  0.233E-02    2.44       0.0  T
   2    -69.6499142 -0.127362E-06  0.136E-02    2.44       1.1  T
   3    -69.6499140  0.165359E-06  0.221E-03    2.44       6.7  T
   4    -69.6499142 -0.196350E-06  0.618E-04    2.44      23.9  T
   5    -69.6499142 -0.105634E-07  0.261E-04    2.44      56.5  T
     SCC iter.                  ...        0 min,  0.017 sec
     gradient                   ...        0 min,  0.006 sec
 * total energy  :   -68.4969345 Eh     change       -0.4859198E-04 Eh
   gradient norm :     0.0040323 Eh/α   predicted    -0.2809541E-04 ( -42.18%)
   displ. norm   :     0.2627625 α      lambda       -0.1544612E-03
   maximum displ.:     0.1447113 α      in ANC's #5, #14, #2, ...

........................................................................
.............................. CYCLE   28 ..............................
........................................................................

 iter      E             dE          RMSdq      gap      omega  full diag
   1    -69.6515039 -0.696515E+02  0.660E-02    2.45       0.0  T
   2    -69.6515046 -0.629255E-06  0.384E-02    2.45       1.0  T
   3    -69.6515038  0.747814E-06  0.497E-03    2.45       3.0  T
   4    -69.6515048 -0.964212E-06  0.147E-03    2.45      10.1  T
   5    -69.6515048 -0.346201E-07  0.646E-04    2.45      22.8  T
   6    -69.6515048 -0.434478E-08  0.348E-04    2.45      42.4  T
     SCC iter.                  ...        0 min,  0.020 sec
     gradient                   ...        0 min,  0.006 sec
 * total energy  :   -68.4970402 Eh     change       -0.1057621E-03 Eh
   gradient norm :     0.0026002 Eh/α   predicted    -0.8256908E-04 ( -21.93%)
   displ. norm   :     0.3122017 α      lambda       -0.7771704E-04
   maximum displ.:     0.1719210 α      in ANC's #5, #14, #2, ...

........................................................................
.............................. CYCLE   29 ..............................
........................................................................

 iter      E             dE          RMSdq      gap      omega  full diag
   1    -69.6500859 -0.696501E+02  0.734E-02    2.45       0.0  T
   2    -69.6500869 -0.937548E-06  0.429E-02    2.45       1.0  T
   3    -69.6500865  0.395498E-06  0.395E-03    2.45       3.7  T
   4    -69.6500870 -0.566194E-06  0.161E-03    2.45       9.2  T
   5    -69.6500871 -0.712588E-07  0.667E-04    2.45      22.1  T
   6    -69.6500871 -0.155467E-10  0.337E-04    2.45      43.7  T
     SCC iter.                  ...        0 min,  0.020 sec
     gradient                   ...        0 min,  0.006 sec
 * total energy  :   -68.4970839 Eh     change       -0.4368301E-04 Eh
   gradient norm :     0.0047413 Eh/α   predicted    -0.4265719E-04 (  -2.35%)
   displ. norm   :     0.1545953 α      lambda       -0.7685185E-04
   maximum displ.:     0.0839075 α      in ANC's #5, #2, #3, ...

........................................................................
.............................. CYCLE   30 ..............................
........................................................................

 iter      E             dE          RMSdq      gap      omega  full diag
   1    -69.6530327 -0.696530E+02  0.396E-02    2.45       0.0  T
   2    -69.6530333 -0.603961E-06  0.231E-02    2.45       1.0  T
   3    -69.6530328  0.477265E-06  0.387E-03    2.45       3.8  T
   4    -69.6530334 -0.575095E-06  0.134E-03    2.45      11.0  T
   5    -69.6530334 -0.512194E-07  0.478E-04    2.45      30.8  T
   6    -69.6530334 -0.464482E-09  0.252E-04    2.45      58.4  T
     SCC iter.                  ...        0 min,  0.020 sec
     gradient                   ...        0 min,  0.007 sec
 * total energy  :   -68.4971271 Eh     change       -0.4312671E-04 Eh
   gradient norm :     0.0025705 Eh/α   predicted    -0.3938562E-04 (  -8.67%)
   displ. norm   :     0.1860797 α      lambda       -0.4199797E-04
   maximum displ.:     0.1097775 α      in ANC's #5, #2, #14, ...

........................................................................
.............................. CYCLE   31 ..............................
........................................................................

 iter      E             dE          RMSdq      gap      omega  full diag
   1    -69.6525808 -0.696526E+02  0.458E-02    2.45       0.0  T
   2    -69.6525811 -0.234624E-06  0.268E-02    2.45       1.0  T
   3    -69.6525809  0.179165E-06  0.247E-03    2.45       6.0  T
   4    -69.6525811 -0.244921E-06  0.888E-04    2.45      16.6  T
   5    -69.6525812 -0.192531E-07  0.376E-04    2.45      39.2  T
     SCC iter.                  ...        0 min,  0.017 sec
     gradient                   ...        0 min,  0.007 sec
 * total energy  :   -68.4971617 Eh     change       -0.3466584E-04 Eh
   gradient norm :     0.0020918 Eh/α   predicted    -0.2173573E-04 ( -37.30%)
   displ. norm   :     0.2367732 α      lambda       -0.6623581E-04
   maximum displ.:     0.1412320 α      in ANC's #5, #2, #1, ...

........................................................................
.............................. CYCLE   32 ..............................
........................................................................

 iter      E             dE          RMSdq      gap      omega  full diag
   1    -69.6524682 -0.696525E+02  0.629E-02    2.45       0.0  T
   2    -69.6524686 -0.392312E-06  0.367E-02    2.45       1.0  T
   3    -69.6524681  0.513363E-06  0.405E-03    2.45       3.6  T
   4    -69.6524688 -0.664560E-06  0.117E-03    2.45      12.6  T
   5    -69.6524688 -0.211098E-07  0.595E-04    2.45      24.8  T
   6    -69.6524688 -0.636774E-08  0.214E-04    2.45      69.0  T
     SCC iter.                  ...        0 min,  0.020 sec
     gradient                   ...        0 min,  0.005 sec
 * total energy  :   -68.4972047 Eh     change       -0.4296566E-04 Eh
   gradient norm :     0.0016311 Eh/α   predicted    -0.3497550E-04 ( -18.60%)
   displ. norm   :     0.2311388 α      lambda       -0.2061665E-04
   maximum displ.:     0.1398912 α      in ANC's #5, #2, #1, ...

........................................................................
.............................. CYCLE   33 ..............................
........................................................................

 iter      E             dE          RMSdq      gap      omega  full diag
   1    -69.6519199 -0.696519E+02  0.581E-02    2.45       0.0  T
   2    -69.6519202 -0.253090E-06  0.341E-02    2.45       1.0  T
   3    -69.6519200  0.177750E-06  0.255E-03    2.45       5.8  T
   4    -69.6519203 -0.292867E-06  0.783E-04    2.45      18.8  T
   5    -69.6519203 -0.693998E-08  0.381E-04    2.45      38.7  T
     SCC iter.                  ...        0 min,  0.026 sec
     gradient                   ...        0 min,  0.006 sec
 * total energy  :   -68.4972254 Eh     change       -0.2070982E-04 Eh
   gradient norm :     0.0018596 Eh/α   predicted    -0.1055412E-04 ( -49.04%)
   displ. norm   :     0.1526924 α      lambda       -0.2022439E-04
   maximum displ.:     0.0871742 α      in ANC's #5, #2, #1, ...

........................................................................
.............................. CYCLE   34 ..............................
........................................................................

 iter      E             dE          RMSdq      gap      omega  full diag
   1    -69.6534935 -0.696535E+02  0.413E-02    2.45       0.0  T
   2    -69.6534938 -0.252335E-06  0.242E-02    2.45       1.0  T
   3    -69.6534937  0.114253E-06  0.215E-03    2.45       6.9  T
   4    -69.6534938 -0.176170E-06  0.666E-04    2.45      22.2  T
   5    -69.6534938 -0.989029E-08  0.332E-04    2.45      44.4  T
     SCC iter.                  ...        0 min,  0.017 sec
     gradient                   ...        0 min,  0.006 sec
 * total energy  :   -68.4972433 Eh     change       -0.1786193E-04 Eh
   gradient norm :     0.0017488 Eh/α   predicted    -0.1021745E-04 ( -42.80%)
   displ. norm   :     0.2725141 α      lambda       -0.2277198E-04
   maximum displ.:     0.1630020 α      in ANC's #5, #2, #1, ...

........................................................................
.............................. CYCLE   35 ..............................
........................................................................

 iter      E             dE          RMSdq      gap      omega  full diag
   1    -69.6520693 -0.696521E+02  0.706E-02    2.45       0.0  T
   2    -69.6520700 -0.643941E-06  0.414E-02    2.45       1.0  T
   3    -69.6520693  0.657288E-06  0.431E-03    2.45       3.4  T
   4    -69.6520702 -0.862359E-06  0.115E-03    2.45      12.8  T
   5    -69.6520702 -0.248995E-07  0.552E-04    2.45      26.7  T
   6    -69.6520702 -0.320568E-09  0.266E-04    2.45      55.5  T
     SCC iter.                  ...        0 min,  0.020 sec
     gradient                   ...        0 min,  0.007 sec
 * total energy  :   -68.4972595 Eh     change       -0.1620970E-04 Eh
   gradient norm :     0.0020337 Eh/α   predicted    -0.1176300E-04 ( -27.43%)
   displ. norm   :     0.0460909 α      lambda       -0.1200643E-04
   maximum displ.:     0.0250667 α      in ANC's #1, #2, #6, ...

........................................................................
.............................. CYCLE   36 ..............................
........................................................................

 iter      E             dE          RMSdq      gap      omega  full diag
   1    -69.6527555 -0.696528E+02  0.129E-02    2.45       0.0  T
   2    -69.6527556 -0.362326E-07  0.754E-03    2.45       2.0  T
   3    -69.6527556  0.131786E-07  0.810E-04    2.45      18.2  T
   4    -69.6527556 -0.198177E-07  0.311E-04    2.45      47.4  T
     SCC iter.                  ...        0 min,  0.013 sec
     gradient                   ...        0 min,  0.007 sec
 * total energy  :   -68.4972695 Eh     change       -0.1001554E-04 Eh
   gradient norm :     0.0013953 Eh/α   predicted    -0.6019021E-05 ( -39.90%)
   displ. norm   :     0.2378473 α      lambda       -0.3237653E-04
   maximum displ.:     0.1270786 α      in ANC's #1, #2, #6, ...

........................................................................
.............................. CYCLE   37 ..............................
........................................................................

 iter      E             dE          RMSdq      gap      omega  full diag
   1    -69.6549142 -0.696549E+02  0.661E-02    2.45       0.0  T
   2    -69.6549148 -0.591964E-06  0.385E-02    2.45       1.0  T
   3    -69.6549140  0.843810E-06  0.485E-03    2.45       3.0  T
   4    -69.6549150 -0.104402E-05  0.143E-03    2.45      10.3  T
   5    -69.6549150 -0.245523E-07  0.677E-04    2.45      21.8  T
   6    -69.6549150 -0.289472E-08  0.204E-04    2.45      72.3  T
     SCC iter.                  ...        0 min,  0.020 sec
     gradient                   ...        0 min,  0.007 sec
 * total energy  :   -68.4972917 Eh     change       -0.2222357E-04 Eh
   gradient norm :     0.0029376 Eh/α   predicted    -0.1659627E-04 ( -25.32%)
   displ. norm   :     0.1243485 α      lambda       -0.1703944E-04
   maximum displ.:     0.0677850 α      in ANC's #5, #1, #2, ...

........................................................................
.............................. CYCLE   38 ..............................
........................................................................

 iter      E             dE          RMSdq      gap      omega  full diag
   1    -69.6543048 -0.696543E+02  0.330E-02    2.45       0.0  T
   2    -69.6543049 -0.985930E-07  0.194E-02    2.45       1.0  T
   3    -69.6543047  0.186220E-06  0.219E-03    2.45       6.7  T
   4    -69.6543050 -0.236775E-06  0.485E-04    2.45      30.4  T
   5    -69.6543050 -0.928935E-09  0.286E-04    2.45      51.6  T
     SCC iter.                  ...        0 min,  0.017 sec
     gradient                   ...        0 min,  0.006 sec
 * total energy  :   -68.4973054 Eh     change       -0.1370388E-04 Eh
   gradient norm :     0.0022547 Eh/α   predicted    -0.8651764E-05 ( -36.87%)
   displ. norm   :     0.2146466 α      lambda       -0.2393119E-04
   maximum displ.:     0.1161662 α      in ANC's #5, #1, #2, ...

........................................................................
.............................. CYCLE   39 ..............................
........................................................................

 iter      E             dE          RMSdq      gap      omega  full diag
   1    -69.6530114 -0.696530E+02  0.557E-02    2.45       0.0  T
   2    -69.6530118 -0.374908E-06  0.327E-02    2.45       1.0  T
   3    -69.6530111  0.670755E-06  0.399E-03    2.45       3.7  T
   4    -69.6530119 -0.818116E-06  0.861E-04    2.45      17.1  T
   5    -69.6530120 -0.149409E-07  0.446E-04    2.45      33.1  T
     SCC iter.                  ...        0 min,  0.015 sec
     gradient                   ...        0 min,  0.005 sec
 * total energy  :   -68.4973222 Eh     change       -0.1675315E-04 Eh
   gradient norm :     0.0009661 Eh/α   predicted    -0.1251940E-04 ( -25.27%)
   displ. norm   :     0.2189315 α      lambda       -0.1157688E-04
   maximum displ.:     0.1176735 α      in ANC's #1, #2, #5, ...

........................................................................
.............................. CYCLE   40 ..............................
........................................................................

 iter      E             dE          RMSdq      gap      omega  full diag
   1    -69.6525986 -0.696526E+02  0.554E-02    2.46       0.0  T
   2    -69.6525989 -0.338360E-06  0.325E-02    2.46       1.0  T
   3    -69.6525982  0.690552E-06  0.397E-03    2.46       3.7  T
   4    -69.6525990 -0.829017E-06  0.877E-04    2.46      16.8  T
   5    -69.6525991 -0.186177E-07  0.429E-04    2.46      34.4  T
     SCC iter.                  ...        0 min,  0.014 sec
     gradient                   ...        0 min,  0.005 sec
 * total energy  :   -68.4973339 Eh     change       -0.1176283E-04 Eh
   gradient norm :     0.0010269 Eh/α   predicted    -0.5912780E-05 ( -49.73%)
   displ. norm   :     0.1429133 α      lambda       -0.1022936E-04
   maximum displ.:     0.0798855 α      in ANC's #1, #6, #2, ...

........................................................................
.............................. CYCLE   41 ..............................
........................................................................

 iter      E             dE          RMSdq      gap      omega  full diag
   1    -69.6534917 -0.696535E+02  0.341E-02    2.46       0.0  T
   2    -69.6534918 -0.105690E-06  0.200E-02    2.46       1.0  T
   3    -69.6534916  0.173977E-06  0.208E-03    2.46       7.1  T
   4    -69.6534918 -0.217355E-06  0.563E-04    2.46      26.2  T
   5    -69.6534918 -0.568045E-08  0.257E-04    2.46      57.4  T
     SCC iter.                  ...        0 min,  0.014 sec
     gradient                   ...        0 min,  0.005 sec
 * total energy  :   -68.4973453 Eh     change       -0.1132404E-04 Eh
   gradient norm :     0.0007300 Eh/α   predicted    -0.5161321E-05 ( -54.42%)
   displ. norm   :     0.1973344 α      lambda       -0.9959498E-05
   maximum displ.:     0.1120083 α      in ANC's #1, #5, #6, ...

........................................................................
.............................. CYCLE   42 ..............................
........................................................................

 iter      E             dE          RMSdq      gap      omega  full diag
   1    -69.6530946 -0.696531E+02  0.502E-02    2.46       0.0  T
   2    -69.6530948 -0.190338E-06  0.294E-02    2.46       1.0  T
   3    -69.6530946  0.196306E-06  0.237E-03    2.46       6.2  T
   4    -69.6530949 -0.270181E-06  0.708E-04    2.46      20.8  T
   5    -69.6530949 -0.102537E-07  0.333E-04    2.46      44.3  T
     SCC iter.                  ...        0 min,  0.014 sec
     gradient                   ...        0 min,  0.006 sec
 * total energy  :   -68.4973544 Eh     change       -0.9177604E-05 Eh
   gradient norm :     0.0010969 Eh/α   predicted    -0.5070800E-05 ( -44.75%)
   displ. norm   :     0.1209615 α      lambda       -0.8188495E-05
   maximum displ.:     0.0665991 α      in ANC's #1, #3, #6, ...
 * RMSD in coord.:     0.5010004 α      energy gain  -0.9849857E-03 Eh

generating ANC from exact Hessian ...
Using Lindh-Hessian (1995)
 Shifting diagonal of input Hessian by   9.704011091821459E-003
 Lowest  eigenvalues of input Hessian
    0.000000    0.000000    0.000000    0.000000    0.000000    0.000000
    0.010000    0.010133    0.010188    0.010308    0.011130    0.011217
    0.011781    0.012372    0.013537    0.014623    0.014898    0.015201
 Highest eigenvalues
    1.995265    1.997785    2.003433    2.011256    2.172614    2.605161
 

........................................................................
.............................. CYCLE   43 ..............................
........................................................................

 iter      E             dE          RMSdq      gap      omega  full diag
   1    -69.6539838 -0.696540E+02  0.264E-02    2.45       0.0  T
   2    -69.6539839 -0.958552E-07  0.155E-02    2.46       1.0  T
   3    -69.6539838  0.110954E-06  0.199E-03    2.46       7.4  T
   4    -69.6539839 -0.139544E-06  0.531E-04    2.46      27.8  T
   5    -69.6539839 -0.638276E-08  0.238E-04    2.46      61.9  T
     SCC iter.                  ...        0 min,  0.014 sec
     gradient                   ...        0 min,  0.006 sec
 * total energy  :   -68.4973612 Eh     change       -0.6764112E-05 Eh
   gradient norm :     0.0010593 Eh/α   predicted     0.0000000E+00 (-100.00%)
   displ. norm   :     0.0235854 α      lambda       -0.4949564E-05
   maximum displ.:     0.0126796 α      in ANC's #6, #7, #2, ...

........................................................................
.............................. CYCLE   44 ..............................
........................................................................

 iter      E             dE          RMSdq      gap      omega  full diag
   1    -69.6531680 -0.696532E+02  0.688E-03    2.46       0.0  T
   2    -69.6531680 -0.279410E-07  0.406E-03    2.46       3.6  T
   3    -69.6531680  0.325055E-07  0.109E-03    2.46      13.6  T
   4    -69.6531680 -0.399942E-07  0.227E-04    2.46      64.9  T
   5    -69.6531680 -0.601631E-09  0.110E-04    2.46     134.5  T
     SCC iter.                  ...        0 min,  0.014 sec
     gradient                   ...        0 min,  0.005 sec
 * total energy  :   -68.4973666 Eh     change       -0.5425482E-05 Eh
   gradient norm :     0.0003242 Eh/α   predicted    -0.2509683E-05 ( -53.74%)
   displ. norm   :     0.0556125 α      lambda       -0.6298289E-05
   maximum displ.:     0.0312986 α      in ANC's #6, #7, #2, ...

........................................................................
.............................. CYCLE   45 ..............................
........................................................................

 iter      E             dE          RMSdq      gap      omega  full diag
   1    -69.6527217 -0.696527E+02  0.145E-02    2.46       0.0  T
   2    -69.6527217 -0.392694E-07  0.852E-03    2.46       1.7  T
   3    -69.6527217  0.586748E-07  0.133E-03    2.46      11.1  T
   4    -69.6527218 -0.727019E-07  0.288E-04    2.46      51.2  T
   5    -69.6527218 -0.164886E-08  0.150E-04    2.46      98.1  T
     SCC iter.                  ...        0 min,  0.014 sec
     gradient                   ...        0 min,  0.005 sec
 * total energy  :   -68.4973738 Eh     change       -0.7130009E-05 Eh
   gradient norm :     0.0008978 Eh/α   predicted    -0.3154854E-05 ( -55.75%)
   displ. norm   :     0.0813050 α      lambda       -0.6806147E-05
   maximum displ.:     0.0444195 α      in ANC's #6, #2, #5, ...

........................................................................
.............................. CYCLE   46 ..............................
........................................................................

 iter      E             dE          RMSdq      gap      omega  full diag
   1    -69.6527769 -0.696528E+02  0.209E-02    2.46       0.0  T
   2    -69.6527769 -0.457843E-07  0.123E-02    2.46       1.2  T
   3    -69.6527769  0.947676E-07  0.163E-03    2.46       9.0  T
   4    -69.6527770 -0.117356E-06  0.320E-04    2.46      46.0  T
   5    -69.6527770 -0.163715E-08  0.177E-04    2.46      83.2  T
     SCC iter.                  ...        0 min,  0.014 sec
     gradient                   ...        0 min,  0.005 sec
 * total energy  :   -68.4973816 Eh     change       -0.7873674E-05 Eh
   gradient norm :     0.0009495 Eh/α   predicted    -0.3430201E-05 ( -56.43%)
   displ. norm   :     0.1089825 α      lambda       -0.7727071E-05
   maximum displ.:     0.0583049 α      in ANC's #6, #5, #2, ...

........................................................................
.............................. CYCLE   47 ..............................
........................................................................

 iter      E             dE          RMSdq      gap      omega  full diag
   1    -69.6529091 -0.696529E+02  0.282E-02    2.45       0.0  T
   2    -69.6529092 -0.694562E-07  0.166E-02    2.45       1.0  T
   3    -69.6529090  0.161695E-06  0.216E-03    2.45       6.8  T
   4    -69.6529092 -0.201561E-06  0.383E-04    2.45      38.4  T
   5    -69.6529092 -0.127082E-08  0.223E-04    2.45      66.2  T
     SCC iter.                  ...        0 min,  0.014 sec
     gradient                   ...        0 min,  0.007 sec
 * total energy  :   -68.4973905 Eh     change       -0.8875348E-05 Eh
   gradient norm :     0.0007072 Eh/α   predicted    -0.3884177E-05 ( -56.24%)
   displ. norm   :     0.1433679 α      lambda       -0.8593361E-05
   maximum displ.:     0.0743082 α      in ANC's #6, #5, #2, ...

........................................................................
.............................. CYCLE   48 ..............................
........................................................................

 iter      E             dE          RMSdq      gap      omega  full diag
   1    -69.6531896 -0.696532E+02  0.368E-02    2.45       0.0  T
   2    -69.6531898 -0.107962E-06  0.217E-02    2.45       1.0  T
   3    -69.6531895  0.233633E-06  0.265E-03    2.45       5.6  T
   4    -69.6531898 -0.295265E-06  0.443E-04    2.45      33.3  T
   5    -69.6531898 -0.102960E-08  0.252E-04    2.45      58.6  T
     SCC iter.                  ...        0 min,  0.014 sec
     gradient                   ...        0 min,  0.007 sec
 * total energy  :   -68.4973997 Eh     change       -0.9178982E-05 Eh
   gradient norm :     0.0004031 Eh/α   predicted    -0.4337191E-05 ( -52.75%)
   displ. norm   :     0.1087418 α      lambda       -0.5505309E-05
   maximum displ.:     0.0535220 α      in ANC's #5, #6, #2, ...

........................................................................
.............................. CYCLE   49 ..............................
........................................................................

 iter      E             dE          RMSdq      gap      omega  full diag
   1    -69.6533352 -0.696533E+02  0.280E-02    2.45       0.0  T
   2    -69.6533353 -0.695630E-07  0.165E-02    2.45       1.0  T
   3    -69.6533351  0.137068E-06  0.210E-03    2.45       7.0  T
   4    -69.6533353 -0.174416E-06  0.350E-04    2.45      42.1  T
   5    -69.6533353 -0.750703E-09  0.196E-04    2.45      75.2  T
     SCC iter.                  ...        0 min,  0.017 sec
     gradient                   ...        0 min,  0.005 sec
 * total energy  :   -68.4974056 Eh     change       -0.5970511E-05 Eh
   gradient norm :     0.0003259 Eh/α   predicted    -0.2769464E-05 ( -53.61%)
   displ. norm   :     0.0717391 α      lambda       -0.3625634E-05
   maximum displ.:     0.0394759 α      in ANC's #5, #2, #8, ...

........................................................................
.............................. CYCLE   50 ..............................
........................................................................

 iter      E             dE          RMSdq      gap      omega  full diag
   1    -69.6534791 -0.696535E+02  0.183E-02    2.45       0.0  T
   2    -69.6534791 -0.355459E-07  0.108E-02    2.45       1.4  T
   3    -69.6534791  0.682972E-07  0.148E-03    2.45      10.0  T
   4    -69.6534792 -0.854248E-07  0.266E-04    2.45      55.5  T
   5    -69.6534792 -0.958124E-09  0.140E-04    2.45     105.1  T
     SCC iter.                  ...        0 min,  0.014 sec
     gradient                   ...        0 min,  0.007 sec
 * total energy  :   -68.4974097 Eh     change       -0.4077376E-05 Eh
   gradient norm :     0.0003146 Eh/α   predicted    -0.1822720E-05 ( -55.30%)
   displ. norm   :     0.0577837 α      lambda       -0.2938443E-05
   maximum displ.:     0.0344696 α      in ANC's #5, #2, #8, ...

   *** GEOMETRY OPTIMIZATION CONVERGED AFTER 50 ITERATIONS ***

------------------------------------------------------------------------
 total energy gain   :        -0.0314917 Eh      -19.7613 kcal/mol
 total RMSD          :         1.1987831 a0        0.6344 Å
 total power (kW/mol):        -1.6536268 (step)  -47.0737 (real)
------------------------------------------------------------------------

 ANCopt (total)                0 d,  0 h,  0 min,  1.756 sec
 optimizer setup                ...        0 min,  0.000 sec (  0.017%)
 model hessian                  ...        0 min,  0.060 sec (  3.433%)
 ANC generation                 ...        0 min,  0.009 sec (  0.489%)
 coordinate transformation      ...        0 min,  0.001 sec (  0.066%)
 single point calculation       ...        0 min,  1.591 sec ( 90.574%)
 optimization log               ...        0 min,  0.051 sec (  2.898%)
 hessian update                 ...        0 min,  0.013 sec (  0.722%)
 rational function              ...        0 min,  0.011 sec (  0.646%)

================
 final structure:
================
46
 xtb: 6.7.1 (edcfbbe)
C            1.81724154709901       -2.52378082245789       -0.26696588429802
C            2.46309266957146       -1.17285432307678       -0.20283863472433
C            1.74083313195456       -0.04209799674459       -0.58106797510882
C            0.33841050309859       -0.17387443857640       -1.01484771702302
P           -0.81302480289326        0.16562396278017        0.43535557401881
C           -2.01291178645639        1.40263900981186       -0.15663163072714
C           -2.34048492270970        2.41092194885563        0.73988791974005
C           -3.25212814647001        3.38597447674002        0.37858897572773
C           -3.83260555566101        3.35311892290756       -0.87893096829676
C           -3.49610363193067        2.35162683555421       -1.77622794517114
C           -2.58613757409627        1.37243393385015       -1.42064730186920
C           -1.75641575515784       -1.38977580769580        0.56274494796842
C           -1.91499705619019       -1.90365465046482        1.84273621058520
C           -2.61976209794893       -3.07838631708473        2.03270317041703
C           -3.16165165758507       -3.74015659271363        0.94286223739556
C           -2.99385150024658       -3.23114741445366       -0.33542324421510
C           -2.29259219222951       -2.05534519924091       -0.53173060352865
O           -0.12387666997287        0.53597046436263        1.67644945994578
O           -0.06490234299472       -0.48936936932710       -2.10284634649191
C            2.29336263764005        1.23512442821530       -0.47838951221872
C            1.46992338648730        2.42329816503747       -0.86816852654360
C            3.59611126857666        1.36093951135790       -0.02803893464676
C            4.34412932928468        0.24889081183337        0.33789488583906
C            5.74480808903880        0.41763334705884        0.84225049582355
C            3.76277827509289       -1.00779454073547        0.24990622432470
H            2.50660816725548       -3.29957615244398        0.05617957519334
H            0.93768052257298       -2.54726994288496        0.37976812228119
H            1.48949622458512       -2.74572845811812       -1.28207967475321
H           -1.86600378247202        2.41693857951123        1.71103596707188
H           -3.50937959732238        4.17022264286699        1.07528880616895
H           -4.54601098785043        4.11265265387405       -1.16330361039229
H           -3.94465809970316        2.33495969659601       -2.75873277140836
H           -2.30993280887823        0.60363668060458       -2.12528070821271
H           -1.47255037417830       -1.37238671702193        2.67328248579521
H           -2.74511358633271       -3.47866026084796        3.02799991830640
H           -3.71173344955618       -4.65829084602986        1.08831818669979
H           -3.40993650832121       -3.75464264789045       -1.18375955397213
H           -2.14590491407686       -1.67035868540980       -1.52880613688180
H            0.55865720863472        2.45296699501710       -0.26655933613998
H            2.01987851742614        3.34779806860198       -0.71069903149134
H            1.17693820956584        2.36378373444712       -1.91657237541592
H            4.03585488666575        2.34516979108764        0.04851489549615
H            6.26917614198332       -0.53418871092305        0.86491120134084
H            5.72943621433212        0.82507102279647        1.85306552694223
H            6.29873185477238        1.11086437075834        0.21211893494266
H            4.32951901560424       -1.87891916038845        0.54668470151838
 
 Bond Distances (Angstroems)
 ---------------------------
C1-C2=1.4987         C1-H26=1.0870        C1-H27=1.0920        C1-H28=1.0896        C2-C1=1.4987         C2-C3=1.3940         
C2-C25=1.3861        C3-C2=1.3940         C3-C4=1.4739         C3-C20=1.3954        C4-C3=1.4739         C4-P5=1.8826         
C4-O19=1.2025        P5-C4=1.8826         P5-C6=1.8222         P5-C12=1.8236        P5-O18=1.4671        C6-P5=1.8222         
C6-C7=1.3884         C6-C11=1.3882        C7-C6=1.3884         C7-C8=1.3829         C7-H29=1.0809        C8-C7=1.3829         
C8-C9=1.3854         C8-H30=1.0801        C9-C8=1.3854         C9-C10=1.3861        C9-H31=1.0801        C10-C9=1.3861        
C10-C11=1.3832       C10-H32=1.0802       C11-C6=1.3882        C11-C10=1.3832       C11-H33=1.0788       C12-P5=1.8236        
C12-C13=1.3884       C12-C17=1.3886       C13-C12=1.3884       C13-C14=1.3830       C13-H34=1.0807       C14-C13=1.3830       
C14-C15=1.3854       C14-H35=1.0801       C15-C14=1.3854       C15-C16=1.3861       C15-H36=1.0801       C16-C15=1.3861       
C16-C17=1.3830       C16-H37=1.0802       C17-C12=1.3886       C17-C16=1.3830       C17-H38=1.0788       O18-P5=1.4671        
O19-C4=1.2025        C20-C3=1.3954        C20-C21=1.4972       C20-C22=1.3841       C21-C20=1.4972       C21-H39=1.0923       
C21-H40=1.0872       C21-H41=1.0902       C22-C20=1.3841       C22-C23=1.3893       C22-H42=1.0807       C23-C22=1.3893       
C23-C24=1.4982       C23-C25=1.3874       C24-C23=1.4982       C24-H43=1.0869       C24-H44=1.0899       C24-H45=1.0883       
C25-C2=1.3861        C25-C23=1.3874       C25-H46=1.0808       H26-C1=1.0870        H27-C1=1.0920        H28-C1=1.0896        
H29-C7=1.0809        H30-C8=1.0801        H31-C9=1.0801        H32-C10=1.0802       H33-C11=1.0788       H34-C13=1.0807       
H35-C14=1.0801       H36-C15=1.0801       H37-C16=1.0802       H38-C17=1.0788       H39-C21=1.0923       H40-C21=1.0872       
H41-C21=1.0902       H42-C22=1.0807       H43-C24=1.0869       H44-C24=1.0899       H45-C24=1.0883       H46-C25=1.0808       
 C  H  Rav=1.0840 sigma=0.0047  Rmin=1.0788  Rmax=1.0923    21
 C  C  Rav=1.4061 sigma=0.0409  Rmin=1.3829  Rmax=1.4987    22
 O  C  Rav=1.2025 sigma=0.0000  Rmin=1.2025  Rmax=1.2025     1
 P  C  Rav=1.8428 sigma=0.0281  Rmin=1.8222  Rmax=1.8826     3
 P  O  Rav=1.4671 sigma=0.0000  Rmin=1.4671  Rmax=1.4671     1
 
 selected bond angles (degree)
 --------------------
H26-C1-C2=110.94               H27-C1-C2=109.95               H27-C1-H26=108.63              H28-C1-C2=110.68               
H28-C1-H26=108.81              H28-C1-H27=107.77              C3-C2-C1=119.75                C25-C2-C1=121.69               
C25-C2-C3=118.54               C4-C3-C2=120.02                C20-C3-C2=121.15               C20-C3-C4=118.70               
P5-C4-C3=109.82                O19-C4-C3=127.51               O19-C4-P5=122.63               C6-P5-C4=105.96                
C12-P5-C4=102.50               C12-P5-C6=105.13               O18-P5-C4=114.20               O18-P5-C6=114.38               
O18-P5-C12=113.53              C7-C6-P5=116.01                C11-C6-P5=123.57               C11-C6-C7=120.42               
C8-C7-C6=119.93                H29-C7-C6=118.73               H29-C7-C8=121.35               C9-C8-C7=119.78                
H30-C8-C7=120.03               H30-C8-C9=120.19               C10-C9-C8=120.20               H31-C9-C8=119.94               
H31-C9-C10=119.87              C11-C10-C9=120.32              H32-C10-C9=119.94              H32-C10-C11=119.74             
 
 selected dihedral angles (degree)
 ---------------------------------
C3-C2-C1-H26=179.86           C3-C2-C1-H27=300.04           C3-C2-C1-H28= 58.98           C25-C2-C1-H26=358.61          
C25-C2-C1-H27=118.78          C25-C2-C1-H28=237.72          C4-C3-C2-C1=  1.29            C4-C3-C2-C25=182.50           
C20-C3-C2-C1=177.20           C20-C3-C2-C25=358.42          P5-C4-C3-C2= 95.95            P5-C4-C3-C20=279.94           
O19-C4-C3-C2=278.22           O19-C4-C3-C20=102.21          C6-P5-C4-C3=128.92            C6-P5-C4-O19=306.79           
C12-P5-C4-C3=238.89           C12-P5-C4-O19= 56.76          O18-P5-C4-C3=  2.11           O18-P5-C4-O19=179.98          
C7-C6-P5-C4=221.00            C7-C6-P5-C12=112.91           C7-C6-P5-O18=347.70           C11-C6-P5-C4= 40.98           
C11-C6-P5-C12=292.89          C11-C6-P5-O18=167.68          C8-C7-C6-P5=180.56            C8-C7-C6-C11=  0.57           
H29-C7-C6-P5=  0.95           H29-C7-C6-C11=180.97          C9-C8-C7-C6=359.87            C9-C8-C7-H29=179.47           
H30-C8-C7-C6=179.90           H30-C8-C7-H29=359.50          C10-C9-C8-C7=359.62           C10-C9-C8-H30=179.59          
H31-C9-C8-C7=179.92           H31-C9-C8-H30=359.88          C11-C10-C9-C8=  0.46          C11-C10-C9-H31=180.16         
H32-C10-C9-C8=180.54          H32-C10-C9-H31=  0.24         
           -------------------------------------------------
          |                Final Singlepoint                |
           -------------------------------------------------

          ...................................................
          :                      SETUP                      :
          :.................................................:
          :  # basis functions                 127          :
          :  # atomic orbitals                 126          :
          :  # shells                           72          :
          :  # electrons                       126          :
          :  max. iterations                   250          :
          :  Hamiltonian                  GFN2-xTB          :
          :  restarted?                      false          :
          :  GBSA solvation                  false          :
          :  PC potential                    false          :
          :  electronic temp.          300.0000000     K    :
          :  accuracy                    1.0000000          :
          :  -> integral cutoff          0.2500000E+02      :
          :  -> integral neglect         0.1000000E-07      :
          :  -> SCF convergence          0.1000000E-05 Eh   :
          :  -> wf. convergence          0.1000000E-03 e    :
          :  Broyden damping             0.4000000          :
          :  net charge                          0          :
          :  unpaired electrons                  0          :
          ...................................................

 iter      E             dE          RMSdq      gap      omega  full diag
   1    -69.6534792 -0.696535E+02  0.700E-05    2.45       0.0  T
   2    -69.6534792 -0.450484E-10  0.466E-05    2.45     316.5  T
   3    -69.6534792 -0.542286E-10  0.286E-05    2.45     514.6  T

   *** convergence criteria satisfied after 3 iterations ***

         #    Occupation            Energy/Eh            Energy/eV
      -------------------------------------------------------------
         1        2.0000           -0.7266941             -19.7744
       ...           ...                  ...                  ...
        57        2.0000           -0.4170454             -11.3484
        58        2.0000           -0.4165860             -11.3359
        59        2.0000           -0.4156801             -11.3112
        60        2.0000           -0.4041371             -10.9971
        61        2.0000           -0.3927462             -10.6872
        62        2.0000           -0.3924368             -10.6787
        63        2.0000           -0.3738028             -10.1717 (HOMO)
        64                         -0.2837202              -7.7204 (LUMO)
        65                         -0.2557959              -6.9606
        66                         -0.2358957              -6.4190
        67                         -0.2354080              -6.4058
        68                         -0.2335937              -6.3564
       ...                                ...                  ...
       126                          1.2300707              33.4719
      -------------------------------------------------------------
                  HL-Gap            0.0900825 Eh            2.4513 eV
             Fermi-level           -0.3287615 Eh           -8.9461 eV

 SCC (total)                   0 d,  0 h,  0 min,  0.016 sec
 SCC setup                      ...        0 min,  0.000 sec (  1.224%)
 Dispersion                     ...        0 min,  0.000 sec (  1.483%)
 classical contributions        ...        0 min,  0.000 sec (  0.305%)
 integral evaluation            ...        0 min,  0.001 sec (  9.453%)
 iterations                     ...        0 min,  0.008 sec ( 51.269%)
 molecular gradient             ...        0 min,  0.006 sec ( 34.912%)
 printout                       ...        0 min,  0.000 sec (  1.180%)

         :::::::::::::::::::::::::::::::::::::::::::::::::::::
         ::                     SUMMARY                     ::
         :::::::::::::::::::::::::::::::::::::::::::::::::::::
         :: total energy             -68.497409726960 Eh    ::
         :: gradient norm              0.000314905978 Eh/a0 ::
         :: HOMO-LUMO gap              2.451270095600 eV    ::
         ::.................................................::
         :: SCC energy               -69.652479862861 Eh    ::
         :: -> isotropic ES            0.054969903544 Eh    ::
         :: -> anisotropic ES          0.004618932352 Eh    ::
         :: -> anisotropic XC          0.037477408650 Eh    ::
         :: -> dispersion             -0.058306160308 Eh    ::
         :: repulsion energy           1.155070135902 Eh    ::
         :: add. restraining           0.000000000000 Eh    ::
         :: total charge               0.000000000000 e     ::
         :::::::::::::::::::::::::::::::::::::::::::::::::::::

           -------------------------------------------------
          |                Property Printout                |
           -------------------------------------------------

    * Orbital Energies and Occupations

         #    Occupation            Energy/Eh            Energy/eV
      -------------------------------------------------------------
         1        2.0000           -0.7266941             -19.7744
       ...           ...                  ...                  ...
        51        2.0000           -0.4461604             -12.1406
        52        2.0000           -0.4342705             -11.8171
        53        2.0000           -0.4322913             -11.7632
        54        2.0000           -0.4308548             -11.7242
        55        2.0000           -0.4254651             -11.5775
        56        2.0000           -0.4224228             -11.4947
        57        2.0000           -0.4170454             -11.3484
        58        2.0000           -0.4165860             -11.3359
        59        2.0000           -0.4156801             -11.3112
        60        2.0000           -0.4041371             -10.9971
        61        2.0000           -0.3927462             -10.6872
        62        2.0000           -0.3924368             -10.6787
        63        2.0000           -0.3738028             -10.1717 (HOMO)
        64                         -0.2837202              -7.7204 (LUMO)
        65                         -0.2557959              -6.9606
        66                         -0.2358957              -6.4190
        67                         -0.2354080              -6.4058
        68                         -0.2335937              -6.3564
        69                         -0.2218148              -6.0359
        70                         -0.2176881              -5.9236
        71                         -0.1284336              -3.4949
        72                         -0.1123649              -3.0576
        73                         -0.1039667              -2.8291
        74                         -0.0691356              -1.8813
       ...                                ...                  ...
       126                          1.2300707              33.4719
      -------------------------------------------------------------
                  HL-Gap            0.0900825 Eh            2.4513 eV
             Fermi-level           -0.3287615 Eh           -8.9461 eV

     #   Z          covCN         q      C6AA      α(0)
     1   6 C        3.757    -0.101    22.489     6.761
     2   6 C        2.967     0.024    27.469     8.597
     3   6 C        3.084    -0.025    28.538     8.757
     4   6 C        2.768     0.246    22.882     7.834
     5  15 P        4.041     0.052   157.910    22.573
     6   6 C        2.922     0.015    27.676     8.627
     7   6 C        3.036    -0.022    28.528     8.761
     8   6 C        2.919    -0.027    28.679     8.782
     9   6 C        2.920    -0.025    28.630     8.775
    10   6 C        2.921    -0.027    28.673     8.781
    11   6 C        2.969    -0.026    28.651     8.780
    12   6 C        2.922     0.014    27.700     8.631
    13   6 C        3.035    -0.022    28.515     8.759
    14   6 C        2.919    -0.027    28.683     8.783
    15   6 C        2.920    -0.025    28.631     8.775
    16   6 C        2.920    -0.027    28.678     8.782
    17   6 C        2.968    -0.026    28.654     8.780
    18   8 O        0.808    -0.360    20.916     6.130
    19   8 O        0.878    -0.328    20.294     6.040
    20   6 C        2.968     0.026    27.416     8.589
    21   6 C        3.758    -0.102    22.501     6.763
    22   6 C        2.930    -0.049    29.217     8.865
    23   6 C        2.964     0.021    27.533     8.607
    24   6 C        3.758    -0.110    22.662     6.787
    25   6 C        2.930    -0.049    29.226     8.866
    26   1 H        0.925     0.046     2.367     2.406
    27   1 H        0.924     0.043     2.403     2.424
    28   1 H        0.925     0.049     2.330     2.387
    29   1 H        0.926     0.061     2.185     2.312
    30   1 H        0.926     0.040     2.454     2.449
    31   1 H        0.926     0.038     2.474     2.459
    32   1 H        0.926     0.039     2.461     2.453
    33   1 H        0.926     0.058     2.217     2.328
    34   1 H        0.926     0.062     2.171     2.304
    35   1 H        0.926     0.039     2.457     2.451
    36   1 H        0.926     0.038     2.477     2.461
    37   1 H        0.926     0.039     2.465     2.455
    38   1 H        0.926     0.058     2.219     2.330
    39   1 H        0.924     0.058     2.223     2.332
    40   1 H        0.925     0.048     2.340     2.392
    41   1 H        0.925     0.043     2.403     2.424
    42   1 H        0.926     0.039     2.458     2.452
    43   1 H        0.925     0.044     2.398     2.422
    44   1 H        0.925     0.052     2.290     2.366
    45   1 H        0.925     0.047     2.357     2.401
    46   1 H        0.926     0.038     2.477     2.461

 Mol. C6AA /au·bohr⁶  :      28398.375031
 Mol. C8AA /au·bohr⁸  :     744388.044973
 Mol. α(0) /au        :        270.654325


Wiberg/Mayer (AO) data.
largest (>0.10) Wiberg bond orders for each atom

 ---------------------------------------------------------------------------
     #   Z sym  total        # sym  WBO       # sym  WBO       # sym  WBO
 ---------------------------------------------------------------------------
     1   6 C    3.996 --     2 C    1.025    26 H    0.985    28 H    0.972
                            27 H    0.964
     2   6 C    3.986 --    25 C    1.416     3 C    1.360     1 C    1.025
                            22 C    0.102
     3   6 C    3.981 --     2 C    1.360    20 C    1.351     4 C    0.994
                            23 C    0.100
     4   6 C    3.890 --    19 O    1.878     3 C    0.994     5 P    0.822
     5  15 P    5.241 --    18 O    2.096    12 C    0.943     6 C    0.942
                             4 C    0.822
     6   6 C    3.982 --    11 C    1.390     7 C    1.387     5 P    0.942
                             9 C    0.103
     7   6 C    3.988 --     8 C    1.443     6 C    1.387    29 H    0.956
                            10 C    0.109
     8   6 C    3.990 --     7 C    1.443     9 C    1.439    30 H    0.969
                            11 C    0.110
     9   6 C    3.980 --     8 C    1.439    10 C    1.433    31 H    0.971
                             6 C    0.103
    10   6 C    3.992 --    11 C    1.449     9 C    1.433    32 H    0.970
                             7 C    0.109
    11   6 C    3.989 --    10 C    1.449     6 C    1.390    33 H    0.960
                             8 C    0.110
    12   6 C    3.983 --    17 C    1.389    13 C    1.387     5 P    0.943
                            15 C    0.103
    13   6 C    3.988 --    14 C    1.442    12 C    1.387    34 H    0.956
                            16 C    0.108
    14   6 C    3.990 --    13 C    1.442    15 C    1.439    35 H    0.969
                            17 C    0.111
    15   6 C    3.981 --    14 C    1.439    16 C    1.433    36 H    0.971
                            12 C    0.103
    16   6 C    3.992 --    17 C    1.449    15 C    1.433    37 H    0.970
                            13 C    0.108
    17   6 C    3.989 --    16 C    1.449    12 C    1.389    38 H    0.959
                            14 C    0.111
    18   8 O    2.287 --     5 P    2.096
    19   8 O    2.125 --     4 C    1.878
    20   6 C    3.986 --    22 C    1.425     3 C    1.351    21 C    1.026
    21   6 C    3.995 --    20 C    1.026    40 H    0.984    41 H    0.972
                            39 H    0.949
    22   6 C    3.989 --    20 C    1.425    23 C    1.404    42 H    0.965
                             2 C    0.102
    23   6 C    3.986 --    25 C    1.413    22 C    1.404    24 C    1.026
                             3 C    0.100
    24   6 C    3.995 --    23 C    1.026    43 H    0.985    45 H    0.977
                            44 H    0.968
    25   6 C    3.989 --     2 C    1.416    23 C    1.413    46 H    0.964
    26   1 H    0.997 --     1 C    0.985
    27   1 H    0.998 --     1 C    0.964
    28   1 H    0.997 --     1 C    0.972
    29   1 H    0.996 --     7 C    0.956
    30   1 H    0.997 --     8 C    0.969
    31   1 H    0.998 --     9 C    0.971
    32   1 H    0.998 --    10 C    0.970
    33   1 H    0.996 --    11 C    0.960
    34   1 H    0.996 --    13 C    0.956
    35   1 H    0.997 --    14 C    0.969
    36   1 H    0.998 --    15 C    0.971
    37   1 H    0.998 --    16 C    0.970
    38   1 H    0.997 --    17 C    0.959
    39   1 H    0.996 --    21 C    0.949
    40   1 H    0.997 --    21 C    0.984
    41   1 H    0.998 --    21 C    0.972
    42   1 H    0.996 --    22 C    0.965
    43   1 H    0.998 --    24 C    0.985
    44   1 H    0.996 --    24 C    0.968
    45   1 H    0.997 --    24 C    0.977
    46   1 H    0.996 --    25 C    0.964
 ---------------------------------------------------------------------------

Topologies differ in total number of bonds
Writing topology from bond orders to xtbtopo.mol

molecular dipole:
                 x           y           z       tot (Debye)
 q only:       -0.168      -0.038      -0.150
   full:       -0.372      -0.090      -0.264       1.182
molecular quadrupole (traceless):
                xx          xy          yy          xz          yz          zz
 q only:       10.793       0.329       4.558       2.128      -4.602     -15.351
  q+dip:        8.151       0.587       7.239       5.184      -4.731     -15.390
   full:        9.887       0.068       6.993       1.814      -5.797     -16.880

           -------------------------------------------------
          |                Geometry Summary                 |
           -------------------------------------------------

      molecular mass/u    :      348.3755174
   center of mass at/Å    :       -0.2261485       0.0049996      -0.0001777
  moments of inertia/u·Å² :        0.1767975E+04   0.2903769E+04   0.3968388E+04
rotational constants/cm⁻¹ :        0.9534996E-02   0.5805431E-02   0.4247980E-02

 * 43 selected distances

     #   Z          #   Z                                           value/Å
     2   6 C        3   6 C                                       1.3940325
     5  15 P        6   6 C                                       1.8221922
     6   6 C        7   6 C                                       1.3884114
     7   6 C        8   6 C                                       1.3828804
     8   6 C        9   6 C                                       1.3854206
     9   6 C       10   6 C                                       1.3861321
     6   6 C       11   6 C                                       1.3882493
    10   6 C       11   6 C                                       1.3832190
     5  15 P       12   6 C                                       1.8235909 (max)
    12   6 C       13   6 C                                       1.3883794
    13   6 C       14   6 C                                       1.3830315
    14   6 C       15   6 C                                       1.3854017
    15   6 C       16   6 C                                       1.3860957
    12   6 C       17   6 C                                       1.3886486
    16   6 C       17   6 C                                       1.3830446
     5  15 P       18   8 O                                       1.4671047
     4   6 C       19   8 O                                       1.2024723
     3   6 C       20   6 C                                       1.3953957
    20   6 C       22   6 C                                       1.3841241
    22   6 C       23   6 C                                       1.3892772
     2   6 C       25   6 C                                       1.3861478
    23   6 C       25   6 C                                       1.3874327
     1   6 C       26   1 H                                       1.0869719
     1   6 C       27   1 H                                       1.0919910
     1   6 C       28   1 H                                       1.0895568
     7   6 C       29   1 H                                       1.0808780
     8   6 C       30   1 H                                       1.0800992
     9   6 C       31   1 H                                       1.0801420
    10   6 C       32   1 H                                       1.0801828
    11   6 C       33   1 H                                       1.0788173 (min)
    13   6 C       34   1 H                                       1.0806535
    14   6 C       35   1 H                                       1.0800685
    15   6 C       36   1 H                                       1.0801473
    16   6 C       37   1 H                                       1.0802077
    17   6 C       38   1 H                                       1.0788381
    21   6 C       39   1 H                                       1.0923462
    21   6 C       40   1 H                                       1.0871741
    21   6 C       41   1 H                                       1.0901987
    22   6 C       42   1 H                                       1.0807148
    24   6 C       43   1 H                                       1.0869410
    24   6 C       44   1 H                                       1.0899491
    24   6 C       45   1 H                                       1.0883321
    25   6 C       46   1 H                                       1.0808010

 * 5 distinct bonds (by element types)

   Z      Z             #   av. dist./Å        max./Å        min./Å
   1 H    6 C          21     1.0840482     1.0923462     1.0788173
   6 C    6 C          18     1.3869625     1.3953957     1.3828804
   6 C    8 O           1     1.2024723     1.2024723     1.2024723
   6 C   15 P           2     1.8228915     1.8235909     1.8221922
   8 O   15 P           1     1.4671047     1.4671047     1.4671047


optimized geometry written to: xtbopt.xyz


           -------------------------------------------------
          | TOTAL ENERGY              -68.497409726960 Eh   |
          | GRADIENT NORM               0.000314905978 Eh/α |
          | HOMO-LUMO GAP               2.451270095600 eV   |
           -------------------------------------------------

------------------------------------------------------------------------
 * finished run on 2025/12/01 at 14:19:50.062     
------------------------------------------------------------------------
 total:
 * wall-time:     0 d,  0 h,  0 min,  1.844 sec
 *  cpu-time:     0 d,  0 h,  0 min, 42.182 sec
 * ratio c/w:    22.876 speedup
 SCF:
 * wall-time:     0 d,  0 h,  0 min,  0.058 sec
 *  cpu-time:     0 d,  0 h,  0 min,  1.327 sec
 * ratio c/w:    22.843 speedup
 ANC optimizer:
 * wall-time:     0 d,  0 h,  0 min,  1.773 sec
 *  cpu-time:     0 d,  0 h,  0 min, 40.634 sec
 * ratio c/w:    22.913 speedup

normal termination of xtb
