      -----------------------------------------------------------      
     |                   =====================                   |     
     |                           x T B                           |     
     |                   =====================                   |     
     |                         S. Grimme                         |     
     |          Mulliken Center for Theoretical Chemistry        |     
     |                    University of Bonn                     |     
      -----------------------------------------------------------      

   * xtb version 6.7.1 (edcfbbe) compiled by 'albert@albert-system' on 2024-07-22

   xtb is free software: you can redistribute it and/or modify it under
   the terms of the GNU Lesser General Public License as published by
   the Free Software Foundation, either version 3 of the License, or
   (at your option) any later version.
   
   xtb is distributed in the hope that it will be useful,
   but WITHOUT ANY WARRANTY; without even the implied warranty of
   MERCHANTABILITY or FITNESS FOR A PARTICULAR PURPOSE.  See the
   GNU Lesser General Public License for more details.
   
   Cite this work as:
   * C. Bannwarth, E. Caldeweyher, S. Ehlert, A. Hansen, P. Pracht,
     J. Seibert, S. Spicher, S. Grimme, WIREs Comput. Mol. Sci., 2020, 11,
     e01493. DOI: 10.1002/wcms.1493
   
   for GFN2-xTB:
   * C. Bannwarth, S. Ehlert and S. Grimme., J. Chem. Theory Comput., 2019,
     15, 1652-1671. DOI: 10.1021/acs.jctc.8b01176
   for GFN1-xTB:
   * S. Grimme, C. Bannwarth, P. Shushkov, J. Chem. Theory Comput., 2017,
     13, 1989-2009. DOI: 10.1021/acs.jctc.7b00118
   for GFN0-xTB:
   * P. Pracht, E. Caldeweyher, S. Ehlert, S. Grimme, ChemRxiv, 2019, preprint.
     DOI: 10.26434/chemrxiv.8326202.v1
   for GFN-FF:
   * S. Spicher and S. Grimme, Angew. Chem. Int. Ed., 2020, 59, 15665-15673.
     DOI: 10.1002/anie.202004239
   
   for ALPB and GBSA implicit solvation:
   * S. Ehlert, M. Stahn, S. Spicher, S. Grimme, J. Chem. Theory Comput.,
     2021, 17, 4250-4261. DOI: 10.1021/acs.jctc.1c00471
   
   for ddCOSMO and CPCM-X implicit solvation:
   * M. Stahn, S. Ehlert, S. Grimme, J. Phys. Chem. A,
     2023, XX, XXXX-XXXX. DOI: 10.1021/acs.jpca.3c04382
   
   for DFT-D4:
   * E. Caldeweyher, C. Bannwarth and S. Grimme, J. Chem. Phys., 2017,
     147, 034112. DOI: 10.1063/1.4993215
   * E. Caldeweyher, S. Ehlert, A. Hansen, H. Neugebauer, S. Spicher,
     C. Bannwarth and S. Grimme, J. Chem. Phys., 2019, 150, 154122.
     DOI: 10.1063/1.5090222
   * E. Caldeweyher, J.-M. Mewes, S. Ehlert and S. Grimme, Phys. Chem. Chem. Phys.
     2020, 22, 8499-8512. DOI: 10.1039/D0CP00502A
   
   for sTDA-xTB:
   * S. Grimme and C. Bannwarth, J. Chem. Phys., 2016, 145, 054103.
     DOI: 10.1063/1.4959605
   
   in the mass-spec context:
   * V. Asgeirsson, C. Bauer and S. Grimme, Chem. Sci., 2017, 8, 4879.
     DOI: 10.1039/c7sc00601b
   * J. Koopman and S. Grimme, ACS Omega 2019, 4, 12, 15120-15133.
     DOI: 10.1021/acsomega.9b02011
   
   for metadynamics refer to:
   * S. Grimme, J. Chem. Theory Comput., 2019, 155, 2847-2862
     DOI: 10.1021/acs.jctc.9b00143
   
   for SPH calculations refer to:
   * S. Spicher and S. Grimme, J. Chem. Theory Comput., 2021, 17, 1701-1714
     DOI: 10.1021/acs.jctc.0c01306
   
   for ONIOM refer to:
   * C. Plett, A. Katbashev, S. Ehlert, S. Grimme, M. Bursch,
     Phys. Chem. Chem. Phys., 2023, 25, 17860-17868. DOI: 10.1039/D3CP02178E
   
   for DIPRO refer to:
   * J. Kohn, N. Gildemeister, S. Grimme, D. Fazzi, A. Hansen,
     J. Chem. Phys., 2023, just accepted.
   
   for PTB refer to:
   * S. Grimme, M. Mueller, A. Hansen, J. Chem. Phys., 2023, 158, 124111.
     DOI: 10.1063/5.0137838
   
   with help from (in alphabetical order)
   P. Atkinson, C. Bannwarth, F. Bohle, G. Brandenburg, E. Caldeweyher
   M. Checinski, S. Dohm, S. Ehlert, S. Ehrlich, I. Gerasimov, C. Hölzer
   A. Katbashev, J. Kohn, J. Koopman, C. Lavigne, S. Lehtola, F. März, M. Müller,
   F. Musil, H. Neugebauer, J. Pisarek, C. Plett, P. Pracht, F. Pultar,
   J. Seibert, P. Shushkov, S. Spicher, M. Stahn, M. Steiner, T. Strunk,
   J. Stückrath, T. Rose, and J. Unsleber
   
 * started run on 2025/12/01 at 14:19:47.106     
   ID    Z sym.   atoms
    1    6 C      1-4, 6-17, 20-25
    2   15 P      5
    3    8 O      18, 19
    4    1 H      26-46

           -------------------------------------------------
          |                Calculation Setup                |
           -------------------------------------------------

          program call               : xtb pipeline_data/3_conformer_xyz/acrylates/rdkit/VFHVQBAGLAREND-UHFFFAOYSA-N_conf49.xyz --opt --gfn 2-xTB --iterations 250
          coordinate file            : pipeline_data/3_conformer_xyz/acrylates/rdkit/VFHVQBAGLAREND-UHFFFAOYSA-N_conf49.xyz
          omp threads                :                    24

########################################################################
[WARNING] Please study the warnings concerning your input carefully
-1- readin_getIntValue: could not parse '2-xTB'
########################################################################

           -------------------------------------------------
          |                 G F N 2 - x T B                 |
           -------------------------------------------------

        Reference                      10.1021/acs.jctc.8b01176
      * Hamiltonian:
        H0-scaling (s, p, d)           1.850000    2.230000    2.230000
        zeta-weighting                 0.500000
      * Dispersion:
        s8                             2.700000
        a1                             0.520000
        a2                             5.000000
        s9                             5.000000
      * Repulsion:
        kExp                           1.500000    1.000000
        rExp                           1.000000
      * Coulomb:
        alpha                          2.000000
        third order                    shell-resolved
        anisotropic                    true
        a3                             3.000000
        a5                             4.000000
        cn-shift                       1.200000
        cn-exp                         4.000000
        max-rad                        5.000000

q/qsh data taken from xtbrestart
CAMM data taken from xtbrestart

          ...................................................
          :                      SETUP                      :
          :.................................................:
          :  # basis functions                 127          :
          :  # atomic orbitals                 126          :
          :  # shells                           72          :
          :  # electrons                       126          :
          :  max. iterations                   250          :
          :  Hamiltonian                  GFN2-xTB          :
          :  restarted?                       true          :
          :  GBSA solvation                  false          :
          :  PC potential                    false          :
          :  electronic temp.          300.0000000     K    :
          :  accuracy                    1.0000000          :
          :  -> integral cutoff          0.2500000E+02      :
          :  -> integral neglect         0.1000000E-07      :
          :  -> SCF convergence          0.1000000E-05 Eh   :
          :  -> wf. convergence          0.1000000E-03 e    :
          :  Broyden damping             0.4000000          :
          :  net charge                          0          :
          :  unpaired electrons                  0          :
          ...................................................

 iter      E             dE          RMSdq      gap      omega  full diag
   1    -69.5797060 -0.695797E+02  0.567E+00    2.31       0.0  T
   2    -69.5912756 -0.115695E-01  0.325E+00    2.37       1.0  T
   3    -69.5873459  0.392966E-02  0.530E-01    2.23       1.0  T
   4    -69.5928495 -0.550361E-02  0.229E-01    2.27       1.0  T
   5    -69.5941049 -0.125536E-02  0.796E-02    2.28       1.0  T
   6    -69.5942015 -0.966340E-04  0.309E-02    2.27       1.0  T
   7    -69.5942031 -0.156903E-05  0.188E-02    2.28       1.0  T
   8    -69.5942111 -0.805209E-05  0.464E-03    2.28       3.2  T
   9    -69.5942115 -0.331246E-06  0.266E-03    2.28       5.5  T
  10    -69.5942116 -0.128452E-06  0.107E-03    2.28      13.8  T
  11    -69.5942116 -0.249730E-08  0.553E-04    2.28      26.7  T
  12    -69.5942116 -0.219516E-08  0.199E-04    2.28      74.1  T

   *** convergence criteria satisfied after 12 iterations ***

         #    Occupation            Energy/Eh            Energy/eV
      -------------------------------------------------------------
         1        2.0000           -0.7167021             -19.5025
       ...           ...                  ...                  ...
        57        2.0000           -0.4202867             -11.4366
        58        2.0000           -0.4171641             -11.3516
        59        2.0000           -0.4148097             -11.2875
        60        2.0000           -0.4016007             -10.9281
        61        2.0000           -0.3914325             -10.6514
        62        2.0000           -0.3909131             -10.6373
        63        2.0000           -0.3835887             -10.4380 (HOMO)
        64                         -0.2999140              -8.1611 (LUMO)
        65                         -0.2573697              -7.0034
        66                         -0.2431833              -6.6174
        67                         -0.2374689              -6.4619
        68                         -0.2353815              -6.4051
       ...                                ...                  ...
       126                          1.1530064              31.3749
      -------------------------------------------------------------
                  HL-Gap            0.0836748 Eh            2.2769 eV
             Fermi-level           -0.3417514 Eh           -9.2995 eV

 SCC (total)                   0 d,  0 h,  0 min,  0.067 sec
 SCC setup                      ...        0 min,  0.000 sec (  0.736%)
 Dispersion                     ...        0 min,  0.001 sec (  2.175%)
 classical contributions        ...        0 min,  0.000 sec (  0.203%)
 integral evaluation            ...        0 min,  0.010 sec ( 15.018%)
 iterations                     ...        0 min,  0.049 sec ( 73.187%)
 molecular gradient             ...        0 min,  0.005 sec (  8.167%)
 printout                       ...        0 min,  0.000 sec (  0.449%)

         :::::::::::::::::::::::::::::::::::::::::::::::::::::
         ::                     SUMMARY                     ::
         :::::::::::::::::::::::::::::::::::::::::::::::::::::
         :: total energy             -68.469952762593 Eh    ::
         :: gradient norm              0.163561390288 Eh/a0 ::
         :: HOMO-LUMO gap              2.276907052858 eV    ::
         ::.................................................::
         :: SCC energy               -69.593311954122 Eh    ::
         :: -> isotropic ES            0.066793606590 Eh    ::
         :: -> anisotropic ES          0.004141331551 Eh    ::
         :: -> anisotropic XC          0.040091236190 Eh    ::
         :: -> dispersion             -0.057902707858 Eh    ::
         :: repulsion energy           1.123359191529 Eh    ::
         :: add. restraining           0.000000000000 Eh    ::
         :: total charge              -0.000000000000 e     ::
         :::::::::::::::::::::::::::::::::::::::::::::::::::::

      ----------------------------------------------------------- 
     |                   =====================                   |
     |                        A N C O P T                        |
     |                   =====================                   |
     |               Approximate Normal Coordinate               |
     |                Rational Function Optimizer                |
      ----------------------------------------------------------- 
      ----------------------------------------------------------- 
     |                   =====================                   |
     |                        A N C O P T                        |
     |                   =====================                   |
     |               Approximate Normal Coordinate               |
     |                Rational Function Optimizer                |
      ----------------------------------------------------------- 

          ...................................................
          :                      SETUP                      :
          :.................................................:
          :   optimization level            normal          :
          :   max. optcycles                   200          :
          :   ANC micro-cycles                  20          :
          :   degrees of freedom               132          :
          :.................................................:
          :   RF solver                   davidson          :
          :   write xtbopt.log                true          :
          :   linear?                        false          :
          :   energy convergence         0.5000000E-05 Eh   :
          :   grad. convergence          0.1000000E-02 Eh/α :
          :   maxmium RF displ.          1.0000000          :
          :   Hlow (freq-cutoff)         0.1000000E-01      :
          :   Hmax (freq-cutoff)         5.0000000          :
          :   S6 in model hess.         20.0000000          :
          ...................................................

generating ANC from exact Hessian ...
Using Lindh-Hessian (1995)
 Shifting diagonal of input Hessian by   9.664162119752030E-003
 Lowest  eigenvalues of input Hessian
    0.000000    0.000000    0.000000    0.000000    0.000000    0.000000
    0.010000    0.010105    0.010196    0.010344    0.011156    0.011298
    0.011946    0.012842    0.013831    0.014418    0.015148    0.015787
 Highest eigenvalues
    1.984918    2.001706    2.005532    2.019271    2.069550    2.386965
 

........................................................................
.............................. CYCLE    1 ..............................
........................................................................

 iter      E             dE          RMSdq      gap      omega  full diag
   1    -69.5942116 -0.695942E+02  0.495E-05    2.28       0.0  T
   2    -69.5942116 -0.144667E-10  0.338E-05    2.28     436.4  T
   3    -69.5942116 -0.127898E-10  0.204E-05    2.28     722.9  T
     SCC iter.                  ...        0 min,  0.010 sec
     gradient                   ...        0 min,  0.006 sec
 * total energy  :   -68.4699528 Eh     change       -0.1076813E-08 Eh
   gradient norm :     0.1635610 Eh/α   predicted     0.0000000E+00 (-100.00%)
   displ. norm   :     0.2916372 α      lambda       -0.2651100E-01
   maximum displ.:     0.1161794 α      in ANC's #32, #57, #45, ...

........................................................................
.............................. CYCLE    2 ..............................
........................................................................

 iter      E             dE          RMSdq      gap      omega  full diag
   1    -69.6339048 -0.696339E+02  0.299E-01    2.40       0.0  T
   2    -69.6342266 -0.321816E-03  0.184E-01    2.39       1.0  T
   3    -69.6342212  0.544573E-05  0.900E-02    2.38       1.0  T
   4    -69.6342517 -0.305572E-04  0.507E-02    2.39       1.0  T
   5    -69.6343299 -0.781599E-04  0.112E-02    2.39       1.3  T
   6    -69.6343315 -0.157171E-05  0.390E-03    2.39       3.8  T
   7    -69.6343320 -0.515730E-06  0.134E-03    2.39      11.0  T
   8    -69.6343320 -0.139849E-07  0.713E-04    2.39      20.7  T
   9    -69.6343320  0.269210E-09  0.286E-04    2.39      51.5  T
     SCC iter.                  ...        0 min,  0.027 sec
     gradient                   ...        0 min,  0.008 sec
 * total energy  :   -68.4885992 Eh     change       -0.1864647E-01 Eh
   gradient norm :     0.0788677 Eh/α   predicted    -0.1439317E-01 ( -22.81%)
   displ. norm   :     0.2361811 α      lambda       -0.9038690E-02
   maximum displ.:     0.0777612 α      in ANC's #11, #32, #90, ...

........................................................................
.............................. CYCLE    3 ..............................
........................................................................

 iter      E             dE          RMSdq      gap      omega  full diag
   1    -69.6521724 -0.696522E+02  0.240E-01    2.47       0.0  T
   2    -69.6524167 -0.244306E-03  0.142E-01    2.47       1.0  T
   3    -69.6524429 -0.261751E-04  0.713E-02    2.45       1.0  T
   4    -69.6524475 -0.466813E-05  0.460E-02    2.47       1.0  T
   5    -69.6525034 -0.559114E-04  0.107E-02    2.46       1.4  T
   6    -69.6525048 -0.131142E-05  0.335E-03    2.46       4.4  T
   7    -69.6525051 -0.353917E-06  0.111E-03    2.46      13.2  T
   8    -69.6525051 -0.893226E-08  0.603E-04    2.46      24.4  T
   9    -69.6525051  0.871225E-09  0.257E-04    2.46      57.4  T
     SCC iter.                  ...        0 min,  0.043 sec
     gradient                   ...        0 min,  0.008 sec
 * total energy  :   -68.4936533 Eh     change       -0.5054097E-02 Eh
   gradient norm :     0.0162839 Eh/α   predicted    -0.4773259E-02 (  -5.56%)
   displ. norm   :     0.1900735 α      lambda       -0.9465035E-03
   maximum displ.:     0.1111956 α      in ANC's #11, #5, #7, ...

........................................................................
.............................. CYCLE    4 ..............................
........................................................................

 iter      E             dE          RMSdq      gap      omega  full diag
   1    -69.6488604 -0.696489E+02  0.845E-02    2.44       0.0  T
   2    -69.6488714 -0.110276E-04  0.508E-02    2.45       1.0  T
   3    -69.6488649  0.653205E-05  0.233E-02    2.45       1.0  T
   4    -69.6488739 -0.900575E-05  0.929E-03    2.45       1.6  T
   5    -69.6488765 -0.257662E-05  0.288E-03    2.45       5.1  T
   6    -69.6488767 -0.237542E-06  0.939E-04    2.45      15.7  T
   7    -69.6488767 -0.220864E-07  0.340E-04    2.45      43.4  T
     SCC iter.                  ...        0 min,  0.024 sec
     gradient                   ...        0 min,  0.006 sec
 * total energy  :   -68.4943661 Eh     change       -0.7128024E-03 Eh
   gradient norm :     0.0076468 Eh/α   predicted    -0.4908812E-03 ( -31.13%)
   displ. norm   :     0.3256410 α      lambda       -0.8324191E-03
   maximum displ.:     0.1834291 α      in ANC's #11, #5, #7, ...

........................................................................
.............................. CYCLE    5 ..............................
........................................................................

 iter      E             dE          RMSdq      gap      omega  full diag
   1    -69.6450446 -0.696450E+02  0.113E-01    2.43       0.0  T
   2    -69.6450522 -0.755612E-05  0.674E-02    2.44       1.0  T
   3    -69.6450391  0.130187E-04  0.212E-02    2.43       1.0  T
   4    -69.6450540 -0.148281E-04  0.524E-03    2.44       2.8  T
   5    -69.6450549 -0.923283E-06  0.211E-03    2.44       7.0  T
   6    -69.6450550 -0.133301E-06  0.811E-04    2.44      18.2  T
   7    -69.6450550 -0.151806E-07  0.398E-04    2.44      37.1  T
     SCC iter.                  ...        0 min,  0.023 sec
     gradient                   ...        0 min,  0.006 sec
 * total energy  :   -68.4949294 Eh     change       -0.5633111E-03 Eh
   gradient norm :     0.0091696 Eh/α   predicted    -0.4603483E-03 ( -18.28%)
   displ. norm   :     0.2922742 α      lambda       -0.4243405E-03
   maximum displ.:     0.1382951 α      in ANC's #11, #5, #7, ...

........................................................................
.............................. CYCLE    6 ..............................
........................................................................

 iter      E             dE          RMSdq      gap      omega  full diag
   1    -69.6448522 -0.696449E+02  0.901E-02    2.43       0.0  T
   2    -69.6448537 -0.152576E-05  0.527E-02    2.44       1.0  T
   3    -69.6448520  0.166435E-05  0.742E-03    2.44       2.0  T
   4    -69.6448542 -0.214989E-05  0.183E-03    2.44       8.1  T
   5    -69.6448543 -0.563637E-07  0.841E-04    2.44      17.5  T
   6    -69.6448543 -0.192064E-08  0.477E-04    2.44      30.9  T
     SCC iter.                  ...        0 min,  0.020 sec
     gradient                   ...        0 min,  0.006 sec
 * total energy  :   -68.4952610 Eh     change       -0.3315074E-03 Eh
   gradient norm :     0.0100397 Eh/α   predicted    -0.2302952E-03 ( -30.53%)
   displ. norm   :     0.3971363 α      lambda       -0.5175523E-03
   maximum displ.:     0.1603469 α      in ANC's #3, #5, #7, ...

........................................................................
.............................. CYCLE    7 ..............................
........................................................................

 iter      E             dE          RMSdq      gap      omega  full diag
   1    -69.6469578 -0.696470E+02  0.119E-01    2.44       0.0  T
   2    -69.6469613 -0.347884E-05  0.684E-02    2.44       1.0  T
   3    -69.6469566  0.469024E-05  0.138E-02    2.44       1.1  T
   4    -69.6469622 -0.566058E-05  0.433E-03    2.44       3.4  T
   5    -69.6469626 -0.385362E-06  0.161E-03    2.44       9.2  T
   6    -69.6469627 -0.587399E-07  0.789E-04    2.44      18.7  T
   7    -69.6469627 -0.141518E-07  0.291E-04    2.44      50.7  T
     SCC iter.                  ...        0 min,  0.025 sec
     gradient                   ...        0 min,  0.008 sec
 * total energy  :   -68.4956587 Eh     change       -0.3977835E-03 Eh
   gradient norm :     0.0081579 Eh/α   predicted    -0.2995899E-03 ( -24.69%)
   displ. norm   :     0.4078963 α      lambda       -0.4448298E-03
   maximum displ.:     0.1878437 α      in ANC's #3, #6, #5, ...

........................................................................
.............................. CYCLE    8 ..............................
........................................................................

 iter      E             dE          RMSdq      gap      omega  full diag
   1    -69.6498090 -0.696498E+02  0.118E-01    2.44       0.0  T
   2    -69.6498126 -0.365021E-05  0.680E-02    2.44       1.0  T
   3    -69.6498083  0.433858E-05  0.137E-02    2.44       1.1  T
   4    -69.6498135 -0.523610E-05  0.470E-03    2.44       3.1  T
   5    -69.6498140 -0.449512E-06  0.168E-03    2.44       8.8  T
   6    -69.6498141 -0.697843E-07  0.815E-04    2.44      18.1  T
   7    -69.6498141 -0.134725E-07  0.325E-04    2.44      45.4  T
     SCC iter.                  ...        0 min,  0.023 sec
     gradient                   ...        0 min,  0.005 sec
 * total energy  :   -68.4959985 Eh     change       -0.3397470E-03 Eh
   gradient norm :     0.0070583 Eh/α   predicted    -0.2594209E-03 ( -23.64%)
   displ. norm   :     0.3879709 α      lambda       -0.3491752E-03
   maximum displ.:     0.2013993 α      in ANC's #3, #6, #8, ...

........................................................................
.............................. CYCLE    9 ..............................
........................................................................

 iter      E             dE          RMSdq      gap      omega  full diag
   1    -69.6518241 -0.696518E+02  0.108E-01    2.44       0.0  T
   2    -69.6518262 -0.202729E-05  0.622E-02    2.44       1.0  T
   3    -69.6518241  0.210096E-05  0.891E-03    2.44       1.7  T
   4    -69.6518268 -0.272316E-05  0.312E-03    2.44       4.7  T
   5    -69.6518270 -0.174500E-06  0.114E-03    2.44      12.9  T
   6    -69.6518270 -0.107995E-07  0.593E-04    2.44      24.8  T
   7    -69.6518270 -0.398451E-08  0.244E-04    2.44      60.5  T
     SCC iter.                  ...        0 min,  0.024 sec
     gradient                   ...        0 min,  0.007 sec
 * total energy  :   -68.4962664 Eh     change       -0.2679323E-03 Eh
   gradient norm :     0.0065081 Eh/α   predicted    -0.2009123E-03 ( -25.01%)
   displ. norm   :     0.3493970 α      lambda       -0.2701067E-03
   maximum displ.:     0.2030362 α      in ANC's #3, #6, #8, ...

........................................................................
.............................. CYCLE   10 ..............................
........................................................................

 iter      E             dE          RMSdq      gap      omega  full diag
   1    -69.6524891 -0.696525E+02  0.916E-02    2.43       0.0  T
   2    -69.6524904 -0.122769E-05  0.535E-02    2.44       1.0  T
   3    -69.6524869  0.349104E-05  0.926E-03    2.44       1.6  T
   4    -69.6524910 -0.412956E-05  0.203E-03    2.44       7.2  T
   5    -69.6524910 -0.522054E-07  0.104E-03    2.44      14.1  T
   6    -69.6524911 -0.182684E-07  0.522E-04    2.44      28.2  T
   7    -69.6524911 -0.475946E-08  0.217E-04    2.44      67.9  T
     SCC iter.                  ...        0 min,  0.039 sec
     gradient                   ...        0 min,  0.007 sec
 * total energy  :   -68.4964715 Eh     change       -0.2050336E-03 Eh
   gradient norm :     0.0049788 Eh/α   predicted    -0.1515440E-03 ( -26.09%)
   displ. norm   :     0.2773823 α      lambda       -0.1803079E-03
   maximum displ.:     0.1788467 α      in ANC's #3, #6, #1, ...

........................................................................
.............................. CYCLE   11 ..............................
........................................................................

 iter      E             dE          RMSdq      gap      omega  full diag
   1    -69.6521205 -0.696521E+02  0.672E-02    2.44       0.0  T
   2    -69.6521215 -0.990394E-06  0.398E-02    2.44       1.0  T
   3    -69.6521169  0.459798E-05  0.105E-02    2.44       1.4  T
   4    -69.6521221 -0.517997E-05  0.201E-03    2.44       7.3  T
   5    -69.6521222 -0.134732E-06  0.825E-04    2.44      17.9  T
   6    -69.6521222 -0.104169E-07  0.384E-04    2.44      38.4  T
     SCC iter.                  ...        0 min,  0.020 sec
     gradient                   ...        0 min,  0.008 sec
 * total energy  :   -68.4966085 Eh     change       -0.1370465E-03 Eh
   gradient norm :     0.0038466 Eh/α   predicted    -0.9709092E-04 ( -29.15%)
   displ. norm   :     0.2107819 α      lambda       -0.1194298E-03
   maximum displ.:     0.1464103 α      in ANC's #3, #6, #1, ...

........................................................................
.............................. CYCLE   12 ..............................
........................................................................

 iter      E             dE          RMSdq      gap      omega  full diag
   1    -69.6514326 -0.696514E+02  0.472E-02    2.44       0.0  T
   2    -69.6514332 -0.598053E-06  0.283E-02    2.44       1.0  T
   3    -69.6514304  0.281201E-05  0.824E-03    2.44       1.8  T
   4    -69.6514336 -0.315544E-05  0.158E-03    2.44       9.4  T
   5    -69.6514336 -0.900664E-07  0.587E-04    2.44      25.1  T
   6    -69.6514337 -0.870943E-08  0.250E-04    2.44      58.9  T
     SCC iter.                  ...        0 min,  0.021 sec
     gradient                   ...        0 min,  0.008 sec
 * total energy  :   -68.4967048 Eh     change       -0.9627582E-04 Eh
   gradient norm :     0.0040189 Eh/α   predicted    -0.6237175E-04 ( -35.22%)
   displ. norm   :     0.1976589 α      lambda       -0.1114337E-03
   maximum displ.:     0.1409345 α      in ANC's #3, #6, #1, ...

........................................................................
.............................. CYCLE   13 ..............................
........................................................................

 iter      E             dE          RMSdq      gap      omega  full diag
   1    -69.6509222 -0.696509E+02  0.446E-02    2.44       0.0  T
   2    -69.6509226 -0.422142E-06  0.263E-02    2.44       1.0  T
   3    -69.6509213  0.129435E-05  0.551E-03    2.44       2.7  T
   4    -69.6509227 -0.144487E-05  0.129E-03    2.44      11.5  T
   5    -69.6509228 -0.630270E-07  0.449E-04    2.44      32.8  T
   6    -69.6509228 -0.425315E-08  0.223E-04    2.44      66.2  T
     SCC iter.                  ...        0 min,  0.021 sec
     gradient                   ...        0 min,  0.008 sec
 * total energy  :   -68.4967980 Eh     change       -0.9323525E-04 Eh
   gradient norm :     0.0042661 Eh/α   predicted    -0.5789626E-04 ( -37.90%)
   displ. norm   :     0.2363853 α      lambda       -0.1263226E-03
   maximum displ.:     0.1689292 α      in ANC's #3, #6, #1, ...

........................................................................
.............................. CYCLE   14 ..............................
........................................................................

 iter      E             dE          RMSdq      gap      omega  full diag
   1    -69.6501417 -0.696501E+02  0.570E-02    2.45       0.0  T
   2    -69.6501422 -0.525785E-06  0.332E-02    2.45       1.0  T
   3    -69.6501417  0.542276E-06  0.412E-03    2.44       3.6  T
   4    -69.6501422 -0.589134E-06  0.168E-03    2.45       8.8  T
   5    -69.6501424 -0.124543E-06  0.519E-04    2.45      28.4  T
   6    -69.6501424 -0.294644E-08  0.246E-04    2.45      59.8  T
     SCC iter.                  ...        0 min,  0.021 sec
     gradient                   ...        0 min,  0.006 sec
 * total energy  :   -68.4969021 Eh     change       -0.1041245E-03 Eh
   gradient norm :     0.0039207 Eh/α   predicted    -0.6669501E-04 ( -35.95%)
   displ. norm   :     0.2798464 α      lambda       -0.1304831E-03
   maximum displ.:     0.2009152 α      in ANC's #3, #6, #1, ...

........................................................................
.............................. CYCLE   15 ..............................
........................................................................

 iter      E             dE          RMSdq      gap      omega  full diag
   1    -69.6506556 -0.696507E+02  0.716E-02    2.46       0.0  T
   2    -69.6506570 -0.139059E-05  0.415E-02    2.45       1.0  T
   3    -69.6506567  0.302542E-06  0.501E-03    2.45       2.9  T
   4    -69.6506570 -0.377403E-06  0.212E-03    2.45       7.0  T
   5    -69.6506572 -0.140377E-06  0.809E-04    2.45      18.2  T
   6    -69.6506572 -0.520281E-08  0.311E-04    2.45      47.5  T
     SCC iter.                  ...        0 min,  0.024 sec
     gradient                   ...        0 min,  0.006 sec
 * total energy  :   -68.4970044 Eh     change       -0.1022722E-03 Eh
   gradient norm :     0.0031308 Eh/α   predicted    -0.7035322E-04 ( -31.21%)
   displ. norm   :     0.3083204 α      lambda       -0.1177742E-03
   maximum displ.:     0.2219851 α      in ANC's #3, #6, #1, ...

........................................................................
.............................. CYCLE   16 ..............................
........................................................................

 iter      E             dE          RMSdq      gap      omega  full diag
   1    -69.6491014 -0.696491E+02  0.785E-02    2.44       0.0  T
   2    -69.6491026 -0.118186E-05  0.456E-02    2.45       1.0  T
   3    -69.6491020  0.597626E-06  0.525E-03    2.44       2.8  T
   4    -69.6491028 -0.751209E-06  0.177E-03    2.45       8.3  T
   5    -69.6491029 -0.119989E-06  0.620E-04    2.44      23.8  T
   6    -69.6491029 -0.469424E-08  0.273E-04    2.45      53.9  T
     SCC iter.                  ...        0 min,  0.025 sec
     gradient                   ...        0 min,  0.006 sec
 * total energy  :   -68.4970861 Eh     change       -0.8165831E-04 Eh
   gradient norm :     0.0052449 Eh/α   predicted    -0.6449256E-04 ( -21.02%)
   displ. norm   :     0.2914745 α      lambda       -0.1087609E-03
   maximum displ.:     0.2158937 α      in ANC's #3, #6, #1, ...

........................................................................
.............................. CYCLE   17 ..............................
........................................................................

 iter      E             dE          RMSdq      gap      omega  full diag
   1    -69.6516170 -0.696516E+02  0.755E-02    2.46       0.0  T
   2    -69.6516189 -0.182878E-05  0.446E-02    2.45       1.0  T
   3    -69.6516174  0.149445E-05  0.779E-03    2.46       1.9  T
   4    -69.6516191 -0.172825E-05  0.202E-03    2.45       7.3  T
   5    -69.6516192 -0.134855E-06  0.950E-04    2.45      15.5  T
   6    -69.6516193 -0.995540E-08  0.401E-04    2.45      36.8  T
     SCC iter.                  ...        0 min,  0.025 sec
     gradient                   ...        0 min,  0.006 sec
 * total energy  :   -68.4971603 Eh     change       -0.7426263E-04 Eh
   gradient norm :     0.0036762 Eh/α   predicted    -0.5900494E-04 ( -20.55%)
   displ. norm   :     0.2882578 α      lambda       -0.7611421E-04
   maximum displ.:     0.2123227 α      in ANC's #3, #6, #1, ...

........................................................................
.............................. CYCLE   18 ..............................
........................................................................

 iter      E             dE          RMSdq      gap      omega  full diag
   1    -69.6515429 -0.696515E+02  0.710E-02    2.46       0.0  T
   2    -69.6515436 -0.702189E-06  0.419E-02    2.46       1.0  T
   3    -69.6515430  0.541822E-06  0.463E-03    2.46       3.2  T
   4    -69.6515438 -0.729655E-06  0.115E-03    2.46      12.8  T
   5    -69.6515438 -0.294570E-07  0.761E-04    2.46      19.4  T
   6    -69.6515438 -0.388775E-08  0.327E-04    2.46      45.1  T
     SCC iter.                  ...        0 min,  0.025 sec
     gradient                   ...        0 min,  0.006 sec
 * total energy  :   -68.4972141 Eh     change       -0.5372780E-04 Eh
   gradient norm :     0.0039100 Eh/α   predicted    -0.4121997E-04 ( -23.28%)
   displ. norm   :     0.2835490 α      lambda       -0.8499223E-04
   maximum displ.:     0.2112619 α      in ANC's #3, #1, #6, ...

........................................................................
.............................. CYCLE   19 ..............................
........................................................................

 iter      E             dE          RMSdq      gap      omega  full diag
   1    -69.6530936 -0.696531E+02  0.697E-02    2.44       0.0  T
   2    -69.6530948 -0.124678E-05  0.407E-02    2.45       1.0  T
   3    -69.6530932  0.161871E-05  0.691E-03    2.44       2.1  T
   4    -69.6530951 -0.188139E-05  0.184E-03    2.45       8.0  T
   5    -69.6530952 -0.111124E-06  0.858E-04    2.45      17.2  T
   6    -69.6530952 -0.929343E-08  0.404E-04    2.45      36.5  T
     SCC iter.                  ...        0 min,  0.025 sec
     gradient                   ...        0 min,  0.006 sec
 * total energy  :   -68.4972614 Eh     change       -0.4738240E-04 Eh
   gradient norm :     0.0037443 Eh/α   predicted    -0.4591335E-04 (  -3.10%)
   displ. norm   :     0.1778769 α      lambda       -0.3498086E-04
   maximum displ.:     0.1338207 α      in ANC's #3, #1, #6, ...

........................................................................
.............................. CYCLE   20 ..............................
........................................................................

 iter      E             dE          RMSdq      gap      omega  full diag
   1    -69.6530420 -0.696530E+02  0.432E-02    2.45       0.0  T
   2    -69.6530424 -0.433227E-06  0.261E-02    2.45       1.0  T
   3    -69.6530416  0.795200E-06  0.497E-03    2.45       3.0  T
   4    -69.6530425 -0.914475E-06  0.109E-03    2.45      13.5  T
   5    -69.6530426 -0.266682E-07  0.620E-04    2.45      23.8  T
   6    -69.6530426 -0.534570E-08  0.311E-04    2.45      47.4  T
     SCC iter.                  ...        0 min,  0.018 sec
     gradient                   ...        0 min,  0.006 sec
 * total energy  :   -68.4972837 Eh     change       -0.2229028E-04 Eh
   gradient norm :     0.0018131 Eh/α   predicted    -0.1804716E-04 ( -19.04%)
   displ. norm   :     0.0993343 α      lambda       -0.1671776E-04
   maximum displ.:     0.0703559 α      in ANC's #3, #1, #4, ...
 * RMSD in coord.:     0.6430314 α      energy gain  -0.2733096E-01 Eh

generating ANC from exact Hessian ...
Using Lindh-Hessian (1995)
 Shifting diagonal of input Hessian by   9.701823663438287E-003
 Lowest  eigenvalues of input Hessian
    0.000000    0.000000    0.000000    0.000000    0.000000    0.000000
    0.010000    0.010106    0.010200    0.010298    0.011117    0.011253
    0.011552    0.012442    0.013435    0.014626    0.014820    0.015212
 Highest eigenvalues
    1.995524    1.997925    2.003590    2.011403    2.170903    2.607604
 

........................................................................
.............................. CYCLE   21 ..............................
........................................................................

 iter      E             dE          RMSdq      gap      omega  full diag
   1    -69.6535917 -0.696536E+02  0.265E-02    2.45       0.0  T
   2    -69.6535918 -0.139852E-06  0.160E-02    2.45       1.0  T
   3    -69.6535914  0.469324E-06  0.334E-03    2.45       4.4  T
   4    -69.6535919 -0.515636E-06  0.843E-04    2.45      17.5  T
   5    -69.6535919 -0.250484E-07  0.347E-04    2.45      42.5  T
     SCC iter.                  ...        0 min,  0.018 sec
     gradient                   ...        0 min,  0.007 sec
 * total energy  :   -68.4972996 Eh     change       -0.1586699E-04 Eh
   gradient norm :     0.0017335 Eh/α   predicted     0.0000000E+00 (-100.00%)
   displ. norm   :     0.0286847 α      lambda       -0.5835782E-05
   maximum displ.:     0.0136934 α      in ANC's #6, #11, #4, ...

........................................................................
.............................. CYCLE   22 ..............................
........................................................................

 iter      E             dE          RMSdq      gap      omega  full diag
   1    -69.6528658 -0.696529E+02  0.130E-02    2.45       0.0  T
   2    -69.6528659 -0.679813E-07  0.757E-03    2.45       1.9  T
   3    -69.6528658  0.100738E-06  0.182E-03    2.45       8.1  T
   4    -69.6528659 -0.114906E-06  0.530E-04    2.45      27.8  T
   5    -69.6528659 -0.801720E-08  0.185E-04    2.45      79.6  T
     SCC iter.                  ...        0 min,  0.015 sec
     gradient                   ...        0 min,  0.011 sec
 * total energy  :   -68.4973083 Eh     change       -0.8726821E-05 Eh
   gradient norm :     0.0006392 Eh/α   predicted    -0.4150391E-05 ( -52.44%)
   displ. norm   :     0.0606740 α      lambda       -0.8633630E-05
   maximum displ.:     0.0308196 α      in ANC's #6, #4, #2, ...

........................................................................
.............................. CYCLE   23 ..............................
........................................................................

 iter      E             dE          RMSdq      gap      omega  full diag
   1    -69.6525172 -0.696525E+02  0.216E-02    2.45       0.0  T
   2    -69.6525173 -0.105235E-06  0.124E-02    2.45       1.2  T
   3    -69.6525172  0.955961E-07  0.196E-03    2.45       7.5  T
   4    -69.6525173 -0.106430E-06  0.723E-04    2.45      20.4  T
   5    -69.6525173 -0.186536E-07  0.233E-04    2.45      63.2  T
     SCC iter.                  ...        0 min,  0.015 sec
     gradient                   ...        0 min,  0.006 sec
 * total energy  :   -68.4973177 Eh     change       -0.9409316E-05 Eh
   gradient norm :     0.0010217 Eh/α   predicted    -0.4325908E-05 ( -54.03%)
   displ. norm   :     0.0805926 α      lambda       -0.7654772E-05
   maximum displ.:     0.0392344 α      in ANC's #6, #4, #2, ...

........................................................................
.............................. CYCLE   24 ..............................
........................................................................

 iter      E             dE          RMSdq      gap      omega  full diag
   1    -69.6525074 -0.696525E+02  0.261E-02    2.45       0.0  T
   2    -69.6525075 -0.715894E-07  0.153E-02    2.45       1.0  T
   3    -69.6525074  0.113857E-06  0.168E-03    2.45       8.8  T
   4    -69.6525075 -0.139620E-06  0.433E-04    2.45      34.0  T
   5    -69.6525075 -0.552316E-08  0.174E-04    2.45      84.5  T
     SCC iter.                  ...        0 min,  0.015 sec
     gradient                   ...        0 min,  0.006 sec
 * total energy  :   -68.4973267 Eh     change       -0.8955521E-05 Eh
   gradient norm :     0.0013202 Eh/α   predicted    -0.3840923E-05 ( -57.11%)
   displ. norm   :     0.1188097 α      lambda       -0.9507863E-05
   maximum displ.:     0.0555376 α      in ANC's #6, #5, #4, ...

........................................................................
.............................. CYCLE   25 ..............................
........................................................................

 iter      E             dE          RMSdq      gap      omega  full diag
   1    -69.6525136 -0.696525E+02  0.356E-02    2.45       0.0  T
   2    -69.6525137 -0.804703E-07  0.209E-02    2.45       1.0  T
   3    -69.6525136  0.127301E-06  0.180E-03    2.45       8.2  T
   4    -69.6525138 -0.172344E-06  0.364E-04    2.45      40.5  T
   5    -69.6525138 -0.127855E-09  0.184E-04    2.45      80.1  T
     SCC iter.                  ...        0 min,  0.015 sec
     gradient                   ...        0 min,  0.007 sec
 * total energy  :   -68.4973376 Eh     change       -0.1089224E-04 Eh
   gradient norm :     0.0011745 Eh/α   predicted    -0.4783881E-05 ( -56.08%)
   displ. norm   :     0.1357273 α      lambda       -0.9113617E-05
   maximum displ.:     0.0643313 α      in ANC's #5, #6, #4, ...

........................................................................
.............................. CYCLE   26 ..............................
........................................................................

 iter      E             dE          RMSdq      gap      omega  full diag
   1    -69.6527010 -0.696527E+02  0.384E-02    2.45       0.0  T
   2    -69.6527011 -0.983204E-07  0.226E-02    2.45       1.0  T
   3    -69.6527010  0.110243E-06  0.184E-03    2.45       8.0  T
   4    -69.6527012 -0.158544E-06  0.411E-04    2.45      35.9  T
   5    -69.6527012 -0.110236E-08  0.191E-04    2.45      77.0  T
     SCC iter.                  ...        0 min,  0.015 sec
     gradient                   ...        0 min,  0.007 sec
 * total energy  :   -68.4973474 Eh     change       -0.9839988E-05 Eh
   gradient norm :     0.0006711 Eh/α   predicted    -0.4594543E-05 ( -53.31%)
   displ. norm   :     0.0985564 α      lambda       -0.5707239E-05
   maximum displ.:     0.0533394 α      in ANC's #5, #4, #6, ...

........................................................................
.............................. CYCLE   27 ..............................
........................................................................

 iter      E             dE          RMSdq      gap      omega  full diag
   1    -69.6529198 -0.696529E+02  0.264E-02    2.45       0.0  T
   2    -69.6529199 -0.631412E-07  0.155E-02    2.45       1.0  T
   3    -69.6529198  0.503447E-07  0.131E-03    2.45      11.3  T
   4    -69.6529199 -0.725756E-07  0.368E-04    2.45      40.1  T
   5    -69.6529199 -0.297894E-08  0.167E-04    2.45      88.3  T
     SCC iter.                  ...        0 min,  0.015 sec
     gradient                   ...        0 min,  0.006 sec
 * total energy  :   -68.4973536 Eh     change       -0.6193820E-05 Eh
   gradient norm :     0.0004012 Eh/α   predicted    -0.2866319E-05 ( -53.72%)
   displ. norm   :     0.0625100 α      lambda       -0.3702985E-05
   maximum displ.:     0.0404308 α      in ANC's #5, #4, #2, ...

........................................................................
.............................. CYCLE   28 ..............................
........................................................................

 iter      E             dE          RMSdq      gap      omega  full diag
   1    -69.6530702 -0.696531E+02  0.172E-02    2.45       0.0  T
   2    -69.6530703 -0.314339E-07  0.101E-02    2.45       1.5  T
   3    -69.6530702  0.568175E-07  0.129E-03    2.45      11.5  T
   4    -69.6530703 -0.720342E-07  0.266E-04    2.45      55.5  T
   5    -69.6530703 -0.542187E-09  0.137E-04    2.45     107.3  T
     SCC iter.                  ...        0 min,  0.017 sec
     gradient                   ...        0 min,  0.006 sec
 * total energy  :   -68.4973579 Eh     change       -0.4265751E-05 Eh
   gradient norm :     0.0004894 Eh/α   predicted    -0.1855119E-05 ( -56.51%)
   displ. norm   :     0.0439421 α      lambda       -0.2927354E-05
   maximum displ.:     0.0317259 α      in ANC's #5, #4, #2, ...

   *** GEOMETRY OPTIMIZATION CONVERGED AFTER 28 ITERATIONS ***

------------------------------------------------------------------------
 total energy gain   :        -0.0274051 Eh      -17.1970 kcal/mol
 total RMSD          :         0.6583982 a0        0.3484 Å
 total power (kW/mol):        -2.5697185 (step)  -75.3554 (real)
------------------------------------------------------------------------

 ANCopt (total)                0 d,  0 h,  0 min,  0.955 sec
 optimizer setup                ...        0 min,  0.000 sec (  0.014%)
 model hessian                  ...        0 min,  0.037 sec (  3.915%)
 ANC generation                 ...        0 min,  0.004 sec (  0.468%)
 coordinate transformation      ...        0 min,  0.001 sec (  0.067%)
 single point calculation       ...        0 min,  0.870 sec ( 91.135%)
 optimization log               ...        0 min,  0.023 sec (  2.394%)
 hessian update                 ...        0 min,  0.005 sec (  0.530%)
 rational function              ...        0 min,  0.006 sec (  0.666%)

================
 final structure:
================
46
 xtb: 6.7.1 (edcfbbe)
C            1.73601338412330        2.38284783204601        0.19968287579521
C            2.41492688863692        1.05178920016514        0.10746696437230
C            1.74345990368529       -0.09036416976002        0.54687687362436
C            0.35155468193781        0.04053027450060        1.01162443138840
P           -0.81240443632639        0.18486906125346       -0.46097014423056
C           -1.87619204002558        1.62421727542480       -0.12137522998413
C           -2.11286578931982        2.47687822240052       -1.19120451111597
C           -2.91433734652485        3.59088482869678       -1.02086456236901
C           -3.47460576739526        3.85220463887963        0.21898842723436
C           -3.22970494148908        3.00415345703776        1.28782686163360
C           -2.43144044607532        1.88658747431620        1.12363119348375
C           -1.89236361454916       -1.26973773507610       -0.24311084943035
C           -2.20106541293060       -1.97135215823400       -1.40088680078658
C           -3.01487310262810       -3.08783042505281       -1.33641911290000
C           -3.51474171789599       -3.50566409809362       -0.11397532478208
C           -3.19849559718554       -2.80958600568130        1.04233483251055
C           -2.38963677648823       -1.68920387059878        0.98375411844762
O           -0.14238002422179        0.21889043980472       -1.76572946556924
O           -0.04558397112167        0.00769857077021        2.14660448814732
C            2.34024005534559       -1.34895144793591        0.47791245036151
C            1.57523421075150       -2.56317565563218        0.91041458344973
C            3.62969519775168       -1.44372870652252       -0.02181659621284
C            4.32404359629416       -0.32202388923578       -0.45150579338738
C            5.72274854906300       -0.43446705367526       -0.97661712792488
C            3.70406626133890        0.91914217500046       -0.37853831214465
H            1.51492868945152        2.63112333928481        1.23831455918438
H            0.79072613469880        2.35580255132298       -0.34654123489993
H            2.35834568347346        3.16803293261964       -0.22221718626586
H           -1.65640678398218        2.25279897939436       -2.14508595398216
H           -3.10126902850037        4.25468493996522       -1.85213731679639
H           -4.10092197807568        4.72169085179886        0.35493446600701
H           -3.66273510163027        3.21623684466243        2.25442321590125
H           -2.22724042857610        1.23426538579221        1.95814665902651
H           -1.78665003351386       -1.63228432194813       -2.33942216039118
H           -3.25702792841948       -3.63251036732211       -2.23721295950996
H           -4.14777200066856       -4.37910299985318       -0.05986036622278
H           -3.58278367478410       -3.14330692898280        1.99506640176133
H           -2.12977680274982       -1.15974206245900        1.88740784823044
H            2.18459673871972       -3.45857298016716        0.81790950860287
H            0.68285474085990       -2.68334371249375        0.29283399872384
H            1.25196889594619       -2.46402848553451        1.94600682243901
H            4.09788687811414       -2.41590997953682       -0.08344801112937
H            5.83522299530423        0.14327194669340       -1.89185759386623
H            6.42911301612671       -0.04152472047285       -0.24508434781945
H            5.98118105210126       -1.47033667357589       -1.18016206430948
H            4.23446519135645        1.79814722601581       -0.71612355430753
 
 Bond Distances (Angstroems)
 ---------------------------
C1-C2=1.4970         C1-H26=1.0905        C1-H27=1.0921        C1-H28=1.0871        C2-C1=1.4970         C2-C3=1.3959         
C2-C25=1.3841        C3-C2=1.3959         C3-C4=1.4733         C3-C20=1.3946        C4-C3=1.4733         C4-P5=1.8826         
C4-O19=1.2029        P5-C4=1.8826         P5-C6=1.8217         P5-C12=1.8247        P5-O18=1.4671        C6-P5=1.8217         
C6-C7=1.3884         C6-C11=1.3882        C7-C6=1.3884         C7-C8=1.3829         C7-H29=1.0810        C8-C7=1.3829         
C8-C9=1.3854         C8-H30=1.0801        C9-C8=1.3854         C9-C10=1.3862        C9-H31=1.0802        C10-C9=1.3862        
C10-C11=1.3832       C10-H32=1.0802       C11-C6=1.3882        C11-C10=1.3832       C11-H33=1.0787       C12-P5=1.8247        
C12-C13=1.3885       C12-C17=1.3887       C13-C12=1.3885       C13-C14=1.3831       C13-H34=1.0805       C14-C13=1.3831       
C14-C15=1.3852       C14-H35=1.0802       C15-C14=1.3852       C15-C16=1.3862       C15-H36=1.0801       C16-C15=1.3862       
C16-C17=1.3831       C16-H37=1.0802       C17-C12=1.3887       C17-C16=1.3831       C17-H38=1.0791       O18-P5=1.4671        
O19-C4=1.2029        C20-C3=1.3946        C20-C21=1.4989       C20-C22=1.3861       C21-C20=1.4989       C21-H39=1.0870       
C21-H40=1.0919       C21-H41=1.0894       C22-C20=1.3861       C22-C23=1.3874       C22-H42=1.0808       C23-C22=1.3874       
C23-C24=1.4983       C23-C25=1.3893       C24-C23=1.4983       C24-H43=1.0882       C24-H44=1.0902       C24-H45=1.0869       
C25-C2=1.3841        C25-C23=1.3893       C25-H46=1.0807       H26-C1=1.0905        H27-C1=1.0921        H28-C1=1.0871        
H29-C7=1.0810        H30-C8=1.0801        H31-C9=1.0802        H32-C10=1.0802       H33-C11=1.0787       H34-C13=1.0805       
H35-C14=1.0802       H36-C15=1.0801       H37-C16=1.0802       H38-C17=1.0791       H39-C21=1.0870       H40-C21=1.0919       
H41-C21=1.0894       H42-C22=1.0808       H43-C24=1.0882       H44-C24=1.0902       H45-C24=1.0869       H46-C25=1.0807       
 C  H  Rav=1.0840 sigma=0.0047  Rmin=1.0787  Rmax=1.0921    21
 C  C  Rav=1.4061 sigma=0.0408  Rmin=1.3829  Rmax=1.4989    22
 O  C  Rav=1.2029 sigma=0.0000  Rmin=1.2029  Rmax=1.2029     1
 P  C  Rav=1.8430 sigma=0.0280  Rmin=1.8217  Rmax=1.8826     3
 P  O  Rav=1.4671 sigma=0.0000  Rmin=1.4671  Rmax=1.4671     1
 
 selected bond angles (degree)
 --------------------
H26-C1-C2=110.67               H27-C1-C2=109.86               H27-C1-H26=107.85              H28-C1-C2=111.02               
H28-C1-H26=108.74              H28-C1-H27=108.62              C3-C2-C1=119.34                C25-C2-C1=121.95               
C25-C2-C3=118.70               C4-C3-C2=118.76                C20-C3-C2=121.13               C20-C3-C4=120.00               
P5-C4-C3=110.13                O19-C4-C3=127.38               O19-C4-P5=122.41               C6-P5-C4=106.01                
C12-P5-C4=102.21               C12-P5-C6=105.19               O18-P5-C4=114.52               O18-P5-C6=114.47               
O18-P5-C12=113.26              C7-C6-P5=116.18                C11-C6-P5=123.37               C11-C6-C7=120.45               
C8-C7-C6=119.91                H29-C7-C6=118.73               H29-C7-C8=121.36               C9-C8-C7=119.77                
H30-C8-C7=120.04               H30-C8-C9=120.19               C10-C9-C8=120.21               H31-C9-C8=119.93               
H31-C9-C10=119.86              C11-C10-C9=120.31              H32-C10-C9=119.94              H32-C10-C11=119.75             
 
 selected dihedral angles (degree)
 ---------------------------------
C3-C2-C1-H26= 61.91           C3-C2-C1-H27=302.92           C3-C2-C1-H28=182.76           C25-C2-C1-H26=243.18          
C25-C2-C1-H27=124.19          C25-C2-C1-H28=  4.03          C4-C3-C2-C1=  3.75            C4-C3-C2-C25=182.53           
C20-C3-C2-C1=179.98           C20-C3-C2-C25=358.76          P5-C4-C3-C2= 77.57            P5-C4-C3-C20=261.30           
O19-C4-C3-C2=254.51           O19-C4-C3-C20= 78.24          C6-P5-C4-C3=229.53            C6-P5-C4-O19= 52.41           
C12-P5-C4-C3=119.60           C12-P5-C4-O19=302.48          O18-P5-C4-C3=356.72           O18-P5-C4-O19=179.61          
C7-C6-P5-C4=137.26            C7-C6-P5-C12=245.07           C7-C6-P5-O18= 10.04           C11-C6-P5-C4=317.46           
C11-C6-P5-C12= 65.26          C11-C6-P5-O18=190.23          C8-C7-C6-P5=179.74            C8-C7-C6-C11=359.55           
H29-C7-C6-P5=359.42           H29-C7-C6-C11=179.23          C9-C8-C7-C6=  0.17            C9-C8-C7-H29=180.50           
H30-C8-C7-C6=180.11           H30-C8-C7-H29=  0.43          C10-C9-C8-C7=  0.25           C10-C9-C8-H30=180.32          
H31-C9-C8-C7=179.99           H31-C9-C8-H30=  0.05          C11-C10-C9-C8=359.60          C11-C10-C9-H31=179.86         
H32-C10-C9-C8=179.54          H32-C10-C9-H31=359.80         
           -------------------------------------------------
          |                Final Singlepoint                |
           -------------------------------------------------

          ...................................................
          :                      SETUP                      :
          :.................................................:
          :  # basis functions                 127          :
          :  # atomic orbitals                 126          :
          :  # shells                           72          :
          :  # electrons                       126          :
          :  max. iterations                   250          :
          :  Hamiltonian                  GFN2-xTB          :
          :  restarted?                      false          :
          :  GBSA solvation                  false          :
          :  PC potential                    false          :
          :  electronic temp.          300.0000000     K    :
          :  accuracy                    1.0000000          :
          :  -> integral cutoff          0.2500000E+02      :
          :  -> integral neglect         0.1000000E-07      :
          :  -> SCF convergence          0.1000000E-05 Eh   :
          :  -> wf. convergence          0.1000000E-03 e    :
          :  Broyden damping             0.4000000          :
          :  net charge                          0          :
          :  unpaired electrons                  0          :
          ...................................................

 iter      E             dE          RMSdq      gap      omega  full diag
   1    -69.6530703 -0.696531E+02  0.651E-05    2.45       0.0  T
   2    -69.6530703 -0.367066E-10  0.427E-05    2.45     345.4  T
   3    -69.6530703 -0.452900E-10  0.259E-05    2.45     569.5  T

   *** convergence criteria satisfied after 3 iterations ***

         #    Occupation            Energy/Eh            Energy/eV
      -------------------------------------------------------------
         1        2.0000           -0.7262272             -19.7616
       ...           ...                  ...                  ...
        57        2.0000           -0.4168503             -11.3431
        58        2.0000           -0.4163850             -11.3304
        59        2.0000           -0.4154859             -11.3059
        60        2.0000           -0.4039128             -10.9910
        61        2.0000           -0.3930516             -10.6955
        62        2.0000           -0.3926575             -10.6848
        63        2.0000           -0.3738125             -10.1720 (HOMO)
        64                         -0.2838022              -7.7227 (LUMO)
        65                         -0.2556523              -6.9567
        66                         -0.2359285              -6.4199
        67                         -0.2350690              -6.3966
        68                         -0.2334723              -6.3531
       ...                                ...                  ...
       126                          1.2287654              33.4364
      -------------------------------------------------------------
                  HL-Gap            0.0900103 Eh            2.4493 eV
             Fermi-level           -0.3288073 Eh           -8.9473 eV

 SCC (total)                   0 d,  0 h,  0 min,  0.023 sec
 SCC setup                      ...        0 min,  0.000 sec (  1.122%)
 Dispersion                     ...        0 min,  0.000 sec (  0.908%)
 classical contributions        ...        0 min,  0.000 sec (  0.943%)
 integral evaluation            ...        0 min,  0.001 sec (  6.154%)
 iterations                     ...        0 min,  0.010 sec ( 41.252%)
 molecular gradient             ...        0 min,  0.011 sec ( 48.645%)
 printout                       ...        0 min,  0.000 sec (  0.866%)

         :::::::::::::::::::::::::::::::::::::::::::::::::::::
         ::                     SUMMARY                     ::
         :::::::::::::::::::::::::::::::::::::::::::::::::::::
         :: total energy             -68.497357877721 Eh    ::
         :: gradient norm              0.000488831564 Eh/a0 ::
         :: HOMO-LUMO gap              2.449305310712 eV    ::
         ::.................................................::
         :: SCC energy               -69.652069299065 Eh    ::
         :: -> isotropic ES            0.055027610864 Eh    ::
         :: -> anisotropic ES          0.004574867733 Eh    ::
         :: -> anisotropic XC          0.037474649557 Eh    ::
         :: -> dispersion             -0.058227622026 Eh    ::
         :: repulsion energy           1.154711421344 Eh    ::
         :: add. restraining           0.000000000000 Eh    ::
         :: total charge               0.000000000000 e     ::
         :::::::::::::::::::::::::::::::::::::::::::::::::::::

           -------------------------------------------------
          |                Property Printout                |
           -------------------------------------------------

    * Orbital Energies and Occupations

         #    Occupation            Energy/Eh            Energy/eV
      -------------------------------------------------------------
         1        2.0000           -0.7262272             -19.7616
       ...           ...                  ...                  ...
        51        2.0000           -0.4458741             -12.1329
        52        2.0000           -0.4341944             -11.8150
        53        2.0000           -0.4321010             -11.7581
        54        2.0000           -0.4307232             -11.7206
        55        2.0000           -0.4255714             -11.5804
        56        2.0000           -0.4222984             -11.4913
        57        2.0000           -0.4168503             -11.3431
        58        2.0000           -0.4163850             -11.3304
        59        2.0000           -0.4154859             -11.3059
        60        2.0000           -0.4039128             -10.9910
        61        2.0000           -0.3930516             -10.6955
        62        2.0000           -0.3926575             -10.6848
        63        2.0000           -0.3738125             -10.1720 (HOMO)
        64                         -0.2838022              -7.7227 (LUMO)
        65                         -0.2556523              -6.9567
        66                         -0.2359285              -6.4199
        67                         -0.2350690              -6.3966
        68                         -0.2334723              -6.3531
        69                         -0.2215010              -6.0273
        70                         -0.2179208              -5.9299
        71                         -0.1283741              -3.4932
        72                         -0.1125748              -3.0633
        73                         -0.1040067              -2.8302
        74                         -0.0687745              -1.8715
       ...                                ...                  ...
       126                          1.2287654              33.4364
      -------------------------------------------------------------
                  HL-Gap            0.0900103 Eh            2.4493 eV
             Fermi-level           -0.3288073 Eh           -8.9473 eV

     #   Z          covCN         q      C6AA      α(0)
     1   6 C        3.758    -0.103    22.511     6.764
     2   6 C        2.968     0.027    27.400     8.586
     3   6 C        3.080    -0.026    28.553     8.760
     4   6 C        2.768     0.245    22.892     7.836
     5  15 P        4.038     0.052   157.943    22.576
     6   6 C        2.922     0.015    27.678     8.627
     7   6 C        3.034    -0.023    28.533     8.762
     8   6 C        2.919    -0.027    28.681     8.782
     9   6 C        2.920    -0.025    28.630     8.774
    10   6 C        2.921    -0.027    28.671     8.781
    11   6 C        2.970    -0.026    28.646     8.779
    12   6 C        2.921     0.014    27.696     8.630
    13   6 C        3.037    -0.021    28.503     8.757
    14   6 C        2.919    -0.027    28.682     8.782
    15   6 C        2.920    -0.025    28.632     8.775
    16   6 C        2.921    -0.027    28.682     8.782
    17   6 C        2.966    -0.027    28.664     8.782
    18   8 O        0.808    -0.360    20.916     6.131
    19   8 O        0.878    -0.330    20.317     6.044
    20   6 C        2.966     0.024    27.473     8.597
    21   6 C        3.757    -0.102    22.495     6.762
    22   6 C        2.930    -0.050    29.230     8.866
    23   6 C        2.964     0.021    27.527     8.606
    24   6 C        3.758    -0.110    22.661     6.787
    25   6 C        2.930    -0.049    29.215     8.864
    26   1 H        0.924     0.043     2.405     2.425
    27   1 H        0.924     0.060     2.193     2.316
    28   1 H        0.925     0.049     2.335     2.390
    29   1 H        0.926     0.061     2.186     2.312
    30   1 H        0.926     0.040     2.454     2.450
    31   1 H        0.926     0.038     2.474     2.460
    32   1 H        0.926     0.039     2.461     2.453
    33   1 H        0.926     0.059     2.211     2.325
    34   1 H        0.926     0.062     2.172     2.305
    35   1 H        0.926     0.039     2.457     2.451
    36   1 H        0.926     0.038     2.477     2.461
    37   1 H        0.926     0.039     2.467     2.456
    38   1 H        0.926     0.059     2.216     2.328
    39   1 H        0.925     0.046     2.372     2.409
    40   1 H        0.924     0.042     2.418     2.432
    41   1 H        0.925     0.051     2.314     2.379
    42   1 H        0.926     0.038     2.479     2.462
    43   1 H        0.925     0.049     2.327     2.385
    44   1 H        0.925     0.050     2.325     2.385
    45   1 H        0.925     0.044     2.391     2.418
    46   1 H        0.926     0.039     2.456     2.450

 Mol. C6AA /au·bohr⁶  :      28396.447029
 Mol. C8AA /au·bohr⁸  :     744375.511803
 Mol. α(0) /au        :        270.645478


Wiberg/Mayer (AO) data.
largest (>0.10) Wiberg bond orders for each atom

 ---------------------------------------------------------------------------
     #   Z sym  total        # sym  WBO       # sym  WBO       # sym  WBO
 ---------------------------------------------------------------------------
     1   6 C    3.995 --     2 C    1.027    28 H    0.984    26 H    0.971
                            27 H    0.947
     2   6 C    3.986 --    25 C    1.425     3 C    1.350     1 C    1.027
     3   6 C    3.981 --    20 C    1.359     2 C    1.350     4 C    0.997
     4   6 C    3.891 --    19 O    1.874     3 C    0.997     5 P    0.823
     5  15 P    5.242 --    18 O    2.095     6 C    0.943    12 C    0.942
                             4 C    0.823
     6   6 C    3.982 --    11 C    1.389     7 C    1.387     5 P    0.943
                             9 C    0.103
     7   6 C    3.988 --     8 C    1.443     6 C    1.387    29 H    0.956
                            10 C    0.108
     8   6 C    3.990 --     7 C    1.443     9 C    1.439    30 H    0.969
                            11 C    0.111
     9   6 C    3.980 --     8 C    1.439    10 C    1.433    31 H    0.971
                             6 C    0.103
    10   6 C    3.992 --    11 C    1.449     9 C    1.433    32 H    0.970
                             7 C    0.108
    11   6 C    3.989 --    10 C    1.449     6 C    1.389    33 H    0.960
                             8 C    0.111
    12   6 C    3.983 --    17 C    1.390    13 C    1.387     5 P    0.942
                            15 C    0.103
    13   6 C    3.988 --    14 C    1.442    12 C    1.387    34 H    0.956
                            16 C    0.109
    14   6 C    3.990 --    13 C    1.442    15 C    1.439    35 H    0.969
                            17 C    0.111
    15   6 C    3.982 --    14 C    1.439    16 C    1.433    36 H    0.971
                            12 C    0.103
    16   6 C    3.992 --    17 C    1.449    15 C    1.433    37 H    0.970
                            13 C    0.109
    17   6 C    3.989 --    16 C    1.449    12 C    1.390    38 H    0.959
                            14 C    0.111
    18   8 O    2.288 --     5 P    2.095
    19   8 O    2.124 --     4 C    1.874
    20   6 C    3.986 --    22 C    1.416     3 C    1.359    21 C    1.025
                            25 C    0.102
    21   6 C    3.996 --    20 C    1.025    39 H    0.985    41 H    0.972
                            40 H    0.965
    22   6 C    3.989 --    20 C    1.416    23 C    1.412    42 H    0.964
    23   6 C    3.986 --    22 C    1.412    25 C    1.404    24 C    1.026
    24   6 C    3.995 --    23 C    1.026    45 H    0.985    43 H    0.976
                            44 H    0.968
    25   6 C    3.989 --     2 C    1.425    23 C    1.404    46 H    0.965
                            20 C    0.102
    26   1 H    0.998 --     1 C    0.971
    27   1 H    0.996 --     1 C    0.947
    28   1 H    0.997 --     1 C    0.984
    29   1 H    0.996 --     7 C    0.956
    30   1 H    0.997 --     8 C    0.969
    31   1 H    0.998 --     9 C    0.971
    32   1 H    0.998 --    10 C    0.970
    33   1 H    0.996 --    11 C    0.960
    34   1 H    0.996 --    13 C    0.956
    35   1 H    0.997 --    14 C    0.969
    36   1 H    0.998 --    15 C    0.971
    37   1 H    0.998 --    16 C    0.970
    38   1 H    0.996 --    17 C    0.959
    39   1 H    0.998 --    21 C    0.985
    40   1 H    0.998 --    21 C    0.965
    41   1 H    0.997 --    21 C    0.972
    42   1 H    0.996 --    22 C    0.964
    43   1 H    0.997 --    24 C    0.976
    44   1 H    0.997 --    24 C    0.968
    45   1 H    0.998 --    24 C    0.985
    46   1 H    0.996 --    25 C    0.965
 ---------------------------------------------------------------------------

Topologies differ in total number of bonds
Writing topology from bond orders to xtbtopo.mol

molecular dipole:
                 x           y           z       tot (Debye)
 q only:       -0.139       0.003       0.181
   full:       -0.332      -0.005       0.318       1.169
molecular quadrupole (traceless):
                xx          xy          yy          xz          yz          zz
 q only:       10.855      -0.717       5.527      -2.133      -0.150     -16.381
  q+dip:        8.205      -0.525       8.100      -4.813      -0.731     -16.306
   full:       10.119      -0.496       8.233      -1.527       0.003     -18.352

           -------------------------------------------------
          |                Geometry Summary                 |
           -------------------------------------------------

      molecular mass/u    :      348.3755174
   center of mass at/Å    :       -0.2266724       0.0349110      -0.0025991
  moments of inertia/u·Å² :        0.1768968E+04   0.2911341E+04   0.3967042E+04
rotational constants/cm⁻¹ :        0.9529641E-02   0.5790332E-02   0.4249421E-02

 * 43 selected distances

     #   Z          #   Z                                           value/Å
     2   6 C        3   6 C                                       1.3958738
     5  15 P        6   6 C                                       1.8217279
     6   6 C        7   6 C                                       1.3883732
     7   6 C        8   6 C                                       1.3828895
     8   6 C        9   6 C                                       1.3854330
     9   6 C       10   6 C                                       1.3862118
     6   6 C       11   6 C                                       1.3882292
    10   6 C       11   6 C                                       1.3831632
     5  15 P       12   6 C                                       1.8247345 (max)
    12   6 C       13   6 C                                       1.3885262
    13   6 C       14   6 C                                       1.3830991
    14   6 C       15   6 C                                       1.3852158
    15   6 C       16   6 C                                       1.3862142
    12   6 C       17   6 C                                       1.3886794
    16   6 C       17   6 C                                       1.3830910
     5  15 P       18   8 O                                       1.4671358
     4   6 C       19   8 O                                       1.2029036
     3   6 C       20   6 C                                       1.3946128
    20   6 C       22   6 C                                       1.3861482
    22   6 C       23   6 C                                       1.3874345
     2   6 C       25   6 C                                       1.3840799
    23   6 C       25   6 C                                       1.3893127
     1   6 C       26   1 H                                       1.0905389
     1   6 C       27   1 H                                       1.0920899
     1   6 C       28   1 H                                       1.0871122
     7   6 C       29   1 H                                       1.0809516
     8   6 C       30   1 H                                       1.0800873
     9   6 C       31   1 H                                       1.0801666
    10   6 C       32   1 H                                       1.0801867
    11   6 C       33   1 H                                       1.0787206 (min)
    13   6 C       34   1 H                                       1.0805350
    14   6 C       35   1 H                                       1.0801597
    15   6 C       36   1 H                                       1.0800701
    16   6 C       37   1 H                                       1.0801595
    17   6 C       38   1 H                                       1.0790956
    21   6 C       39   1 H                                       1.0870218
    21   6 C       40   1 H                                       1.0918734
    21   6 C       41   1 H                                       1.0893953
    22   6 C       42   1 H                                       1.0808046
    24   6 C       43   1 H                                       1.0881628
    24   6 C       44   1 H                                       1.0901811
    24   6 C       45   1 H                                       1.0868505
    25   6 C       46   1 H                                       1.0807113

 * 5 distinct bonds (by element types)

   Z      Z             #   av. dist./Å        max./Å        min./Å
   1 H    6 C          21     1.0840416     1.0920899     1.0787206
   6 C    6 C          18     1.3870326     1.3958738     1.3828895
   6 C    8 O           1     1.2029036     1.2029036     1.2029036
   6 C   15 P           2     1.8232312     1.8247345     1.8217279
   8 O   15 P           1     1.4671358     1.4671358     1.4671358


optimized geometry written to: xtbopt.xyz


           -------------------------------------------------
          | TOTAL ENERGY              -68.497357877721 Eh   |
          | GRADIENT NORM               0.000488831564 Eh/α |
          | HOMO-LUMO GAP               2.449305310712 eV   |
           -------------------------------------------------

------------------------------------------------------------------------
 * finished run on 2025/12/01 at 14:19:48.195     
------------------------------------------------------------------------
 total:
 * wall-time:     0 d,  0 h,  0 min,  1.088 sec
 *  cpu-time:     0 d,  0 h,  0 min, 24.166 sec
 * ratio c/w:    22.208 speedup
 SCF:
 * wall-time:     0 d,  0 h,  0 min,  0.067 sec
 *  cpu-time:     0 d,  0 h,  0 min,  1.485 sec
 * ratio c/w:    22.242 speedup
 ANC optimizer:
 * wall-time:     0 d,  0 h,  0 min,  0.979 sec
 *  cpu-time:     0 d,  0 h,  0 min, 22.332 sec
 * ratio c/w:    22.799 speedup

normal termination of xtb
