      -----------------------------------------------------------      
     |                   =====================                   |     
     |                           x T B                           |     
     |                   =====================                   |     
     |                         S. Grimme                         |     
     |          Mulliken Center for Theoretical Chemistry        |     
     |                    University of Bonn                     |     
      -----------------------------------------------------------      

   * xtb version 6.7.1 (edcfbbe) compiled by 'albert@albert-system' on 2024-07-22

   xtb is free software: you can redistribute it and/or modify it under
   the terms of the GNU Lesser General Public License as published by
   the Free Software Foundation, either version 3 of the License, or
   (at your option) any later version.
   
   xtb is distributed in the hope that it will be useful,
   but WITHOUT ANY WARRANTY; without even the implied warranty of
   MERCHANTABILITY or FITNESS FOR A PARTICULAR PURPOSE.  See the
   GNU Lesser General Public License for more details.
   
   Cite this work as:
   * C. Bannwarth, E. Caldeweyher, S. Ehlert, A. Hansen, P. Pracht,
     J. Seibert, S. Spicher, S. Grimme, WIREs Comput. Mol. Sci., 2020, 11,
     e01493. DOI: 10.1002/wcms.1493
   
   for GFN2-xTB:
   * C. Bannwarth, S. Ehlert and S. Grimme., J. Chem. Theory Comput., 2019,
     15, 1652-1671. DOI: 10.1021/acs.jctc.8b01176
   for GFN1-xTB:
   * S. Grimme, C. Bannwarth, P. Shushkov, J. Chem. Theory Comput., 2017,
     13, 1989-2009. DOI: 10.1021/acs.jctc.7b00118
   for GFN0-xTB:
   * P. Pracht, E. Caldeweyher, S. Ehlert, S. Grimme, ChemRxiv, 2019, preprint.
     DOI: 10.26434/chemrxiv.8326202.v1
   for GFN-FF:
   * S. Spicher and S. Grimme, Angew. Chem. Int. Ed., 2020, 59, 15665-15673.
     DOI: 10.1002/anie.202004239
   
   for ALPB and GBSA implicit solvation:
   * S. Ehlert, M. Stahn, S. Spicher, S. Grimme, J. Chem. Theory Comput.,
     2021, 17, 4250-4261. DOI: 10.1021/acs.jctc.1c00471
   
   for ddCOSMO and CPCM-X implicit solvation:
   * M. Stahn, S. Ehlert, S. Grimme, J. Phys. Chem. A,
     2023, XX, XXXX-XXXX. DOI: 10.1021/acs.jpca.3c04382
   
   for DFT-D4:
   * E. Caldeweyher, C. Bannwarth and S. Grimme, J. Chem. Phys., 2017,
     147, 034112. DOI: 10.1063/1.4993215
   * E. Caldeweyher, S. Ehlert, A. Hansen, H. Neugebauer, S. Spicher,
     C. Bannwarth and S. Grimme, J. Chem. Phys., 2019, 150, 154122.
     DOI: 10.1063/1.5090222
   * E. Caldeweyher, J.-M. Mewes, S. Ehlert and S. Grimme, Phys. Chem. Chem. Phys.
     2020, 22, 8499-8512. DOI: 10.1039/D0CP00502A
   
   for sTDA-xTB:
   * S. Grimme and C. Bannwarth, J. Chem. Phys., 2016, 145, 054103.
     DOI: 10.1063/1.4959605
   
   in the mass-spec context:
   * V. Asgeirsson, C. Bauer and S. Grimme, Chem. Sci., 2017, 8, 4879.
     DOI: 10.1039/c7sc00601b
   * J. Koopman and S. Grimme, ACS Omega 2019, 4, 12, 15120-15133.
     DOI: 10.1021/acsomega.9b02011
   
   for metadynamics refer to:
   * S. Grimme, J. Chem. Theory Comput., 2019, 155, 2847-2862
     DOI: 10.1021/acs.jctc.9b00143
   
   for SPH calculations refer to:
   * S. Spicher and S. Grimme, J. Chem. Theory Comput., 2021, 17, 1701-1714
     DOI: 10.1021/acs.jctc.0c01306
   
   for ONIOM refer to:
   * C. Plett, A. Katbashev, S. Ehlert, S. Grimme, M. Bursch,
     Phys. Chem. Chem. Phys., 2023, 25, 17860-17868. DOI: 10.1039/D3CP02178E
   
   for DIPRO refer to:
   * J. Kohn, N. Gildemeister, S. Grimme, D. Fazzi, A. Hansen,
     J. Chem. Phys., 2023, just accepted.
   
   for PTB refer to:
   * S. Grimme, M. Mueller, A. Hansen, J. Chem. Phys., 2023, 158, 124111.
     DOI: 10.1063/5.0137838
   
   with help from (in alphabetical order)
   P. Atkinson, C. Bannwarth, F. Bohle, G. Brandenburg, E. Caldeweyher
   M. Checinski, S. Dohm, S. Ehlert, S. Ehrlich, I. Gerasimov, C. Hölzer
   A. Katbashev, J. Kohn, J. Koopman, C. Lavigne, S. Lehtola, F. März, M. Müller,
   F. Musil, H. Neugebauer, J. Pisarek, C. Plett, P. Pracht, F. Pultar,
   J. Seibert, P. Shushkov, S. Spicher, M. Stahn, M. Steiner, T. Strunk,
   J. Stückrath, T. Rose, and J. Unsleber
   
 * started run on 2025/12/01 at 14:19:43.768     
   ID    Z sym.   atoms
    1    6 C      1-4, 6-17, 20-25
    2   15 P      5
    3    8 O      18, 19
    4    1 H      26-46

           -------------------------------------------------
          |                Calculation Setup                |
           -------------------------------------------------

          program call               : xtb pipeline_data/3_conformer_xyz/acrylates/rdkit/VFHVQBAGLAREND-UHFFFAOYSA-N_conf186.xyz --opt --gfn 2-xTB --iterations 250
          coordinate file            : pipeline_data/3_conformer_xyz/acrylates/rdkit/VFHVQBAGLAREND-UHFFFAOYSA-N_conf186.xyz
          omp threads                :                    24

########################################################################
[WARNING] Please study the warnings concerning your input carefully
-1- readin_getIntValue: could not parse '2-xTB'
########################################################################

           -------------------------------------------------
          |                 G F N 2 - x T B                 |
           -------------------------------------------------

        Reference                      10.1021/acs.jctc.8b01176
      * Hamiltonian:
        H0-scaling (s, p, d)           1.850000    2.230000    2.230000
        zeta-weighting                 0.500000
      * Dispersion:
        s8                             2.700000
        a1                             0.520000
        a2                             5.000000
        s9                             5.000000
      * Repulsion:
        kExp                           1.500000    1.000000
        rExp                           1.000000
      * Coulomb:
        alpha                          2.000000
        third order                    shell-resolved
        anisotropic                    true
        a3                             3.000000
        a5                             4.000000
        cn-shift                       1.200000
        cn-exp                         4.000000
        max-rad                        5.000000


          ...................................................
          :                      SETUP                      :
          :.................................................:
          :  # basis functions                 127          :
          :  # atomic orbitals                 126          :
          :  # shells                           72          :
          :  # electrons                       126          :
          :  max. iterations                   250          :
          :  Hamiltonian                  GFN2-xTB          :
          :  restarted?                      false          :
          :  GBSA solvation                  false          :
          :  PC potential                    false          :
          :  electronic temp.          300.0000000     K    :
          :  accuracy                    1.0000000          :
          :  -> integral cutoff          0.2500000E+02      :
          :  -> integral neglect         0.1000000E-07      :
          :  -> SCF convergence          0.1000000E-05 Eh   :
          :  -> wf. convergence          0.1000000E-03 e    :
          :  Broyden damping             0.4000000          :
          :  net charge                          0          :
          :  unpaired electrons                  0          :
          ...................................................

 iter      E             dE          RMSdq      gap      omega  full diag
   1    -69.4829629 -0.694830E+02  0.463E+00    2.78       0.0  T
   2    -69.5622749 -0.793120E-01  0.288E+00    2.01       1.0  T
   3    -69.5432433  0.190316E-01  0.150E+00    2.56       1.0  T
   4    -69.5858717 -0.426284E-01  0.380E-01    2.06       1.0  T
   5    -69.5873520 -0.148029E-02  0.200E-01    2.18       1.0  T
   6    -69.5882501 -0.898044E-03  0.837E-02    2.16       1.0  T
   7    -69.5884289 -0.178807E-03  0.371E-02    2.16       1.0  T
   8    -69.5884304 -0.154606E-05  0.157E-02    2.16       1.0  T
   9    -69.5884356 -0.517429E-05  0.525E-03    2.16       2.8  T
  10    -69.5884357 -0.725568E-07  0.316E-03    2.16       4.7  T
  11    -69.5884359 -0.227699E-06  0.101E-03    2.16      14.5  T
  12    -69.5884359 -0.137111E-07  0.284E-04    2.16      52.0  T
  13    -69.5884359 -0.948333E-09  0.163E-04    2.16      90.4  T

   *** convergence criteria satisfied after 13 iterations ***

         #    Occupation            Energy/Eh            Energy/eV
      -------------------------------------------------------------
         1        2.0000           -0.7159119             -19.4810
       ...           ...                  ...                  ...
        57        2.0000           -0.4193120             -11.4101
        58        2.0000           -0.4165633             -11.3353
        59        2.0000           -0.4143466             -11.2749
        60        2.0000           -0.3998256             -10.8798
        61        2.0000           -0.3963645             -10.7856
        62        2.0000           -0.3926919             -10.6857
        63        2.0000           -0.3852604             -10.4835 (HOMO)
        64                         -0.3059909              -8.3264 (LUMO)
        65                         -0.2544533              -6.9240
        66                         -0.2451987              -6.6722
        67                         -0.2382516              -6.4832
        68                         -0.2345775              -6.3832
       ...                                ...                  ...
       126                          1.1542221              31.4080
      -------------------------------------------------------------
                  HL-Gap            0.0792695 Eh            2.1570 eV
             Fermi-level           -0.3456257 Eh           -9.4050 eV

 SCC (total)                   0 d,  0 h,  0 min,  0.078 sec
 SCC setup                      ...        0 min,  0.007 sec (  9.500%)
 Dispersion                     ...        0 min,  0.008 sec ( 10.225%)
 classical contributions        ...        0 min,  0.004 sec (  4.922%)
 integral evaluation            ...        0 min,  0.014 sec ( 17.548%)
 iterations                     ...        0 min,  0.039 sec ( 49.563%)
 molecular gradient             ...        0 min,  0.006 sec (  7.821%)
 printout                       ...        0 min,  0.000 sec (  0.372%)

         :::::::::::::::::::::::::::::::::::::::::::::::::::::
         ::                     SUMMARY                     ::
         :::::::::::::::::::::::::::::::::::::::::::::::::::::
         :: total energy             -68.464471538165 Eh    ::
         :: gradient norm              0.177448886124 Eh/a0 ::
         :: HOMO-LUMO gap              2.157033813962 eV    ::
         ::.................................................::
         :: SCC energy               -69.587647610302 Eh    ::
         :: -> isotropic ES            0.068371274691 Eh    ::
         :: -> anisotropic ES          0.004972723247 Eh    ::
         :: -> anisotropic XC          0.040273133964 Eh    ::
         :: -> dispersion             -0.058131825540 Eh    ::
         :: repulsion energy           1.123176072137 Eh    ::
         :: add. restraining           0.000000000000 Eh    ::
         :: total charge              -0.000000000000 e     ::
         :::::::::::::::::::::::::::::::::::::::::::::::::::::

      ----------------------------------------------------------- 
     |                   =====================                   |
     |                        A N C O P T                        |
     |                   =====================                   |
     |               Approximate Normal Coordinate               |
     |                Rational Function Optimizer                |
      ----------------------------------------------------------- 
      ----------------------------------------------------------- 
     |                   =====================                   |
     |                        A N C O P T                        |
     |                   =====================                   |
     |               Approximate Normal Coordinate               |
     |                Rational Function Optimizer                |
      ----------------------------------------------------------- 

          ...................................................
          :                      SETUP                      :
          :.................................................:
          :   optimization level            normal          :
          :   max. optcycles                   200          :
          :   ANC micro-cycles                  20          :
          :   degrees of freedom               132          :
          :.................................................:
          :   RF solver                   davidson          :
          :   write xtbopt.log                true          :
          :   linear?                        false          :
          :   energy convergence         0.5000000E-05 Eh   :
          :   grad. convergence          0.1000000E-02 Eh/α :
          :   maxmium RF displ.          1.0000000          :
          :   Hlow (freq-cutoff)         0.1000000E-01      :
          :   Hmax (freq-cutoff)         5.0000000          :
          :   S6 in model hess.         20.0000000          :
          ...................................................

generating ANC from exact Hessian ...
Using Lindh-Hessian (1995)
 Shifting diagonal of input Hessian by   9.653199331099177E-003
 Lowest  eigenvalues of input Hessian
    0.000000    0.000000    0.000000    0.000000    0.000000    0.000000
    0.010000    0.010130    0.010241    0.010376    0.011157    0.011329
    0.011818    0.013119    0.013801    0.014503    0.015228    0.016603
 Highest eigenvalues
    1.983728    1.986689    2.000537    2.023478    2.088170    2.406876
 

........................................................................
.............................. CYCLE    1 ..............................
........................................................................

 iter      E             dE          RMSdq      gap      omega  full diag
   1    -69.5884359 -0.695884E+02  0.561E-05    2.16       0.0  T
   2    -69.5884359 -0.304539E-10  0.374E-05    2.16     394.1  T
   3    -69.5884359 -0.251816E-10  0.203E-05    2.16     728.0  T
     SCC iter.                  ...        0 min,  0.013 sec
     gradient                   ...        0 min,  0.011 sec
 * total energy  :   -68.4644715 Eh     change       -0.2962537E-09 Eh
   gradient norm :     0.1774497 Eh/α   predicted     0.0000000E+00 (-100.00%)
   displ. norm   :     0.2988403 α      lambda       -0.2917420E-01
   maximum displ.:     0.1161474 α      in ANC's #32, #45, #31, ...

........................................................................
.............................. CYCLE    2 ..............................
........................................................................

 iter      E             dE          RMSdq      gap      omega  full diag
   1    -69.6313951 -0.696314E+02  0.348E-01    2.35       0.0  T
   2    -69.6318083 -0.413167E-03  0.214E-01    2.35       1.0  T
   3    -69.6317532  0.550573E-04  0.102E-01    2.33       1.0  T
   4    -69.6318672 -0.113921E-03  0.520E-02    2.35       1.0  T
   5    -69.6319614 -0.942442E-04  0.103E-02    2.34       1.4  T
   6    -69.6319626 -0.121901E-05  0.453E-03    2.35       3.3  T
   7    -69.6319632 -0.540096E-06  0.166E-03    2.34       8.9  T
   8    -69.6319632 -0.249888E-07  0.783E-04    2.34      18.8  T
   9    -69.6319632 -0.234995E-08  0.286E-04    2.34      51.5  T
     SCC iter.                  ...        0 min,  0.049 sec
     gradient                   ...        0 min,  0.007 sec
 * total energy  :   -68.4853964 Eh     change       -0.2092486E-01 Eh
   gradient norm :     0.0871257 Eh/α   predicted    -0.1590032E-01 ( -24.01%)
   displ. norm   :     0.2574563 α      lambda       -0.1124467E-01
   maximum displ.:     0.0733176 α      in ANC's #31, #11, #32, ...

........................................................................
.............................. CYCLE    3 ..............................
........................................................................

 iter      E             dE          RMSdq      gap      omega  full diag
   1    -69.6506247 -0.696506E+02  0.301E-01    2.49       0.0  T
   2    -69.6509752 -0.350557E-03  0.178E-01    2.49       1.0  T
   3    -69.6509643  0.109233E-04  0.866E-02    2.47       1.0  T
   4    -69.6510232 -0.588787E-04  0.483E-02    2.48       1.0  T
   5    -69.6510978 -0.746678E-04  0.968E-03    2.48       1.5  T
   6    -69.6510991 -0.129373E-05  0.396E-03    2.48       3.7  T
   7    -69.6510995 -0.381210E-06  0.137E-03    2.48      10.8  T
   8    -69.6510995 -0.223459E-07  0.648E-04    2.48      22.8  T
   9    -69.6510995  0.284672E-09  0.290E-04    2.48      50.8  T
     SCC iter.                  ...        0 min,  0.030 sec
     gradient                   ...        0 min,  0.006 sec
 * total energy  :   -68.4917406 Eh     change       -0.6344227E-02 Eh
   gradient norm :     0.0223582 Eh/α   predicted    -0.5996551E-02 (  -5.48%)
   displ. norm   :     0.2024384 α      lambda       -0.1361165E-02
   maximum displ.:     0.1043175 α      in ANC's #11, #6, #9, ...

........................................................................
.............................. CYCLE    4 ..............................
........................................................................

 iter      E             dE          RMSdq      gap      omega  full diag
   1    -69.6462025 -0.696462E+02  0.115E-01    2.45       0.0  T
   2    -69.6462240 -0.214796E-04  0.682E-02    2.46       1.0  T
   3    -69.6462085  0.155000E-04  0.312E-02    2.45       1.0  T
   4    -69.6462307 -0.222649E-04  0.102E-02    2.46       1.4  T
   5    -69.6462336 -0.289085E-05  0.364E-03    2.46       4.1  T
   6    -69.6462341 -0.500212E-06  0.125E-03    2.46      11.8  T
   7    -69.6462342 -0.317134E-07  0.502E-04    2.46      29.4  T
   8    -69.6462342 -0.131536E-08  0.220E-04    2.46      67.1  T
     SCC iter.                  ...        0 min,  0.024 sec
     gradient                   ...        0 min,  0.006 sec
 * total energy  :   -68.4927452 Eh     change       -0.1004577E-02 Eh
   gradient norm :     0.0097898 Eh/α   predicted    -0.7091693E-03 ( -29.41%)
   displ. norm   :     0.3198638 α      lambda       -0.1014662E-02
   maximum displ.:     0.1707451 α      in ANC's #11, #6, #9, ...

........................................................................
.............................. CYCLE    5 ..............................
........................................................................

 iter      E             dE          RMSdq      gap      omega  full diag
   1    -69.6419758 -0.696420E+02  0.146E-01    2.43       0.0  T
   2    -69.6419893 -0.134258E-04  0.862E-02    2.44       1.0  T
   3    -69.6419679  0.214105E-04  0.273E-02    2.44       1.0  T
   4    -69.6419926 -0.247136E-04  0.689E-03    2.44       2.1  T
   5    -69.6419940 -0.145648E-05  0.286E-03    2.44       5.2  T
   6    -69.6419943 -0.297814E-06  0.111E-03    2.44      13.3  T
   7    -69.6419943 -0.196331E-07  0.539E-04    2.44      27.3  T
   8    -69.6419943 -0.232326E-08  0.196E-04    2.44      75.2  T
     SCC iter.                  ...        0 min,  0.024 sec
     gradient                   ...        0 min,  0.008 sec
 * total energy  :   -68.4934287 Eh     change       -0.6834506E-03 Eh
   gradient norm :     0.0082495 Eh/α   predicted    -0.5592424E-03 ( -18.17%)
   displ. norm   :     0.2915191 α      lambda       -0.5032565E-03
   maximum displ.:     0.1574726 α      in ANC's #6, #11, #9, ...

........................................................................
.............................. CYCLE    6 ..............................
........................................................................

 iter      E             dE          RMSdq      gap      omega  full diag
   1    -69.6421037 -0.696421E+02  0.112E-01    2.43       0.0  T
   2    -69.6421061 -0.239165E-05  0.657E-02    2.44       1.0  T
   3    -69.6421018  0.427181E-05  0.107E-02    2.44       1.4  T
   4    -69.6421067 -0.485600E-05  0.323E-03    2.44       4.6  T
   5    -69.6421070 -0.282030E-06  0.130E-03    2.44      11.3  T
   6    -69.6421070 -0.222842E-07  0.657E-04    2.44      22.4  T
   7    -69.6421070 -0.663350E-08  0.240E-04    2.44      61.4  T
     SCC iter.                  ...        0 min,  0.025 sec
     gradient                   ...        0 min,  0.007 sec
 * total energy  :   -68.4938195 Eh     change       -0.3908354E-03 Eh
   gradient norm :     0.0104261 Eh/α   predicted    -0.2730130E-03 ( -30.15%)
   displ. norm   :     0.3686917 α      lambda       -0.5717712E-03
   maximum displ.:     0.2097769 α      in ANC's #6, #11, #3, ...

........................................................................
.............................. CYCLE    7 ..............................
........................................................................

 iter      E             dE          RMSdq      gap      omega  full diag
   1    -69.6450222 -0.696450E+02  0.130E-01    2.44       0.0  T
   2    -69.6450246 -0.245278E-05  0.762E-02    2.43       1.0  T
   3    -69.6450174  0.723805E-05  0.146E-02    2.44       1.0  T
   4    -69.6450259 -0.851613E-05  0.354E-03    2.43       4.2  T
   5    -69.6450260 -0.786815E-07  0.169E-03    2.43       8.7  T
   6    -69.6450261 -0.853767E-07  0.651E-04    2.43      22.6  T
   7    -69.6450261 -0.573421E-08  0.252E-04    2.43      58.5  T
     SCC iter.                  ...        0 min,  0.020 sec
     gradient                   ...        0 min,  0.007 sec
 * total energy  :   -68.4942643 Eh     change       -0.4447736E-03 Eh
   gradient norm :     0.0096640 Eh/α   predicted    -0.3247475E-03 ( -26.99%)
   displ. norm   :     0.3919885 α      lambda       -0.5177856E-03
   maximum displ.:     0.2301730 α      in ANC's #6, #3, #11, ...

........................................................................
.............................. CYCLE    8 ..............................
........................................................................

 iter      E             dE          RMSdq      gap      omega  full diag
   1    -69.6483038 -0.696483E+02  0.136E-01    2.43       0.0  T
   2    -69.6483068 -0.303748E-05  0.787E-02    2.43       1.0  T
   3    -69.6483013  0.547567E-05  0.138E-02    2.43       1.1  T
   4    -69.6483080 -0.671207E-05  0.400E-03    2.43       3.7  T
   5    -69.6483081 -0.839630E-07  0.172E-03    2.43       8.6  T
   6    -69.6483082 -0.104172E-06  0.712E-04    2.43      20.7  T
   7    -69.6483082 -0.630332E-08  0.291E-04    2.43      50.7  T
     SCC iter.                  ...        0 min,  0.020 sec
     gradient                   ...        0 min,  0.007 sec
 * total energy  :   -68.4946684 Eh     change       -0.4041777E-03 Eh
   gradient norm :     0.0079523 Eh/α   predicted    -0.2986744E-03 ( -26.10%)
   displ. norm   :     0.4162183 α      lambda       -0.4672410E-03
   maximum displ.:     0.2431784 α      in ANC's #6, #3, #8, ...

........................................................................
.............................. CYCLE    9 ..............................
........................................................................

 iter      E             dE          RMSdq      gap      omega  full diag
   1    -69.6503325 -0.696503E+02  0.141E-01    2.42       0.0  T
   2    -69.6503355 -0.301699E-05  0.810E-02    2.42       1.0  T
   3    -69.6503332  0.233538E-05  0.995E-03    2.42       1.5  T
   4    -69.6503363 -0.313518E-05  0.366E-03    2.42       4.0  T
   5    -69.6503365 -0.216578E-06  0.132E-03    2.42      11.2  T
   6    -69.6503365 -0.195705E-07  0.739E-04    2.42      20.0  T
   7    -69.6503365 -0.644368E-08  0.260E-04    2.42      56.6  T
     SCC iter.                  ...        0 min,  0.021 sec
     gradient                   ...        0 min,  0.006 sec
 * total energy  :   -68.4950381 Eh     change       -0.3697093E-03 Eh
   gradient norm :     0.0060978 Eh/α   predicted    -0.2740940E-03 ( -25.86%)
   displ. norm   :     0.4504910 α      lambda       -0.4448271E-03
   maximum displ.:     0.2521273 α      in ANC's #6, #3, #7, ...

........................................................................
.............................. CYCLE   10 ..............................
........................................................................

 iter      E             dE          RMSdq      gap      omega  full diag
   1    -69.6507093 -0.696507E+02  0.145E-01    2.41       0.0  T
   2    -69.6507125 -0.321766E-05  0.839E-02    2.42       1.0  T
   3    -69.6507076  0.490757E-05  0.115E-02    2.42       1.3  T
   4    -69.6507133 -0.566657E-05  0.409E-03    2.42       3.6  T
   5    -69.6507138 -0.506203E-06  0.135E-03    2.42      10.9  T
   6    -69.6507138 -0.156003E-07  0.769E-04    2.42      19.2  T
   7    -69.6507138 -0.877966E-08  0.335E-04    2.42      44.0  T
     SCC iter.                  ...        0 min,  0.021 sec
     gradient                   ...        0 min,  0.006 sec
 * total energy  :   -68.4953861 Eh     change       -0.3479406E-03 Eh
   gradient norm :     0.0050080 Eh/α   predicted    -0.2675512E-03 ( -23.10%)
   displ. norm   :     0.4461652 α      lambda       -0.3789953E-03
   maximum displ.:     0.2300842 α      in ANC's #6, #3, #7, ...

........................................................................
.............................. CYCLE   11 ..............................
........................................................................

 iter      E             dE          RMSdq      gap      omega  full diag
   1    -69.6501844 -0.696502E+02  0.135E-01    2.41       0.0  T
   2    -69.6501866 -0.218355E-05  0.784E-02    2.42       1.0  T
   3    -69.6501785  0.811101E-05  0.135E-02    2.41       1.1  T
   4    -69.6501878 -0.935255E-05  0.295E-03    2.42       5.0  T
   5    -69.6501880 -0.192488E-06  0.113E-03    2.42      13.1  T
   6    -69.6501880 -0.144783E-07  0.610E-04    2.42      24.2  T
   7    -69.6501880 -0.748656E-08  0.290E-04    2.42      50.8  T
     SCC iter.                  ...        0 min,  0.020 sec
     gradient                   ...        0 min,  0.006 sec
 * total energy  :   -68.4956781 Eh     change       -0.2919788E-03 Eh
   gradient norm :     0.0062326 Eh/α   predicted    -0.2272275E-03 ( -22.18%)
   displ. norm   :     0.4372686 α      lambda       -0.3091540E-03
   maximum displ.:     0.2254389 α      in ANC's #3, #6, #5, ...

........................................................................
.............................. CYCLE   12 ..............................
........................................................................

 iter      E             dE          RMSdq      gap      omega  full diag
   1    -69.6484704 -0.696485E+02  0.128E-01    2.41       0.0  T
   2    -69.6484725 -0.209903E-05  0.751E-02    2.41       1.0  T
   3    -69.6484634  0.905117E-05  0.147E-02    2.41       1.0  T
   4    -69.6484739 -0.104475E-04  0.199E-03    2.41       7.4  T
   5    -69.6484739 -0.260397E-07  0.107E-03    2.41      13.7  T
   6    -69.6484739 -0.239936E-07  0.511E-04    2.41      28.9  T
   7    -69.6484739 -0.446788E-08  0.209E-04    2.41      70.5  T
     SCC iter.                  ...        0 min,  0.020 sec
     gradient                   ...        0 min,  0.006 sec
 * total energy  :   -68.4959215 Eh     change       -0.2434428E-03 Eh
   gradient norm :     0.0076463 Eh/α   predicted    -0.1841346E-03 ( -24.36%)
   displ. norm   :     0.4462347 α      lambda       -0.3330352E-03
   maximum displ.:     0.2289894 α      in ANC's #3, #5, #6, ...

........................................................................
.............................. CYCLE   13 ..............................
........................................................................

 iter      E             dE          RMSdq      gap      omega  full diag
   1    -69.6502973 -0.696503E+02  0.124E-01    2.44       0.0  T
   2    -69.6503020 -0.469387E-05  0.723E-02    2.43       1.0  T
   3    -69.6503002  0.183479E-05  0.935E-03    2.43       1.6  T
   4    -69.6503025 -0.232812E-05  0.264E-03    2.43       5.6  T
   5    -69.6503028 -0.257078E-06  0.110E-03    2.43      13.5  T
   6    -69.6503028 -0.907902E-08  0.458E-04    2.43      32.2  T
   7    -69.6503028 -0.148042E-08  0.187E-04    2.43      78.7  T
     SCC iter.                  ...        0 min,  0.023 sec
     gradient                   ...        0 min,  0.005 sec
 * total energy  :   -68.4961481 Eh     change       -0.2265643E-03 Eh
   gradient norm :     0.0109071 Eh/α   predicted    -0.1996810E-03 ( -11.87%)
   displ. norm   :     0.5582105 α      lambda       -0.3753508E-03
   maximum displ.:     0.2855144 α      in ANC's #3, #6, #5, ...

........................................................................
.............................. CYCLE   14 ..............................
........................................................................

 iter      E             dE          RMSdq      gap      omega  full diag
   1    -69.6425482 -0.696425E+02  0.168E-01    2.40       0.0  T
   2    -69.6425602 -0.119852E-04  0.996E-02    2.41       1.0  T
   3    -69.6425435  0.166780E-04  0.230E-02    2.40       1.0  T
   4    -69.6425630 -0.194343E-04  0.331E-03    2.41       4.5  T
   5    -69.6425631 -0.163079E-06  0.204E-03    2.41       7.2  T
   6    -69.6425632 -0.800666E-07  0.931E-04    2.41      15.8  T
   7    -69.6425632 -0.192959E-07  0.305E-04    2.41      48.3  T
     SCC iter.                  ...        0 min,  0.023 sec
     gradient                   ...        0 min,  0.007 sec
 * total energy  :   -68.4963328 Eh     change       -0.1847263E-03 Eh
   gradient norm :     0.0105198 Eh/α   predicted    -0.2461602E-03 (  33.26%)
   displ. norm   :     0.1626265 α      lambda       -0.2505154E-03
   maximum displ.:     0.0899537 α      in ANC's #5, #3, #9, ...

........................................................................
.............................. CYCLE   15 ..............................
........................................................................

 iter      E             dE          RMSdq      gap      omega  full diag
   1    -69.6493937 -0.696494E+02  0.526E-02    2.42       0.0  T
   2    -69.6493970 -0.337363E-05  0.300E-02    2.41       1.0  T
   3    -69.6493951  0.191434E-05  0.115E-02    2.42       1.3  T
   4    -69.6493973 -0.216995E-05  0.397E-03    2.41       3.7  T
   5    -69.6493979 -0.591593E-06  0.124E-03    2.42      11.9  T
   6    -69.6493979 -0.250217E-07  0.475E-04    2.42      31.0  T
   7    -69.6493979 -0.682741E-08  0.208E-04    2.42      70.9  T
     SCC iter.                  ...        0 min,  0.023 sec
     gradient                   ...        0 min,  0.005 sec
 * total energy  :   -68.4964883 Eh     change       -0.1554796E-03 Eh
   gradient norm :     0.0060053 Eh/α   predicted    -0.1285728E-03 ( -17.31%)
   displ. norm   :     0.3937965 α      lambda       -0.2503194E-03
   maximum displ.:     0.2037570 α      in ANC's #3, #6, #5, ...

........................................................................
.............................. CYCLE   16 ..............................
........................................................................

 iter      E             dE          RMSdq      gap      omega  full diag
   1    -69.6489498 -0.696489E+02  0.115E-01    2.46       0.0  T
   2    -69.6489641 -0.142819E-04  0.682E-02    2.44       1.0  T
   3    -69.6489551  0.899362E-05  0.225E-02    2.45       1.0  T
   4    -69.6489658 -0.106828E-04  0.575E-03    2.44       2.6  T
   5    -69.6489671 -0.128142E-05  0.201E-03    2.45       7.3  T
   6    -69.6489671 -0.858648E-07  0.870E-04    2.45      16.9  T
   7    -69.6489672 -0.119448E-07  0.309E-04    2.45      47.8  T
     SCC iter.                  ...        0 min,  0.023 sec
     gradient                   ...        0 min,  0.008 sec
 * total energy  :   -68.4965879 Eh     change       -0.9964413E-04 Eh
   gradient norm :     0.0104967 Eh/α   predicted    -0.1445697E-03 (  45.09%)
   displ. norm   :     0.1541618 α      lambda       -0.1221153E-03
   maximum displ.:     0.0797301 α      in ANC's #3, #5, #6, ...

........................................................................
.............................. CYCLE   17 ..............................
........................................................................

 iter      E             dE          RMSdq      gap      omega  full diag
   1    -69.6495860 -0.696496E+02  0.494E-02    2.43       0.0  T
   2    -69.6495885 -0.250535E-05  0.289E-02    2.43       1.0  T
   3    -69.6495869  0.168035E-05  0.808E-03    2.43       1.8  T
   4    -69.6495889 -0.200059E-05  0.173E-03    2.43       8.5  T
   5    -69.6495889 -0.754292E-07  0.826E-04    2.43      17.9  T
   6    -69.6495889 -0.139545E-07  0.324E-04    2.43      45.5  T
     SCC iter.                  ...        0 min,  0.020 sec
     gradient                   ...        0 min,  0.006 sec
 * total energy  :   -68.4966791 Eh     change       -0.9119272E-04 Eh
   gradient norm :     0.0049560 Eh/α   predicted    -0.6251228E-04 ( -31.45%)
   displ. norm   :     0.2731973 α      lambda       -0.1314751E-03
   maximum displ.:     0.1411939 α      in ANC's #3, #5, #6, ...

........................................................................
.............................. CYCLE   18 ..............................
........................................................................

 iter      E             dE          RMSdq      gap      omega  full diag
   1    -69.6508426 -0.696508E+02  0.881E-02    2.42       0.0  T
   2    -69.6508452 -0.257345E-05  0.513E-02    2.42       1.0  T
   3    -69.6508426  0.261865E-05  0.937E-03    2.42       1.6  T
   4    -69.6508457 -0.308019E-05  0.201E-03    2.42       7.3  T
   5    -69.6508458 -0.849301E-07  0.110E-03    2.42      13.4  T
   6    -69.6508458 -0.245562E-07  0.454E-04    2.42      32.5  T
   7    -69.6508458 -0.395691E-08  0.223E-04    2.42      66.1  T
     SCC iter.                  ...        0 min,  0.023 sec
     gradient                   ...        0 min,  0.007 sec
 * total energy  :   -68.4967689 Eh     change       -0.8979645E-04 Eh
   gradient norm :     0.0049386 Eh/α   predicted    -0.7064481E-04 ( -21.33%)
   displ. norm   :     0.4082866 α      lambda       -0.1206537E-03
   maximum displ.:     0.2158112 α      in ANC's #6, #3, #5, ...

........................................................................
.............................. CYCLE   19 ..............................
........................................................................

 iter      E             dE          RMSdq      gap      omega  full diag
   1    -69.6490033 -0.696490E+02  0.130E-01    2.42       0.0  T
   2    -69.6490048 -0.148972E-05  0.765E-02    2.42       1.0  T
   3    -69.6490019  0.292024E-05  0.937E-03    2.42       1.6  T
   4    -69.6490055 -0.360614E-05  0.201E-03    2.42       7.3  T
   5    -69.6490055 -0.273155E-07  0.125E-03    2.42      11.8  T
   6    -69.6490055 -0.251834E-07  0.543E-04    2.42      27.2  T
   7    -69.6490055 -0.584258E-08  0.208E-04    2.42      71.0  T
     SCC iter.                  ...        0 min,  0.023 sec
     gradient                   ...        0 min,  0.007 sec
 * total energy  :   -68.4968378 Eh     change       -0.6887402E-04 Eh
   gradient norm :     0.0061445 Eh/α   predicted    -0.7038745E-04 (   2.20%)
   displ. norm   :     0.2510270 α      lambda       -0.1056930E-03
   maximum displ.:     0.1357085 α      in ANC's #5, #3, #6, ...

........................................................................
.............................. CYCLE   20 ..............................
........................................................................

 iter      E             dE          RMSdq      gap      omega  full diag
   1    -69.6512980 -0.696513E+02  0.847E-02    2.43       0.0  T
   2    -69.6512988 -0.849703E-06  0.504E-02    2.42       1.0  T
   3    -69.6512972  0.166512E-05  0.741E-03    2.43       2.0  T
   4    -69.6512991 -0.195259E-05  0.142E-03    2.43      10.4  T
   5    -69.6512992 -0.435071E-07  0.942E-04    2.43      15.7  T
   6    -69.6512992 -0.583164E-08  0.392E-04    2.43      37.6  T
     SCC iter.                  ...        0 min,  0.031 sec
     gradient                   ...        0 min,  0.008 sec
 * total energy  :   -68.4969114 Eh     change       -0.7358656E-04 Eh
   gradient norm :     0.0036657 Eh/α   predicted    -0.5617754E-04 ( -23.66%)
   displ. norm   :     0.3383046 α      lambda       -0.9033319E-04
   maximum displ.:     0.1846701 α      in ANC's #5, #6, #3, ...
 * RMSD in coord.:     0.8522714 α      energy gain  -0.3243984E-01 Eh

generating ANC from exact Hessian ...
Using Lindh-Hessian (1995)
 Shifting diagonal of input Hessian by   9.699109004798522E-003
 Lowest  eigenvalues of input Hessian
    0.000000    0.000000    0.000000    0.000000    0.000000    0.000000
    0.010000    0.010096    0.010223    0.010297    0.011129    0.011231
    0.011594    0.012402    0.013356    0.014639    0.014820    0.015335
 Highest eigenvalues
    1.990765    1.993508    2.000106    2.007755    2.170764    2.605130
 

........................................................................
.............................. CYCLE   21 ..............................
........................................................................

 iter      E             dE          RMSdq      gap      omega  full diag
   1    -69.6505835 -0.696506E+02  0.107E-01    2.43       0.0  T
   2    -69.6505845 -0.101420E-05  0.628E-02    2.43       1.0  T
   3    -69.6505833  0.122121E-05  0.658E-03    2.43       2.2  T
   4    -69.6505849 -0.158694E-05  0.132E-03    2.43      11.2  T
   5    -69.6505849 -0.278841E-07  0.891E-04    2.43      16.5  T
   6    -69.6505849 -0.573341E-08  0.363E-04    2.43      40.6  T
     SCC iter.                  ...        0 min,  0.034 sec
     gradient                   ...        0 min,  0.006 sec
 * total energy  :   -68.4969691 Eh     change       -0.5774214E-04 Eh
   gradient norm :     0.0041524 Eh/α   predicted     0.0000000E+00 (-100.00%)
   displ. norm   :     0.0374364 α      lambda       -0.4551424E-04
   maximum displ.:     0.0154148 α      in ANC's #7, #5, #2, ...

........................................................................
.............................. CYCLE   22 ..............................
........................................................................

 iter      E             dE          RMSdq      gap      omega  full diag
   1    -69.6520781 -0.696521E+02  0.194E-02    2.43       0.0  T
   2    -69.6520782 -0.969410E-07  0.116E-02    2.43       1.3  T
   3    -69.6520780  0.225920E-06  0.267E-03    2.43       5.5  T
   4    -69.6520783 -0.265203E-06  0.639E-04    2.43      23.1  T
   5    -69.6520783 -0.150922E-08  0.312E-04    2.43      47.2  T
     SCC iter.                  ...        0 min,  0.029 sec
     gradient                   ...        0 min,  0.006 sec
 * total energy  :   -68.4970035 Eh     change       -0.3434976E-04 Eh
   gradient norm :     0.0015291 Eh/α   predicted    -0.2325478E-04 ( -32.30%)
   displ. norm   :     0.1119053 α      lambda       -0.3924328E-04
   maximum displ.:     0.0506379 α      in ANC's #5, #7, #2, ...

........................................................................
.............................. CYCLE   23 ..............................
........................................................................

 iter      E             dE          RMSdq      gap      omega  full diag
   1    -69.6535296 -0.696535E+02  0.433E-02    2.43       0.0  T
   2    -69.6535299 -0.226722E-06  0.254E-02    2.43       1.0  T
   3    -69.6535292  0.637874E-06  0.433E-03    2.43       3.4  T
   4    -69.6535300 -0.757467E-06  0.103E-03    2.43      14.4  T
   5    -69.6535300 -0.140129E-08  0.511E-04    2.43      28.8  T
   6    -69.6535300 -0.816451E-08  0.185E-04    2.43      79.5  T
     SCC iter.                  ...        0 min,  0.034 sec
     gradient                   ...        0 min,  0.006 sec
 * total energy  :   -68.4970353 Eh     change       -0.3179988E-04 Eh
   gradient norm :     0.0027512 Eh/α   predicted    -0.1973121E-04 ( -37.95%)
   displ. norm   :     0.0544974 α      lambda       -0.1889955E-04
   maximum displ.:     0.0287721 α      in ANC's #5, #2, #3, ...

........................................................................
.............................. CYCLE   24 ..............................
........................................................................

 iter      E             dE          RMSdq      gap      omega  full diag
   1    -69.6531546 -0.696532E+02  0.157E-02    2.43       0.0  T
   2    -69.6531546 -0.314606E-07  0.919E-03    2.43       1.6  T
   3    -69.6531546  0.413455E-07  0.119E-03    2.43      12.4  T
   4    -69.6531546 -0.523355E-07  0.266E-04    2.43      55.4  T
   5    -69.6531547 -0.861291E-09  0.129E-04    2.43     114.0  T
     SCC iter.                  ...        0 min,  0.018 sec
     gradient                   ...        0 min,  0.006 sec
 * total energy  :   -68.4970529 Eh     change       -0.1759752E-04 Eh
   gradient norm :     0.0023598 Eh/α   predicted    -0.9580549E-05 ( -45.56%)
   displ. norm   :     0.2016688 α      lambda       -0.6674956E-04
   maximum displ.:     0.1048777 α      in ANC's #5, #2, #3, ...

........................................................................
.............................. CYCLE   25 ..............................
........................................................................

 iter      E             dE          RMSdq      gap      omega  full diag
   1    -69.6517141 -0.696517E+02  0.555E-02    2.44       0.0  T
   2    -69.6517145 -0.479670E-06  0.327E-02    2.44       1.0  T
   3    -69.6517138  0.779455E-06  0.517E-03    2.44       2.9  T
   4    -69.6517147 -0.939423E-06  0.100E-03    2.44      14.7  T
   5    -69.6517147 -0.225527E-07  0.491E-04    2.44      30.0  T
   6    -69.6517147 -0.113188E-08  0.218E-04    2.44      67.7  T
     SCC iter.                  ...        0 min,  0.033 sec
     gradient                   ...        0 min,  0.008 sec
 * total energy  :   -68.4971027 Eh     change       -0.4983685E-04 Eh
   gradient norm :     0.0014125 Eh/α   predicted    -0.3473747E-04 ( -30.30%)
   displ. norm   :     0.3104195 α      lambda       -0.4281552E-04
   maximum displ.:     0.1653111 α      in ANC's #5, #2, #3, ...

........................................................................
.............................. CYCLE   26 ..............................
........................................................................

 iter      E             dE          RMSdq      gap      omega  full diag
   1    -69.6500550 -0.696501E+02  0.840E-02    2.44       0.0  T
   2    -69.6500560 -0.954889E-06  0.496E-02    2.44       1.0  T
   3    -69.6500543  0.172440E-05  0.768E-03    2.44       1.9  T
   4    -69.6500563 -0.206832E-05  0.142E-03    2.44      10.4  T
   5    -69.6500564 -0.535235E-07  0.721E-04    2.44      20.5  T
   6    -69.6500564 -0.185675E-08  0.300E-04    2.44      49.2  T
     SCC iter.                  ...        0 min,  0.022 sec
     gradient                   ...        0 min,  0.008 sec
 * total energy  :   -68.4971405 Eh     change       -0.3783126E-04 Eh
   gradient norm :     0.0030454 Eh/α   predicted    -0.2232519E-04 ( -40.99%)
   displ. norm   :     0.0867905 α      lambda       -0.2519765E-04
   maximum displ.:     0.0472946 α      in ANC's #5, #2, #3, ...

........................................................................
.............................. CYCLE   27 ..............................
........................................................................

 iter      E             dE          RMSdq      gap      omega  full diag
   1    -69.6509267 -0.696509E+02  0.236E-02    2.44       0.0  T
   2    -69.6509268 -0.590608E-07  0.140E-02    2.44       1.1  T
   3    -69.6509266  0.213482E-06  0.243E-03    2.44       6.1  T
   4    -69.6509268 -0.248810E-06  0.369E-04    2.44      40.0  T
   5    -69.6509268 -0.169267E-08  0.222E-04    2.44      66.5  T
     SCC iter.                  ...        0 min,  0.018 sec
     gradient                   ...        0 min,  0.006 sec
 * total energy  :   -68.4971632 Eh     change       -0.2270550E-04 Eh
   gradient norm :     0.0024189 Eh/α   predicted    -0.1269396E-04 ( -44.09%)
   displ. norm   :     0.2531328 α      lambda       -0.7269057E-04
   maximum displ.:     0.1377761 α      in ANC's #5, #2, #3, ...

........................................................................
.............................. CYCLE   28 ..............................
........................................................................

 iter      E             dE          RMSdq      gap      omega  full diag
   1    -69.6528223 -0.696528E+02  0.682E-02    2.44       0.0  T
   2    -69.6528227 -0.408262E-06  0.403E-02    2.44       1.0  T
   3    -69.6528208  0.188309E-05  0.694E-03    2.44       2.1  T
   4    -69.6528230 -0.219519E-05  0.104E-03    2.44      14.1  T
   5    -69.6528230 -0.410310E-08  0.565E-04    2.44      26.1  T
   6    -69.6528230 -0.276140E-08  0.228E-04    2.44      64.7  T
     SCC iter.                  ...        0 min,  0.020 sec
     gradient                   ...        0 min,  0.006 sec
 * total energy  :   -68.4972151 Eh     change       -0.5189879E-04 Eh
   gradient norm :     0.0009653 Eh/α   predicted    -0.3869237E-04 ( -25.45%)
   displ. norm   :     0.3521137 α      lambda       -0.3378848E-04
   maximum displ.:     0.1957758 α      in ANC's #5, #2, #3, ...

........................................................................
.............................. CYCLE   29 ..............................
........................................................................

 iter      E             dE          RMSdq      gap      omega  full diag
   1    -69.6527394 -0.696527E+02  0.925E-02    2.45       0.0  T
   2    -69.6527400 -0.664309E-06  0.545E-02    2.44       1.0  T
   3    -69.6527376  0.246446E-05  0.797E-03    2.45       1.8  T
   4    -69.6527405 -0.293707E-05  0.120E-03    2.44      12.3  T
   5    -69.6527405 -0.157380E-08  0.632E-04    2.44      23.3  T
   6    -69.6527405 -0.645893E-08  0.266E-04    2.44      55.5  T
     SCC iter.                  ...        0 min,  0.020 sec
     gradient                   ...        0 min,  0.007 sec
 * total energy  :   -68.4972455 Eh     change       -0.3035146E-04 Eh
   gradient norm :     0.0019205 Eh/α   predicted    -0.1782529E-04 ( -41.27%)
   displ. norm   :     0.3478012 α      lambda        0.2404814E-04
   maximum displ.:     0.1932901 α      in ANC's #5, #2, #3, ...

........................................................................
.............................. CYCLE   30 ..............................
........................................................................

 iter      E             dE          RMSdq      gap      omega  full diag
   1    -69.6510530 -0.696511E+02  0.916E-02    2.45       0.0  T
   2    -69.6510538 -0.782359E-06  0.540E-02    2.45       1.0  T
   3    -69.6510515  0.224969E-05  0.772E-03    2.45       1.9  T
   4    -69.6510542 -0.269944E-05  0.120E-03    2.45      12.3  T
   5    -69.6510542 -0.984650E-08  0.652E-04    2.45      22.6  T
   6    -69.6510542 -0.325510E-08  0.298E-04    2.45      49.5  T
     SCC iter.                  ...        0 min,  0.023 sec
     gradient                   ...        0 min,  0.008 sec
 * total energy  :   -68.4972274 Eh     change        0.1805102E-04 Eh
   gradient norm :     0.0042480 Eh/α   predicted     0.1266723E-04 ( -29.83%)
   displ. norm   :     0.1129505 α      lambda       -0.4254884E-04
   maximum displ.:     0.0581312 α      in ANC's #5, #3, #2, ...

........................................................................
.............................. CYCLE   31 ..............................
........................................................................

 iter      E             dE          RMSdq      gap      omega  full diag
   1    -69.6526786 -0.696527E+02  0.319E-02    2.45       0.0  T
   2    -69.6526789 -0.217657E-06  0.188E-02    2.45       1.0  T
   3    -69.6526785  0.366601E-06  0.332E-03    2.45       4.4  T
   4    -69.6526789 -0.431466E-06  0.618E-04    2.45      23.9  T
   5    -69.6526789 -0.878617E-08  0.302E-04    2.45      48.8  T
     SCC iter.                  ...        0 min,  0.034 sec
     gradient                   ...        0 min,  0.009 sec
 * total energy  :   -68.4972579 Eh     change       -0.3046744E-04 Eh
   gradient norm :     0.0020949 Eh/α   predicted    -0.2154927E-04 ( -29.27%)
   displ. norm   :     0.0547403 α      lambda       -0.2707275E-04
   maximum displ.:     0.0202836 α      in ANC's #7, #3, #14, ...

........................................................................
.............................. CYCLE   32 ..............................
........................................................................

 iter      E             dE          RMSdq      gap      omega  full diag
   1    -69.6534475 -0.696534E+02  0.209E-02    2.45       0.0  T
   2    -69.6534476 -0.940783E-07  0.123E-02    2.45       1.2  T
   3    -69.6534473  0.293394E-06  0.280E-03    2.45       5.3  T
   4    -69.6534476 -0.337119E-06  0.507E-04    2.45      29.1  T
   5    -69.6534476 -0.475903E-08  0.244E-04    2.45      60.5  T
     SCC iter.                  ...        0 min,  0.017 sec
     gradient                   ...        0 min,  0.007 sec
 * total energy  :   -68.4972762 Eh     change       -0.1830201E-04 Eh
   gradient norm :     0.0007696 Eh/α   predicted    -0.1358678E-04 ( -25.76%)
   displ. norm   :     0.0817768 α      lambda       -0.1267836E-04
   maximum displ.:     0.0477164 α      in ANC's #2, #5, #7, ...

........................................................................
.............................. CYCLE   33 ..............................
........................................................................

 iter      E             dE          RMSdq      gap      omega  full diag
   1    -69.6536513 -0.696537E+02  0.274E-02    2.45       0.0  T
   2    -69.6536514 -0.110588E-06  0.160E-02    2.45       1.0  T
   3    -69.6536511  0.309004E-06  0.277E-03    2.45       5.3  T
   4    -69.6536514 -0.364291E-06  0.509E-04    2.45      29.0  T
   5    -69.6536514 -0.421798E-08  0.260E-04    2.45      56.6  T
     SCC iter.                  ...        0 min,  0.015 sec
     gradient                   ...        0 min,  0.007 sec
 * total energy  :   -68.4972884 Eh     change       -0.1224357E-04 Eh
   gradient norm :     0.0014246 Eh/α   predicted    -0.6359525E-05 ( -48.06%)
   displ. norm   :     0.0914860 α      lambda       -0.8086555E-05
   maximum displ.:     0.0563919 α      in ANC's #2, #5, #7, ...

........................................................................
.............................. CYCLE   34 ..............................
........................................................................

 iter      E             dE          RMSdq      gap      omega  full diag
   1    -69.6531519 -0.696532E+02  0.269E-02    2.45       0.0  T
   2    -69.6531520 -0.857450E-07  0.157E-02    2.45       1.0  T
   3    -69.6531518  0.137874E-06  0.183E-03    2.45       8.1  T
   4    -69.6531520 -0.173163E-06  0.327E-04    2.45      45.1  T
   5    -69.6531520 -0.131185E-08  0.167E-04    2.45      88.2  T
     SCC iter.                  ...        0 min,  0.015 sec
     gradient                   ...        0 min,  0.007 sec
 * total energy  :   -68.4972989 Eh     change       -0.1042030E-04 Eh
   gradient norm :     0.0010019 Eh/α   predicted    -0.4061074E-05 ( -61.03%)
   displ. norm   :     0.1167012 α      lambda       -0.9538237E-05
   maximum displ.:     0.0726720 α      in ANC's #2, #5, #7, ...

........................................................................
.............................. CYCLE   35 ..............................
........................................................................

 iter      E             dE          RMSdq      gap      omega  full diag
   1    -69.6526361 -0.696526E+02  0.355E-02    2.45       0.0  T
   2    -69.6526362 -0.135377E-06  0.208E-02    2.45       1.0  T
   3    -69.6526360  0.224018E-06  0.232E-03    2.45       6.3  T
   4    -69.6526363 -0.282370E-06  0.433E-04    2.45      34.0  T
   5    -69.6526363 -0.167493E-08  0.225E-04    2.45      65.5  T
     SCC iter.                  ...        0 min,  0.015 sec
     gradient                   ...        0 min,  0.008 sec
 * total energy  :   -68.4973104 Eh     change       -0.1149859E-04 Eh
   gradient norm :     0.0004714 Eh/α   predicted    -0.4801442E-05 ( -58.24%)
   displ. norm   :     0.1196925 α      lambda       -0.7509996E-05
   maximum displ.:     0.0760524 α      in ANC's #2, #5, #7, ...

........................................................................
.............................. CYCLE   36 ..............................
........................................................................

 iter      E             dE          RMSdq      gap      omega  full diag
   1    -69.6523010 -0.696523E+02  0.367E-02    2.45       0.0  T
   2    -69.6523012 -0.130902E-06  0.215E-02    2.45       1.0  T
   3    -69.6523009  0.243281E-06  0.241E-03    2.45       6.1  T
   4    -69.6523012 -0.305730E-06  0.412E-04    2.45      35.8  T
   5    -69.6523012 -0.108408E-08  0.231E-04    2.45      63.8  T
     SCC iter.                  ...        0 min,  0.015 sec
     gradient                   ...        0 min,  0.006 sec
 * total energy  :   -68.4973192 Eh     change       -0.8871245E-05 Eh
   gradient norm :     0.0006146 Eh/α   predicted    -0.3781307E-05 ( -57.38%)
   displ. norm   :     0.1092463 α      lambda       -0.6178468E-05
   maximum displ.:     0.0705318 α      in ANC's #5, #2, #7, ...

........................................................................
.............................. CYCLE   37 ..............................
........................................................................

 iter      E             dE          RMSdq      gap      omega  full diag
   1    -69.6521933 -0.696522E+02  0.340E-02    2.45       0.0  T
   2    -69.6521934 -0.962155E-07  0.199E-02    2.45       1.0  T
   3    -69.6521932  0.185151E-06  0.212E-03    2.45       7.0  T
   4    -69.6521935 -0.236086E-06  0.393E-04    2.45      37.5  T
   5    -69.6521935 -0.619053E-09  0.210E-04    2.45      70.3  T
     SCC iter.                  ...        0 min,  0.015 sec
     gradient                   ...        0 min,  0.008 sec
 * total energy  :   -68.4973268 Eh     change       -0.7540285E-05 Eh
   gradient norm :     0.0007279 Eh/α   predicted    -0.3108090E-05 ( -58.78%)
   displ. norm   :     0.1344461 α      lambda       -0.7821466E-05
   maximum displ.:     0.0889586 α      in ANC's #5, #2, #7, ...

........................................................................
.............................. CYCLE   38 ..............................
........................................................................

 iter      E             dE          RMSdq      gap      omega  full diag
   1    -69.6522719 -0.696523E+02  0.415E-02    2.45       0.0  T
   2    -69.6522721 -0.128454E-06  0.244E-02    2.45       1.0  T
   3    -69.6522718  0.248327E-06  0.252E-03    2.45       5.9  T
   4    -69.6522721 -0.316317E-06  0.445E-04    2.45      33.1  T
   5    -69.6522721 -0.102881E-08  0.273E-04    2.45      54.0  T
     SCC iter.                  ...        0 min,  0.015 sec
     gradient                   ...        0 min,  0.006 sec
 * total energy  :   -68.4973362 Eh     change       -0.9439143E-05 Eh
   gradient norm :     0.0007445 Eh/α   predicted    -0.3943466E-05 ( -58.22%)
   displ. norm   :     0.1808773 α      lambda       -0.1021384E-04
   maximum displ.:     0.1236987 α      in ANC's #5, #2, #14, ...

........................................................................
.............................. CYCLE   39 ..............................
........................................................................

 iter      E             dE          RMSdq      gap      omega  full diag
   1    -69.6523224 -0.696523E+02  0.559E-02    2.45       0.0  T
   2    -69.6523227 -0.229304E-06  0.328E-02    2.45       1.0  T
   3    -69.6523223  0.362514E-06  0.315E-03    2.45       4.7  T
   4    -69.6523228 -0.476772E-06  0.646E-04    2.45      22.8  T
   5    -69.6523228 -0.435419E-08  0.372E-04    2.45      39.6  T
     SCC iter.                  ...        0 min,  0.015 sec
     gradient                   ...        0 min,  0.007 sec
 * total energy  :   -68.4973481 Eh     change       -0.1188606E-04 Eh
   gradient norm :     0.0007135 Eh/α   predicted    -0.5182106E-05 ( -56.40%)
   displ. norm   :     0.1680100 α      lambda       -0.9309088E-05
   maximum displ.:     0.1178752 α      in ANC's #5, #2, #14, ...

........................................................................
.............................. CYCLE   40 ..............................
........................................................................

 iter      E             dE          RMSdq      gap      omega  full diag
   1    -69.6525689 -0.696526E+02  0.523E-02    2.45       0.0  T
   2    -69.6525691 -0.196098E-06  0.307E-02    2.45       1.0  T
   3    -69.6525689  0.184213E-06  0.249E-03    2.45       5.9  T
   4    -69.6525691 -0.265953E-06  0.605E-04    2.45      24.4  T
   5    -69.6525691 -0.587434E-08  0.335E-04    2.45      44.0  T
     SCC iter.                  ...        0 min,  0.015 sec
     gradient                   ...        0 min,  0.007 sec
 * total energy  :   -68.4973593 Eh     change       -0.1115712E-04 Eh
   gradient norm :     0.0006060 Eh/α   predicted    -0.4714836E-05 ( -57.74%)
   displ. norm   :     0.1846440 α      lambda       -0.9864614E-05
   maximum displ.:     0.1319947 α      in ANC's #5, #2, #3, ...

........................................................................
.............................. CYCLE   41 ..............................
........................................................................

 iter      E             dE          RMSdq      gap      omega  full diag
   1    -69.6529581 -0.696530E+02  0.575E-02    2.45       0.0  T
   2    -69.6529583 -0.222294E-06  0.337E-02    2.45       1.0  T
   3    -69.6529582  0.176309E-06  0.264E-03    2.45       5.6  T
   4    -69.6529584 -0.271561E-06  0.674E-04    2.45      21.9  T
   5    -69.6529584 -0.624311E-08  0.349E-04    2.45      42.3  T
     SCC iter.                  ...        0 min,  0.015 sec
     gradient                   ...        0 min,  0.007 sec
 * total energy  :   -68.4973706 Eh     change       -0.1135983E-04 Eh
   gradient norm :     0.0006186 Eh/α   predicted    -0.5010759E-05 ( -55.89%)
   displ. norm   :     0.1660697 α      lambda       -0.8401019E-05
   maximum displ.:     0.1212460 α      in ANC's #5, #2, #3, ...

........................................................................
.............................. CYCLE   42 ..............................
........................................................................

 iter      E             dE          RMSdq      gap      omega  full diag
   1    -69.6531653 -0.696532E+02  0.519E-02    2.45       0.0  T
   2    -69.6531655 -0.199327E-06  0.305E-02    2.45       1.0  T
   3    -69.6531653  0.136707E-06  0.223E-03    2.45       6.6  T
   4    -69.6531655 -0.215330E-06  0.588E-04    2.45      25.1  T
   5    -69.6531655 -0.464973E-08  0.312E-04    2.45      47.2  T
     SCC iter.                  ...        0 min,  0.016 sec
     gradient                   ...        0 min,  0.008 sec
 * total energy  :   -68.4973801 Eh     change       -0.9441872E-05 Eh
   gradient norm :     0.0005714 Eh/α   predicted    -0.4256434E-05 ( -54.92%)
   displ. norm   :     0.1172963 α      lambda       -0.5506905E-05
   maximum displ.:     0.0869494 α      in ANC's #5, #2, #3, ...
 * RMSD in coord.:     0.3917272 α      energy gain  -0.4686896E-03 Eh

generating ANC from exact Hessian ...
Using Lindh-Hessian (1995)
 Shifting diagonal of input Hessian by   9.704580327910970E-003
 Lowest  eigenvalues of input Hessian
    0.000000    0.000000    0.000000    0.000000    0.000000    0.000000
    0.010000    0.010121    0.010197    0.010306    0.011123    0.011236
    0.011643    0.012410    0.013500    0.014627    0.014862    0.015184
 Highest eigenvalues
    1.994339    1.996798    2.002604    2.010458    2.172448    2.604668
 

........................................................................
.............................. CYCLE   43 ..............................
........................................................................

 iter      E             dE          RMSdq      gap      omega  full diag
   1    -69.6533243 -0.696533E+02  0.367E-02    2.45       0.0  T
   2    -69.6533244 -0.935622E-07  0.216E-02    2.45       1.0  T
   3    -69.6533243  0.908291E-07  0.176E-03    2.45       8.4  T
   4    -69.6533244 -0.131319E-06  0.396E-04    2.45      37.2  T
   5    -69.6533244 -0.187546E-08  0.214E-04    2.45      68.9  T
     SCC iter.                  ...        0 min,  0.032 sec
     gradient                   ...        0 min,  0.008 sec
 * total energy  :   -68.4973860 Eh     change       -0.5971385E-05 Eh
   gradient norm :     0.0005173 Eh/α   predicted     0.0000000E+00 (-100.00%)
   displ. norm   :     0.0137709 α      lambda       -0.2534329E-06
   maximum displ.:     0.0083101 α      in ANC's #5, #8, #11, ...

........................................................................
.............................. CYCLE   44 ..............................
........................................................................

 iter      E             dE          RMSdq      gap      omega  full diag
   1    -69.6531731 -0.696532E+02  0.474E-03    2.45       0.0  T
   2    -69.6531731 -0.725692E-08  0.281E-03    2.45       5.3  T
   3    -69.6531731  0.723151E-08  0.477E-04    2.45      30.9  T
   4    -69.6531731 -0.874276E-08  0.122E-04    2.45     120.7  T
     SCC iter.                  ...        0 min,  0.012 sec
     gradient                   ...        0 min,  0.007 sec
 * total energy  :   -68.4973877 Eh     change       -0.1702320E-05 Eh
   gradient norm :     0.0002144 Eh/α   predicted    -0.7882144E-06 ( -53.70%)
   displ. norm   :     0.0351861 α      lambda       -0.2439506E-05
   maximum displ.:     0.0209940 α      in ANC's #5, #8, #11, ...

   *** GEOMETRY OPTIMIZATION CONVERGED AFTER 44 ITERATIONS ***

------------------------------------------------------------------------
 total energy gain   :        -0.0329162 Eh      -20.6552 kcal/mol
 total RMSD          :         1.0942011 a0        0.5790 Å
 total power (kW/mol):        -1.9641243 (step)  -55.3057 (real)
------------------------------------------------------------------------

 ANCopt (total)                0 d,  0 h,  0 min,  1.563 sec
 optimizer setup                ...        0 min,  0.000 sec (  0.009%)
 model hessian                  ...        0 min,  0.058 sec (  3.681%)
 ANC generation                 ...        0 min,  0.007 sec (  0.439%)
 coordinate transformation      ...        0 min,  0.001 sec (  0.065%)
 single point calculation       ...        0 min,  1.405 sec ( 89.939%)
 optimization log               ...        0 min,  0.042 sec (  2.718%)
 hessian update                 ...        0 min,  0.035 sec (  2.226%)
 rational function              ...        0 min,  0.007 sec (  0.463%)

================
 final structure:
================
46
 xtb: 6.7.1 (edcfbbe)
C            1.37892348816743        1.81503557050920        2.13081737096956
C            2.22369825223823        0.88289712004741        1.31593193870511
C            1.65089186297774       -0.25509924107350        0.74895833584640
C            0.21150196553785       -0.51880591196268        0.92056112089573
P           -0.73547692809767        0.08457158103120       -0.59136116835009
C           -1.86019336863928        1.32688522210810        0.12896713817390
C           -1.97301169161200        2.52266509233319       -0.56753311221761
C           -2.80462310231874        3.52155840053312       -0.09460220338044
C           -3.51864933287893        3.32603306632751        1.07635742035518
C           -3.39783957954618        2.13518463583453        1.77555690088954
C           -2.57084237182071        1.13106741620089        1.30585954597060
C           -1.81103892139254       -1.29665250685968       -1.09618062075943
C           -1.91054634378674       -1.52592190519863       -2.46198126772517
C           -2.71388736360951       -2.54830541477663       -2.93283415066398
C           -3.41355563624244       -3.34156491111283       -2.03795981972064
C           -3.30444659052621       -3.11752330156775       -0.67442188245576
C           -2.50451738382631       -2.09514038119948       -0.19685021616761
O            0.11170608672861        0.61774601501136       -1.66391590947471
O           -0.33638589465434       -0.99552782495446        1.87911086965234
C            2.39918095594422       -1.11523325507417       -0.05576138972984
C            1.73950526060418       -2.31944286239686       -0.65254536620094
C            3.73969368882655       -0.83636570172673       -0.25986750627825
C            4.33737156567882        0.28449848016488        0.30216106886560
C            5.79302578044328        0.55740560154189        0.07563999957466
C            3.56679056215296        1.13368604596147        1.08380631840415
H            0.93594166455618        1.29038916696402        2.97682703190289
H            0.56442763053399        2.21167724528726        1.52125946077535
H            1.96972168627658        2.64719850488769        2.50512478642709
H           -1.39510950823232        2.65313375638489       -1.47128338112508
H           -2.89400079184585        4.45193529597131       -0.63597641159923
H           -4.16713802901082        4.10516881219080        1.44936273143349
H           -3.94961527495351        1.98957183130907        2.69271901505111
H           -2.46329012097999        0.21212689230338        1.86085588809693
H           -1.34710092616446       -0.89712694985140       -3.13689415833883
H           -2.79426912238522       -2.72743263283454       -3.99495044962714
H           -4.04212771268537       -4.14045836628807       -2.40317039386164
H           -3.84483909427460       -3.74397521811972        0.02010261319205
H           -2.40508231859667       -1.93158319799077        0.86478048543481
H            0.86921661391686       -2.01365361389781       -1.23767134087973
H            2.42448851252894       -2.85699812215606       -1.30346984180770
H            1.39511742379247       -2.99687057369674        0.12965181953984
H            4.32897934724536       -1.49941167923785       -0.87715862104204
H            6.03324349760713        1.59541890794551        0.29076661316797
H            6.39581317750684       -0.07473061692422        0.72841973111877
H            6.07039216621881        0.33609339392293       -0.95264909859833
H            4.01795721860127        2.01587713412982        1.51544110555169
 
 Bond Distances (Angstroems)
 ---------------------------
C1-C2=1.4989         C1-H26=1.0896        C1-H27=1.0919        C1-H28=1.0870        C2-C1=1.4989         C2-C3=1.3945         
C2-C25=1.3859        C3-C2=1.3945         C3-C4=1.4734         C3-C20=1.3955        C4-C3=1.4734         C4-P5=1.8833         
C4-O19=1.2026        P5-C4=1.8833         P5-C6=1.8241         P5-C12=1.8219        P5-O18=1.4671        C6-P5=1.8241         
C6-C7=1.3884         C6-C11=1.3887        C7-C6=1.3884         C7-C8=1.3831         C7-H29=1.0806        C8-C7=1.3831         
C8-C9=1.3854         C8-H30=1.0801        C9-C8=1.3854         C9-C10=1.3862        C9-H31=1.0801        C10-C9=1.3862        
C10-C11=1.3830       C10-H32=1.0802       C11-C6=1.3887        C11-C10=1.3830       C11-H33=1.0789       C12-P5=1.8219        
C12-C13=1.3885       C12-C17=1.3883       C13-C12=1.3885       C13-C14=1.3829       C13-H34=1.0809       C14-C13=1.3829       
C14-C15=1.3855       C14-H35=1.0801       C15-C14=1.3855       C15-C16=1.3861       C15-H36=1.0801       C16-C15=1.3861       
C16-C17=1.3832       C16-H37=1.0802       C17-C12=1.3883       C17-C16=1.3832       C17-H38=1.0787       O18-P5=1.4671        
O19-C4=1.2026        C20-C3=1.3955        C20-C21=1.4971       C20-C22=1.3843       C21-C20=1.4971       C21-H39=1.0924       
C21-H40=1.0871       C21-H41=1.0906       C22-C20=1.3843       C22-C23=1.3890       C22-H42=1.0807       C23-C22=1.3890       
C23-C24=1.4982       C23-C25=1.3878       C24-C23=1.4982       C24-H43=1.0869       C24-H44=1.0904       C24-H45=1.0878       
C25-C2=1.3859        C25-C23=1.3878       C25-H46=1.0808       H26-C1=1.0896        H27-C1=1.0919        H28-C1=1.0870        
H29-C7=1.0806        H30-C8=1.0801        H31-C9=1.0801        H32-C10=1.0802       H33-C11=1.0789       H34-C13=1.0809       
H35-C14=1.0801       H36-C15=1.0801       H37-C16=1.0802       H38-C17=1.0787       H39-C21=1.0924       H40-C21=1.0871       
H41-C21=1.0906       H42-C22=1.0807       H43-C24=1.0869       H44-C24=1.0904       H45-C24=1.0878       H46-C25=1.0808       
 C  H  Rav=1.0841 sigma=0.0048  Rmin=1.0787  Rmax=1.0924    21
 C  C  Rav=1.4061 sigma=0.0408  Rmin=1.3829  Rmax=1.4989    22
 O  C  Rav=1.2026 sigma=0.0000  Rmin=1.2026  Rmax=1.2026     1
 P  C  Rav=1.8431 sigma=0.0284  Rmin=1.8219  Rmax=1.8833     3
 P  O  Rav=1.4671 sigma=0.0000  Rmin=1.4671  Rmax=1.4671     1
 
 selected bond angles (degree)
 --------------------
H26-C1-C2=110.60               H27-C1-C2=110.05               H27-C1-H26=107.76              H28-C1-C2=110.91               
H28-C1-H26=108.80              H28-C1-H27=108.64              C3-C2-C1=119.80                C25-C2-C1=121.65               
C25-C2-C3=118.53               C4-C3-C2=120.00                C20-C3-C2=121.14               C20-C3-C4=118.73               
P5-C4-C3=109.90                O19-C4-C3=127.51               O19-C4-P5=122.53               C6-P5-C4=102.19                
C12-P5-C4=106.05               C12-P5-C6=105.17               O18-P5-C4=114.39               O18-P5-C6=113.41               
O18-P5-C12=114.45              C7-C6-P5=116.01                C11-C6-P5=123.65               C11-C6-C7=120.33               
C8-C7-C6=119.96                H29-C7-C6=118.69               H29-C7-C8=121.35               C9-C8-C7=119.80                
H30-C8-C7=120.03               H30-C8-C9=120.17               C10-C9-C8=120.18               H31-C9-C8=119.97               
H31-C9-C10=119.85              C11-C10-C9=120.30              H32-C10-C9=119.97              H32-C10-C11=119.73             
 
 selected dihedral angles (degree)
 ---------------------------------
C3-C2-C1-H26= 58.94           C3-C2-C1-H27=299.98           C3-C2-C1-H28=179.74           C25-C2-C1-H26=237.63          
C25-C2-C1-H27=118.68          C25-C2-C1-H28=358.44          C4-C3-C2-C1=  1.69            C4-C3-C2-C25=182.95           
C20-C3-C2-C1=177.58           C20-C3-C2-C25=358.84          P5-C4-C3-C2= 97.15            P5-C4-C3-C20=281.15           
O19-C4-C3-C2=279.88           O19-C4-C3-C20=103.88          C6-P5-C4-C3=240.36            C6-P5-C4-O19= 57.79           
C12-P5-C4-C3=130.43           C12-P5-C4-O19=307.86          O18-P5-C4-C3=  3.33           O18-P5-C4-O19=180.76          
C7-C6-P5-C4=135.53            C7-C6-P5-C12=246.12           C7-C6-P5-O18= 11.89           C11-C6-P5-C4=316.00           
C11-C6-P5-C12= 66.59          C11-C6-P5-O18=192.36          C8-C7-C6-P5=179.95            C8-C7-C6-C11=359.50           
H29-C7-C6-P5=359.42           H29-C7-C6-C11=178.97          C9-C8-C7-C6=  0.24            C9-C8-C7-H29=180.78           
H30-C8-C7-C6=180.06           H30-C8-C7-H29=  0.60          C10-C9-C8-C7=  0.21           C10-C9-C8-H30=180.39          
H31-C9-C8-C7=179.86           H31-C9-C8-H30=  0.04          C11-C10-C9-C8=359.60          C11-C10-C9-H31=179.96         
H32-C10-C9-C8=179.47          H32-C10-C9-H31=359.83         
           -------------------------------------------------
          |                Final Singlepoint                |
           -------------------------------------------------

          ...................................................
          :                      SETUP                      :
          :.................................................:
          :  # basis functions                 127          :
          :  # atomic orbitals                 126          :
          :  # shells                           72          :
          :  # electrons                       126          :
          :  max. iterations                   250          :
          :  Hamiltonian                  GFN2-xTB          :
          :  restarted?                      false          :
          :  GBSA solvation                  false          :
          :  PC potential                    false          :
          :  electronic temp.          300.0000000     K    :
          :  accuracy                    1.0000000          :
          :  -> integral cutoff          0.2500000E+02      :
          :  -> integral neglect         0.1000000E-07      :
          :  -> SCF convergence          0.1000000E-05 Eh   :
          :  -> wf. convergence          0.1000000E-03 e    :
          :  Broyden damping             0.4000000          :
          :  net charge                          0          :
          :  unpaired electrons                  0          :
          ...................................................

 iter      E             dE          RMSdq      gap      omega  full diag
   1    -69.6531731 -0.696532E+02  0.579E-05    2.45       0.0  T
   2    -69.6531731 -0.117666E-10  0.340E-05    2.45     434.0  T
   3    -69.6531731 -0.876810E-11  0.229E-05    2.45     643.2  T

   *** convergence criteria satisfied after 3 iterations ***

         #    Occupation            Energy/Eh            Energy/eV
      -------------------------------------------------------------
         1        2.0000           -0.7264456             -19.7676
       ...           ...                  ...                  ...
        57        2.0000           -0.4169342             -11.3454
        58        2.0000           -0.4164243             -11.3315
        59        2.0000           -0.4156004             -11.3091
        60        2.0000           -0.4039923             -10.9932
        61        2.0000           -0.3930176             -10.6946
        62        2.0000           -0.3925895             -10.6829
        63        2.0000           -0.3737249             -10.1696 (HOMO)
        64                         -0.2836333              -7.7181 (LUMO)
        65                         -0.2557109              -6.9582
        66                         -0.2358465              -6.4177
        67                         -0.2352467              -6.4014
        68                         -0.2335122              -6.3542
       ...                                ...                  ...
       126                          1.2312291              33.5034
      -------------------------------------------------------------
                  HL-Gap            0.0900916 Eh            2.4515 eV
             Fermi-level           -0.3286791 Eh           -8.9438 eV

 SCC (total)                   0 d,  0 h,  0 min,  0.019 sec
 SCC setup                      ...        0 min,  0.001 sec (  4.784%)
 Dispersion                     ...        0 min,  0.000 sec (  1.313%)
 classical contributions        ...        0 min,  0.000 sec (  0.923%)
 integral evaluation            ...        0 min,  0.002 sec ( 11.588%)
 iterations                     ...        0 min,  0.009 sec ( 50.073%)
 molecular gradient             ...        0 min,  0.005 sec ( 28.387%)
 printout                       ...        0 min,  0.001 sec (  2.786%)

         :::::::::::::::::::::::::::::::::::::::::::::::::::::
         ::                     SUMMARY                     ::
         :::::::::::::::::::::::::::::::::::::::::::::::::::::
         :: total energy             -68.497387737718 Eh    ::
         :: gradient norm              0.000214557307 Eh/a0 ::
         :: HOMO-LUMO gap              2.451516065056 eV    ::
         ::.................................................::
         :: SCC energy               -69.652169167028 Eh    ::
         :: -> isotropic ES            0.054933053817 Eh    ::
         :: -> anisotropic ES          0.004641951925 Eh    ::
         :: -> anisotropic XC          0.037474794912 Eh    ::
         :: -> dispersion             -0.058278091589 Eh    ::
         :: repulsion energy           1.154781429309 Eh    ::
         :: add. restraining           0.000000000000 Eh    ::
         :: total charge               0.000000000000 e     ::
         :::::::::::::::::::::::::::::::::::::::::::::::::::::

           -------------------------------------------------
          |                Property Printout                |
           -------------------------------------------------

    * Orbital Energies and Occupations

         #    Occupation            Energy/Eh            Energy/eV
      -------------------------------------------------------------
         1        2.0000           -0.7264456             -19.7676
       ...           ...                  ...                  ...
        51        2.0000           -0.4460760             -12.1383
        52        2.0000           -0.4341980             -11.8151
        53        2.0000           -0.4321702             -11.7600
        54        2.0000           -0.4307517             -11.7214
        55        2.0000           -0.4255483             -11.5798
        56        2.0000           -0.4222680             -11.4905
        57        2.0000           -0.4169342             -11.3454
        58        2.0000           -0.4164243             -11.3315
        59        2.0000           -0.4156004             -11.3091
        60        2.0000           -0.4039923             -10.9932
        61        2.0000           -0.3930176             -10.6946
        62        2.0000           -0.3925895             -10.6829
        63        2.0000           -0.3737249             -10.1696 (HOMO)
        64                         -0.2836333              -7.7181 (LUMO)
        65                         -0.2557109              -6.9582
        66                         -0.2358465              -6.4177
        67                         -0.2352467              -6.4014
        68                         -0.2335122              -6.3542
        69                         -0.2216534              -6.0315
        70                         -0.2178666              -5.9285
        71                         -0.1284698              -3.4958
        72                         -0.1124392              -3.0596
        73                         -0.1041579              -2.8343
        74                         -0.0690714              -1.8795
       ...                                ...                  ...
       126                          1.2312291              33.5034
      -------------------------------------------------------------
                  HL-Gap            0.0900916 Eh            2.4515 eV
             Fermi-level           -0.3286791 Eh           -8.9438 eV

     #   Z          covCN         q      C6AA      α(0)
     1   6 C        3.757    -0.101    22.491     6.761
     2   6 C        2.966     0.024    27.474     8.598
     3   6 C        3.082    -0.025    28.545     8.759
     4   6 C        2.768     0.245    22.887     7.835
     5  15 P        4.039     0.051   157.956    22.576
     6   6 C        2.922     0.014    27.700     8.631
     7   6 C        3.035    -0.022    28.511     8.758
     8   6 C        2.919    -0.027    28.683     8.782
     9   6 C        2.920    -0.025    28.632     8.775
    10   6 C        2.920    -0.027    28.680     8.782
    11   6 C        2.968    -0.026    28.658     8.781
    12   6 C        2.922     0.015    27.676     8.627
    13   6 C        3.035    -0.022    28.529     8.761
    14   6 C        2.919    -0.027    28.680     8.782
    15   6 C        2.920    -0.025    28.630     8.775
    16   6 C        2.921    -0.027    28.673     8.781
    17   6 C        2.970    -0.026    28.652     8.780
    18   8 O        0.808    -0.359    20.907     6.129
    19   8 O        0.878    -0.329    20.303     6.042
    20   6 C        2.968     0.027    27.407     8.587
    21   6 C        3.758    -0.102    22.501     6.763
    22   6 C        2.930    -0.049    29.212     8.864
    23   6 C        2.964     0.021    27.529     8.606
    24   6 C        3.758    -0.110    22.660     6.787
    25   6 C        2.930    -0.050    29.229     8.866
    26   1 H        0.925     0.050     2.320     2.382
    27   1 H        0.924     0.043     2.416     2.431
    28   1 H        0.925     0.046     2.370     2.408
    29   1 H        0.926     0.063     2.170     2.303
    30   1 H        0.926     0.039     2.456     2.451
    31   1 H        0.926     0.038     2.477     2.461
    32   1 H        0.926     0.039     2.466     2.456
    33   1 H        0.926     0.058     2.220     2.330
    34   1 H        0.926     0.061     2.186     2.312
    35   1 H        0.926     0.040     2.454     2.450
    36   1 H        0.926     0.038     2.474     2.460
    37   1 H        0.926     0.039     2.461     2.453
    38   1 H        0.926     0.059     2.210     2.325
    39   1 H        0.924     0.059     2.215     2.328
    40   1 H        0.925     0.049     2.335     2.389
    41   1 H        0.924     0.044     2.397     2.421
    42   1 H        0.926     0.039     2.457     2.451
    43   1 H        0.925     0.045     2.384     2.414
    44   1 H        0.924     0.050     2.323     2.383
    45   1 H        0.925     0.049     2.339     2.391
    46   1 H        0.926     0.038     2.477     2.461

 Mol. C6AA /au·bohr⁶  :      28397.395780
 Mol. C8AA /au·bohr⁸  :     744385.778352
 Mol. α(0) /au        :        270.650478


Wiberg/Mayer (AO) data.
largest (>0.10) Wiberg bond orders for each atom

 ---------------------------------------------------------------------------
     #   Z sym  total        # sym  WBO       # sym  WBO       # sym  WBO
 ---------------------------------------------------------------------------
     1   6 C    3.996 --     2 C    1.025    28 H    0.985    26 H    0.972
                            27 H    0.965
     2   6 C    3.986 --    25 C    1.417     3 C    1.358     1 C    1.025
                            22 C    0.102
     3   6 C    3.981 --     2 C    1.358    20 C    1.352     4 C    0.996
                            23 C    0.100
     4   6 C    3.890 --    19 O    1.877     3 C    0.996     5 P    0.822
     5  15 P    5.242 --    18 O    2.096    12 C    0.943     6 C    0.943
                             4 C    0.822
     6   6 C    3.983 --    11 C    1.389     7 C    1.387     5 P    0.943
                             9 C    0.103
     7   6 C    3.988 --     8 C    1.442     6 C    1.387    29 H    0.956
                            10 C    0.108
     8   6 C    3.990 --     7 C    1.442     9 C    1.439    30 H    0.969
                            11 C    0.111
     9   6 C    3.981 --     8 C    1.439    10 C    1.432    31 H    0.971
                             6 C    0.103
    10   6 C    3.992 --    11 C    1.450     9 C    1.432    32 H    0.970
                             7 C    0.108
    11   6 C    3.989 --    10 C    1.450     6 C    1.389    33 H    0.959
                             8 C    0.111
    12   6 C    3.982 --    17 C    1.389    13 C    1.386     5 P    0.943
                            15 C    0.103
    13   6 C    3.988 --    14 C    1.443    12 C    1.386    34 H    0.956
                            16 C    0.109
    14   6 C    3.990 --    13 C    1.443    15 C    1.439    35 H    0.969
                            17 C    0.110
    15   6 C    3.980 --    14 C    1.439    16 C    1.433    36 H    0.971
                            12 C    0.103
    16   6 C    3.992 --    17 C    1.449    15 C    1.433    37 H    0.970
                            13 C    0.109
    17   6 C    3.989 --    16 C    1.449    12 C    1.389    38 H    0.959
                            14 C    0.110
    18   8 O    2.288 --     5 P    2.096
    19   8 O    2.125 --     4 C    1.877
    20   6 C    3.986 --    22 C    1.424     3 C    1.352    21 C    1.027
    21   6 C    3.995 --    20 C    1.027    40 H    0.984    41 H    0.971
                            39 H    0.948
    22   6 C    3.989 --    20 C    1.424    23 C    1.406    42 H    0.965
                             2 C    0.102
    23   6 C    3.986 --    25 C    1.411    22 C    1.406    24 C    1.026
                             3 C    0.100
    24   6 C    3.995 --    23 C    1.026    43 H    0.984    45 H    0.978
                            44 H    0.967
    25   6 C    3.989 --     2 C    1.417    23 C    1.411    46 H    0.964
    26   1 H    0.997 --     1 C    0.972
    27   1 H    0.998 --     1 C    0.965
    28   1 H    0.998 --     1 C    0.985
    29   1 H    0.996 --     7 C    0.956
    30   1 H    0.997 --     8 C    0.969
    31   1 H    0.998 --     9 C    0.971
    32   1 H    0.998 --    10 C    0.970
    33   1 H    0.997 --    11 C    0.959
    34   1 H    0.996 --    13 C    0.956
    35   1 H    0.997 --    14 C    0.969
    36   1 H    0.998 --    15 C    0.971
    37   1 H    0.998 --    16 C    0.970
    38   1 H    0.996 --    17 C    0.959
    39   1 H    0.996 --    21 C    0.948
    40   1 H    0.997 --    21 C    0.984
    41   1 H    0.998 --    21 C    0.971
    42   1 H    0.996 --    22 C    0.965
    43   1 H    0.998 --    24 C    0.984
    44   1 H    0.997 --    24 C    0.967
    45   1 H    0.997 --    24 C    0.978
    46   1 H    0.996 --    25 C    0.964
 ---------------------------------------------------------------------------

Topologies differ in total number of bonds
Writing topology from bond orders to xtbtopo.mol

molecular dipole:
                 x           y           z       tot (Debye)
 q only:       -0.168      -0.070       0.147
   full:       -0.382      -0.117       0.248       1.195
molecular quadrupole (traceless):
                xx          xy          yy          xz          yz          zz
 q only:       10.884       0.055       0.924       1.872       9.030     -11.809
  q+dip:        9.060       1.260       2.621      -0.913      10.526     -11.682
   full:        9.967      -0.488       2.850       2.451      10.742     -12.817

           -------------------------------------------------
          |                Geometry Summary                 |
           -------------------------------------------------

      molecular mass/u    :      348.3755174
   center of mass at/Å    :       -0.2227165      -0.0195040      -0.0468464
  moments of inertia/u·Å² :        0.1766856E+04   0.2906805E+04   0.3964898E+04
rotational constants/cm⁻¹ :        0.9541031E-02   0.5799368E-02   0.4251719E-02

 * 43 selected distances

     #   Z          #   Z                                           value/Å
     2   6 C        3   6 C                                       1.3944900
     5  15 P        6   6 C                                       1.8240624 (max)
     6   6 C        7   6 C                                       1.3884273
     7   6 C        8   6 C                                       1.3831231
     8   6 C        9   6 C                                       1.3853557
     9   6 C       10   6 C                                       1.3862162
     6   6 C       11   6 C                                       1.3886838
    10   6 C       11   6 C                                       1.3830371
     5  15 P       12   6 C                                       1.8219377
    12   6 C       13   6 C                                       1.3884804
    13   6 C       14   6 C                                       1.3828693
    14   6 C       15   6 C                                       1.3854951
    15   6 C       16   6 C                                       1.3861225
    12   6 C       17   6 C                                       1.3882690
    16   6 C       17   6 C                                       1.3831951
     5  15 P       18   8 O                                       1.4670951
     4   6 C       19   8 O                                       1.2026067
     3   6 C       20   6 C                                       1.3954717
    20   6 C       22   6 C                                       1.3843414
    22   6 C       23   6 C                                       1.3890399
     2   6 C       25   6 C                                       1.3858841
    23   6 C       25   6 C                                       1.3877623
     1   6 C       26   1 H                                       1.0895959
     1   6 C       27   1 H                                       1.0919200
     1   6 C       28   1 H                                       1.0870345
     7   6 C       29   1 H                                       1.0806284
     8   6 C       30   1 H                                       1.0801277
     9   6 C       31   1 H                                       1.0801497
    10   6 C       32   1 H                                       1.0802065
    11   6 C       33   1 H                                       1.0789070
    13   6 C       34   1 H                                       1.0809077
    14   6 C       35   1 H                                       1.0801107
    15   6 C       36   1 H                                       1.0801447
    16   6 C       37   1 H                                       1.0801993
    17   6 C       38   1 H                                       1.0787485 (min)
    21   6 C       39   1 H                                       1.0923745
    21   6 C       40   1 H                                       1.0871387
    21   6 C       41   1 H                                       1.0905705
    22   6 C       42   1 H                                       1.0807109
    24   6 C       43   1 H                                       1.0869480
    24   6 C       44   1 H                                       1.0904451
    24   6 C       45   1 H                                       1.0877913
    25   6 C       46   1 H                                       1.0807966

 * 5 distinct bonds (by element types)

   Z      Z             #   av. dist./Å        max./Å        min./Å
   1 H    6 C          21     1.0840693     1.0923745     1.0787485
   6 C    6 C          18     1.3870147     1.3954717     1.3828693
   6 C    8 O           1     1.2026067     1.2026067     1.2026067
   6 C   15 P           2     1.8230000     1.8240624     1.8219377
   8 O   15 P           1     1.4670951     1.4670951     1.4670951


optimized geometry written to: xtbopt.xyz


           -------------------------------------------------
          | TOTAL ENERGY              -68.497387737718 Eh   |
          | GRADIENT NORM               0.000214557307 Eh/α |
          | HOMO-LUMO GAP               2.451516065056 eV   |
           -------------------------------------------------
########################################################################
[WARNING] Runtime exception occurred
-2- restart_readRestart: Dimension missmatch in restart file.
-1- restart_readRestart: Number of electron missmatch in restart file.
########################################################################

------------------------------------------------------------------------
 * finished run on 2025/12/01 at 14:19:45.457     
------------------------------------------------------------------------
 total:
 * wall-time:     0 d,  0 h,  0 min,  1.689 sec
 *  cpu-time:     0 d,  0 h,  0 min, 37.996 sec
 * ratio c/w:    22.498 speedup
 SCF:
 * wall-time:     0 d,  0 h,  0 min,  0.078 sec
 *  cpu-time:     0 d,  0 h,  0 min,  1.732 sec
 * ratio c/w:    22.084 speedup
 ANC optimizer:
 * wall-time:     0 d,  0 h,  0 min,  1.582 sec
 *  cpu-time:     0 d,  0 h,  0 min, 35.995 sec
 * ratio c/w:    22.751 speedup

normal termination of xtb
