      -----------------------------------------------------------      
     |                   =====================                   |     
     |                           x T B                           |     
     |                   =====================                   |     
     |                         S. Grimme                         |     
     |          Mulliken Center for Theoretical Chemistry        |     
     |                    University of Bonn                     |     
      -----------------------------------------------------------      

   * xtb version 6.7.1 (edcfbbe) compiled by 'albert@albert-system' on 2024-07-22

   xtb is free software: you can redistribute it and/or modify it under
   the terms of the GNU Lesser General Public License as published by
   the Free Software Foundation, either version 3 of the License, or
   (at your option) any later version.
   
   xtb is distributed in the hope that it will be useful,
   but WITHOUT ANY WARRANTY; without even the implied warranty of
   MERCHANTABILITY or FITNESS FOR A PARTICULAR PURPOSE.  See the
   GNU Lesser General Public License for more details.
   
   Cite this work as:
   * C. Bannwarth, E. Caldeweyher, S. Ehlert, A. Hansen, P. Pracht,
     J. Seibert, S. Spicher, S. Grimme, WIREs Comput. Mol. Sci., 2020, 11,
     e01493. DOI: 10.1002/wcms.1493
   
   for GFN2-xTB:
   * C. Bannwarth, S. Ehlert and S. Grimme., J. Chem. Theory Comput., 2019,
     15, 1652-1671. DOI: 10.1021/acs.jctc.8b01176
   for GFN1-xTB:
   * S. Grimme, C. Bannwarth, P. Shushkov, J. Chem. Theory Comput., 2017,
     13, 1989-2009. DOI: 10.1021/acs.jctc.7b00118
   for GFN0-xTB:
   * P. Pracht, E. Caldeweyher, S. Ehlert, S. Grimme, ChemRxiv, 2019, preprint.
     DOI: 10.26434/chemrxiv.8326202.v1
   for GFN-FF:
   * S. Spicher and S. Grimme, Angew. Chem. Int. Ed., 2020, 59, 15665-15673.
     DOI: 10.1002/anie.202004239
   
   for ALPB and GBSA implicit solvation:
   * S. Ehlert, M. Stahn, S. Spicher, S. Grimme, J. Chem. Theory Comput.,
     2021, 17, 4250-4261. DOI: 10.1021/acs.jctc.1c00471
   
   for ddCOSMO and CPCM-X implicit solvation:
   * M. Stahn, S. Ehlert, S. Grimme, J. Phys. Chem. A,
     2023, XX, XXXX-XXXX. DOI: 10.1021/acs.jpca.3c04382
   
   for DFT-D4:
   * E. Caldeweyher, C. Bannwarth and S. Grimme, J. Chem. Phys., 2017,
     147, 034112. DOI: 10.1063/1.4993215
   * E. Caldeweyher, S. Ehlert, A. Hansen, H. Neugebauer, S. Spicher,
     C. Bannwarth and S. Grimme, J. Chem. Phys., 2019, 150, 154122.
     DOI: 10.1063/1.5090222
   * E. Caldeweyher, J.-M. Mewes, S. Ehlert and S. Grimme, Phys. Chem. Chem. Phys.
     2020, 22, 8499-8512. DOI: 10.1039/D0CP00502A
   
   for sTDA-xTB:
   * S. Grimme and C. Bannwarth, J. Chem. Phys., 2016, 145, 054103.
     DOI: 10.1063/1.4959605
   
   in the mass-spec context:
   * V. Asgeirsson, C. Bauer and S. Grimme, Chem. Sci., 2017, 8, 4879.
     DOI: 10.1039/c7sc00601b
   * J. Koopman and S. Grimme, ACS Omega 2019, 4, 12, 15120-15133.
     DOI: 10.1021/acsomega.9b02011
   
   for metadynamics refer to:
   * S. Grimme, J. Chem. Theory Comput., 2019, 155, 2847-2862
     DOI: 10.1021/acs.jctc.9b00143
   
   for SPH calculations refer to:
   * S. Spicher and S. Grimme, J. Chem. Theory Comput., 2021, 17, 1701-1714
     DOI: 10.1021/acs.jctc.0c01306
   
   for ONIOM refer to:
   * C. Plett, A. Katbashev, S. Ehlert, S. Grimme, M. Bursch,
     Phys. Chem. Chem. Phys., 2023, 25, 17860-17868. DOI: 10.1039/D3CP02178E
   
   for DIPRO refer to:
   * J. Kohn, N. Gildemeister, S. Grimme, D. Fazzi, A. Hansen,
     J. Chem. Phys., 2023, just accepted.
   
   for PTB refer to:
   * S. Grimme, M. Mueller, A. Hansen, J. Chem. Phys., 2023, 158, 124111.
     DOI: 10.1063/5.0137838
   
   with help from (in alphabetical order)
   P. Atkinson, C. Bannwarth, F. Bohle, G. Brandenburg, E. Caldeweyher
   M. Checinski, S. Dohm, S. Ehlert, S. Ehrlich, I. Gerasimov, C. Hölzer
   A. Katbashev, J. Kohn, J. Koopman, C. Lavigne, S. Lehtola, F. März, M. Müller,
   F. Musil, H. Neugebauer, J. Pisarek, C. Plett, P. Pracht, F. Pultar,
   J. Seibert, P. Shushkov, S. Spicher, M. Stahn, M. Steiner, T. Strunk,
   J. Stückrath, T. Rose, and J. Unsleber
   
 * started run on 2025/12/01 at 14:19:54.345     
   ID    Z sym.   atoms
    1    8 O      1, 3
    2    6 C      2, 4-7
    3    1 H      8-15

           -------------------------------------------------
          |                Calculation Setup                |
           -------------------------------------------------

          program call               : xtb pipeline_data/3_conformer_xyz/acrylates/rdkit/VVQNEPGJFQJSBK-UHFFFAOYSA-N_conf200.xyz --opt --gfn 2-xTB --iterations 250
          coordinate file            : pipeline_data/3_conformer_xyz/acrylates/rdkit/VVQNEPGJFQJSBK-UHFFFAOYSA-N_conf200.xyz
          omp threads                :                    24

########################################################################
[WARNING] Please study the warnings concerning your input carefully
-1- readin_getIntValue: could not parse '2-xTB'
########################################################################

           -------------------------------------------------
          |                 G F N 2 - x T B                 |
           -------------------------------------------------

        Reference                      10.1021/acs.jctc.8b01176
      * Hamiltonian:
        H0-scaling (s, p, d)           1.850000    2.230000    2.230000
        zeta-weighting                 0.500000
      * Dispersion:
        s8                             2.700000
        a1                             0.520000
        a2                             5.000000
        s9                             5.000000
      * Repulsion:
        kExp                           1.500000    1.000000
        rExp                           1.000000
      * Coulomb:
        alpha                          2.000000
        third order                    shell-resolved
        anisotropic                    true
        a3                             3.000000
        a5                             4.000000
        cn-shift                       1.200000
        cn-exp                         4.000000
        max-rad                        5.000000

q/qsh data taken from xtbrestart
CAMM data taken from xtbrestart

          ...................................................
          :                      SETUP                      :
          :.................................................:
          :  # basis functions                  36          :
          :  # atomic orbitals                  36          :
          :  # shells                           22          :
          :  # electrons                        40          :
          :  max. iterations                   250          :
          :  Hamiltonian                  GFN2-xTB          :
          :  restarted?                       true          :
          :  GBSA solvation                  false          :
          :  PC potential                    false          :
          :  electronic temp.          300.0000000     K    :
          :  accuracy                    1.0000000          :
          :  -> integral cutoff          0.2500000E+02      :
          :  -> integral neglect         0.1000000E-07      :
          :  -> SCF convergence          0.1000000E-05 Eh   :
          :  -> wf. convergence          0.1000000E-03 e    :
          :  Broyden damping             0.4000000          :
          :  net charge                          0          :
          :  unpaired electrons                  0          :
          ...................................................

 iter      E             dE          RMSdq      gap      omega  full diag
   1    -23.1277949 -0.231278E+02  0.448E+00    3.50       0.0  T
   2    -23.1315932 -0.379822E-02  0.269E+00    3.47       1.0  T
   3    -23.1301334  0.145977E-02  0.494E-01    3.47       1.0  T
   4    -23.1324774 -0.234398E-02  0.247E-01    3.55       1.0  T
   5    -23.1329038 -0.426386E-03  0.109E-01    3.52       1.0  T
   6    -23.1329143 -0.105223E-04  0.177E-02    3.52       1.5  T
   7    -23.1329147 -0.415629E-06  0.851E-03    3.52       3.0  T
   8    -23.1329148 -0.110108E-06  0.345E-03    3.52       7.5  T
   9    -23.1329149 -0.707050E-07  0.128E-03    3.52      20.2  T
  10    -23.1329149 -0.192928E-08  0.241E-04    3.52     107.1  T
  11    -23.1329149 -0.155829E-09  0.120E-04    3.52     214.8  T

   *** convergence criteria satisfied after 11 iterations ***

         #    Occupation            Energy/Eh            Energy/eV
      -------------------------------------------------------------
         1        2.0000           -0.7307037             -19.8835
       ...           ...                  ...                  ...
        14        2.0000           -0.4889621             -13.3053
        15        2.0000           -0.4690740             -12.7642
        16        2.0000           -0.4666712             -12.6988
        17        2.0000           -0.4544898             -12.3673
        18        2.0000           -0.4395613             -11.9611
        19        2.0000           -0.4213361             -11.4651
        20        2.0000           -0.4136709             -11.2566 (HOMO)
        21                         -0.2841709              -7.7327 (LUMO)
        22                         -0.1697815              -4.6200
        23                         -0.0220112              -0.5990
        24                          0.0936108               2.5473
        25                          0.1031225               2.8061
       ...                                ...                  ...
        36                          0.6264722              17.0472
      -------------------------------------------------------------
                  HL-Gap            0.1295000 Eh            3.5239 eV
             Fermi-level           -0.3489209 Eh           -9.4946 eV

 SCC (total)                   0 d,  0 h,  0 min,  0.018 sec
 SCC setup                      ...        0 min,  0.000 sec (  1.290%)
 Dispersion                     ...        0 min,  0.000 sec (  1.025%)
 classical contributions        ...        0 min,  0.000 sec (  1.406%)
 integral evaluation            ...        0 min,  0.001 sec (  2.814%)
 iterations                     ...        0 min,  0.015 sec ( 82.745%)
 molecular gradient             ...        0 min,  0.002 sec (  9.873%)
 printout                       ...        0 min,  0.000 sec (  0.642%)

         :::::::::::::::::::::::::::::::::::::::::::::::::::::
         ::                     SUMMARY                     ::
         :::::::::::::::::::::::::::::::::::::::::::::::::::::
         :: total energy             -22.880466209049 Eh    ::
         :: gradient norm              0.121612121285 Eh/a0 ::
         :: HOMO-LUMO gap              3.523875178282 eV    ::
         ::.................................................::
         :: SCC energy               -23.132905191688 Eh    ::
         :: -> isotropic ES            0.047652298853 Eh    ::
         :: -> anisotropic ES          0.000931822177 Eh    ::
         :: -> anisotropic XC          0.007001728688 Eh    ::
         :: -> dispersion             -0.008580597389 Eh    ::
         :: repulsion energy           0.252438982640 Eh    ::
         :: add. restraining           0.000000000000 Eh    ::
         :: total charge              -0.000000000000 e     ::
         :::::::::::::::::::::::::::::::::::::::::::::::::::::

      ----------------------------------------------------------- 
     |                   =====================                   |
     |                        A N C O P T                        |
     |                   =====================                   |
     |               Approximate Normal Coordinate               |
     |                Rational Function Optimizer                |
      ----------------------------------------------------------- 
      ----------------------------------------------------------- 
     |                   =====================                   |
     |                        A N C O P T                        |
     |                   =====================                   |
     |               Approximate Normal Coordinate               |
     |                Rational Function Optimizer                |
      ----------------------------------------------------------- 

          ...................................................
          :                      SETUP                      :
          :.................................................:
          :   optimization level            normal          :
          :   max. optcycles                   200          :
          :   ANC micro-cycles                  20          :
          :   degrees of freedom                39          :
          :.................................................:
          :   RF solver                   davidson          :
          :   write xtbopt.log                true          :
          :   linear?                        false          :
          :   energy convergence         0.5000000E-05 Eh   :
          :   grad. convergence          0.1000000E-02 Eh/α :
          :   maxmium RF displ.          1.0000000          :
          :   Hlow (freq-cutoff)         0.1000000E-01      :
          :   Hmax (freq-cutoff)         5.0000000          :
          :   S6 in model hess.         20.0000000          :
          ...................................................

generating ANC from exact Hessian ...
Using Lindh-Hessian (1995)
 Shifting diagonal of input Hessian by   7.233419647886839E-003
 Lowest  eigenvalues of input Hessian
    0.000000    0.000000    0.000000    0.000000    0.000000    0.000000
    0.010000    0.011056    0.014036    0.016104    0.019271    0.024045
    0.025865    0.032697    0.035635    0.048190    0.072225    0.072928
 Highest eigenvalues
    1.122028    1.270122    1.474229    1.795487    1.866394    2.132048
 

........................................................................
.............................. CYCLE    1 ..............................
........................................................................

 iter      E             dE          RMSdq      gap      omega  full diag
   1    -23.1329149 -0.231329E+02  0.169E-05    3.52       0.0  T
   2    -23.1329149 -0.344613E-12  0.963E-06    3.52    2681.5  T
   3    -23.1329149  0.273559E-12  0.737E-06    3.52    3504.5  T
     SCC iter.                  ...        0 min,  0.002 sec
     gradient                   ...        0 min,  0.001 sec
 * total energy  :   -22.8804662 Eh     change       -0.1053024E-10 Eh
   gradient norm :     0.1216119 Eh/α   predicted     0.0000000E+00 (-100.00%)
   displ. norm   :     0.2971475 α      lambda       -0.1679584E-01
   maximum displ.:     0.1536824 α      in ANC's #13, #7, #15, ...

........................................................................
.............................. CYCLE    2 ..............................
........................................................................

 iter      E             dE          RMSdq      gap      omega  full diag
   1    -23.1617924 -0.231618E+02  0.373E-01    3.67       0.0  T
   2    -23.1620563 -0.263984E-03  0.229E-01    3.71       1.0  T
   3    -23.1620408  0.155544E-04  0.881E-02    3.72       1.0  T
   4    -23.1620691 -0.282732E-04  0.280E-02    3.71       1.0  T
   5    -23.1620767 -0.767014E-05  0.126E-02    3.71       2.1  T
   6    -23.1620783 -0.158044E-05  0.473E-03    3.71       5.5  T
   7    -23.1620784 -0.613967E-07  0.130E-03    3.71      19.9  T
   8    -23.1620784 -0.345777E-08  0.575E-04    3.71      44.9  T
   9    -23.1620784 -0.471132E-09  0.137E-04    3.71     188.0  T
     SCC iter.                  ...        0 min,  0.005 sec
     gradient                   ...        0 min,  0.001 sec
 * total energy  :   -22.8917470 Eh     change       -0.1128075E-01 Eh
   gradient norm :     0.0457433 Eh/α   predicted    -0.9139424E-02 ( -18.98%)
   displ. norm   :     0.2469496 α      lambda       -0.3999632E-02
   maximum displ.:     0.1624273 α      in ANC's #7, #10, #9, ...

........................................................................
.............................. CYCLE    3 ..............................
........................................................................

 iter      E             dE          RMSdq      gap      omega  full diag
   1    -23.1747465 -0.231747E+02  0.243E-01    3.80       0.0  T
   2    -23.1748395 -0.929195E-04  0.148E-01    3.83       1.0  T
   3    -23.1748262  0.132557E-04  0.568E-02    3.83       1.0  T
   4    -23.1748399 -0.136546E-04  0.251E-02    3.84       1.0  T
   5    -23.1748473 -0.743503E-05  0.662E-03    3.83       3.9  T
   6    -23.1748477 -0.373290E-06  0.240E-03    3.83      10.7  T
   7    -23.1748477 -0.147547E-07  0.640E-04    3.83      40.3  T
   8    -23.1748477 -0.746645E-09  0.291E-04    3.83      88.7  T
     SCC iter.                  ...        0 min,  0.005 sec
     gradient                   ...        0 min,  0.001 sec
 * total energy  :   -22.8938853 Eh     change       -0.2138374E-02 Eh
   gradient norm :     0.0151979 Eh/α   predicted    -0.2121767E-02 (  -0.78%)
   displ. norm   :     0.0949311 α      lambda       -0.3917750E-03
   maximum displ.:     0.0628049 α      in ANC's #7, #9, #3, ...

........................................................................
.............................. CYCLE    4 ..............................
........................................................................

 iter      E             dE          RMSdq      gap      omega  full diag
   1    -23.1742455 -0.231742E+02  0.649E-02    3.84       0.0  T
   2    -23.1742486 -0.304554E-05  0.395E-02    3.84       1.0  T
   3    -23.1742480  0.564700E-06  0.995E-03    3.84       2.6  T
   4    -23.1742483 -0.325120E-06  0.597E-03    3.84       4.3  T
   5    -23.1742488 -0.448942E-06  0.102E-03    3.84      25.4  T
   6    -23.1742488 -0.294398E-08  0.522E-04    3.84      49.5  T
   7    -23.1742488 -0.563727E-09  0.137E-04    3.84     188.7  T
     SCC iter.                  ...        0 min,  0.004 sec
     gradient                   ...        0 min,  0.001 sec
 * total energy  :   -22.8941309 Eh     change       -0.2455937E-03 Eh
   gradient norm :     0.0074663 Eh/α   predicted    -0.1976537E-03 ( -19.52%)
   displ. norm   :     0.0888290 α      lambda       -0.1640453E-03
   maximum displ.:     0.0454287 α      in ANC's #4, #7, #9, ...

........................................................................
.............................. CYCLE    5 ..............................
........................................................................

 iter      E             dE          RMSdq      gap      omega  full diag
   1    -23.1735966 -0.231736E+02  0.573E-02    3.85       0.0  T
   2    -23.1735983 -0.167233E-05  0.339E-02    3.84       1.0  T
   3    -23.1735977  0.637671E-06  0.955E-03    3.84       2.7  T
   4    -23.1735982 -0.534578E-06  0.456E-03    3.84       5.7  T
   5    -23.1735985 -0.275145E-06  0.860E-04    3.84      30.0  T
   6    -23.1735985 -0.210329E-08  0.432E-04    3.84      59.8  T
     SCC iter.                  ...        0 min,  0.003 sec
     gradient                   ...        0 min,  0.001 sec
 * total energy  :   -22.8942084 Eh     change       -0.7742763E-04 Eh
   gradient norm :     0.0026490 Eh/α   predicted    -0.8267056E-04 (   6.77%)
   displ. norm   :     0.0351340 α      lambda       -0.3507869E-04
   maximum displ.:     0.0218966 α      in ANC's #4, #3, #1, ...

........................................................................
.............................. CYCLE    6 ..............................
........................................................................

 iter      E             dE          RMSdq      gap      omega  full diag
   1    -23.1739750 -0.231740E+02  0.226E-02    3.85       0.0  T
   2    -23.1739751 -0.871005E-07  0.136E-02    3.85       1.9  T
   3    -23.1739743  0.803556E-06  0.979E-03    3.85       2.6  T
   4    -23.1739753 -0.102066E-05  0.838E-04    3.85      30.8  T
   5    -23.1739753 -0.424735E-08  0.390E-04    3.85      66.1  T
   6    -23.1739753 -0.139142E-09  0.136E-04    3.85     189.7  T
     SCC iter.                  ...        0 min,  0.003 sec
     gradient                   ...        0 min,  0.001 sec
 * total energy  :   -22.8942324 Eh     change       -0.2405765E-04 Eh
   gradient norm :     0.0014215 Eh/α   predicted    -0.1756073E-04 ( -27.01%)
   displ. norm   :     0.0985256 α      lambda       -0.3069215E-04
   maximum displ.:     0.0744010 α      in ANC's #4, #1, #3, ...

........................................................................
.............................. CYCLE    7 ..............................
........................................................................

 iter      E             dE          RMSdq      gap      omega  full diag
   1    -23.1743160 -0.231743E+02  0.419E-02    3.85       0.0  T
   2    -23.1743163 -0.319678E-06  0.252E-02    3.85       1.0  T
   3    -23.1743135  0.274237E-05  0.175E-02    3.85       1.5  T
   4    -23.1743169 -0.340547E-05  0.128E-03    3.85      20.2  T
   5    -23.1743169 -0.783189E-08  0.612E-04    3.85      42.2  T
   6    -23.1743169 -0.140300E-09  0.211E-04    3.85     122.6  T
     SCC iter.                  ...        0 min,  0.003 sec
     gradient                   ...        0 min,  0.001 sec
 * total energy  :   -22.8942619 Eh     change       -0.2953873E-04 Eh
   gradient norm :     0.0023146 Eh/α   predicted    -0.1541284E-04 ( -47.82%)
   displ. norm   :     0.0951607 α      lambda       -0.3383554E-04
   maximum displ.:     0.0767133 α      in ANC's #4, #1, #6, ...

........................................................................
.............................. CYCLE    8 ..............................
........................................................................

 iter      E             dE          RMSdq      gap      omega  full diag
   1    -23.1742117 -0.231742E+02  0.443E-02    3.85       0.0  T
   2    -23.1742119 -0.173598E-06  0.262E-02    3.85       1.0  T
   3    -23.1742106  0.122850E-05  0.102E-02    3.85       2.5  T
   4    -23.1742120 -0.136248E-05  0.108E-03    3.85      23.9  T
   5    -23.1742120 -0.665777E-08  0.527E-04    3.85      49.0  T
   6    -23.1742120 -0.608971E-10  0.157E-04    3.85     164.8  T
     SCC iter.                  ...        0 min,  0.003 sec
     gradient                   ...        0 min,  0.001 sec
 * total energy  :   -22.8942900 Eh     change       -0.2808690E-04 Eh
   gradient norm :     0.0028642 Eh/α   predicted    -0.1707095E-04 ( -39.22%)
   displ. norm   :     0.1219976 α      lambda       -0.4734929E-04
   maximum displ.:     0.0923089 α      in ANC's #4, #1, #2, ...

........................................................................
.............................. CYCLE    9 ..............................
........................................................................

 iter      E             dE          RMSdq      gap      omega  full diag
   1    -23.1740426 -0.231740E+02  0.538E-02    3.85       0.0  T
   2    -23.1740428 -0.169405E-06  0.317E-02    3.85       1.0  T
   3    -23.1740426  0.162517E-06  0.431E-03    3.85       6.0  T
   4    -23.1740428 -0.203317E-06  0.144E-03    3.85      17.9  T
   5    -23.1740428 -0.163809E-07  0.692E-04    3.85      37.3  T
   6    -23.1740428 -0.690850E-09  0.245E-04    3.85     105.5  T
     SCC iter.                  ...        0 min,  0.003 sec
     gradient                   ...        0 min,  0.001 sec
 * total energy  :   -22.8943318 Eh     change       -0.4175140E-04 Eh
   gradient norm :     0.0029221 Eh/α   predicted    -0.2402531E-04 ( -42.46%)
   displ. norm   :     0.2591876 α      lambda       -0.9464291E-04
   maximum displ.:     0.1950080 α      in ANC's #4, #1, #2, ...

........................................................................
.............................. CYCLE   10 ..............................
........................................................................

 iter      E             dE          RMSdq      gap      omega  full diag
   1    -23.1728853 -0.231729E+02  0.118E-01    3.85       0.0  T
   2    -23.1728864 -0.104319E-05  0.698E-02    3.85       1.0  T
   3    -23.1728863  0.707474E-07  0.587E-03    3.85       4.4  T
   4    -23.1728866 -0.251558E-06  0.279E-03    3.85       9.3  T
   5    -23.1728866 -0.468320E-07  0.157E-03    3.85      16.5  T
   6    -23.1728866 -0.660985E-08  0.623E-04    3.85      41.5  T
   7    -23.1728866 -0.235569E-08  0.126E-04    3.85     204.1  T
     SCC iter.                  ...        0 min,  0.007 sec
     gradient                   ...        0 min,  0.005 sec
 * total energy  :   -22.8943947 Eh     change       -0.6292089E-04 Eh
   gradient norm :     0.0054536 Eh/α   predicted    -0.5049534E-04 ( -19.75%)
   displ. norm   :     0.1390807 α      lambda       -0.6830609E-04
   maximum displ.:     0.0928313 α      in ANC's #4, #1, #2, ...

........................................................................
.............................. CYCLE   11 ..............................
........................................................................

 iter      E             dE          RMSdq      gap      omega  full diag
   1    -23.1732175 -0.231732E+02  0.683E-02    3.85       0.0  T
   2    -23.1732177 -0.214650E-06  0.402E-02    3.85       1.0  T
   3    -23.1732175  0.234791E-06  0.503E-03    3.85       5.1  T
   4    -23.1732178 -0.299772E-06  0.165E-03    3.85      15.6  T
   5    -23.1732178 -0.192861E-07  0.793E-04    3.85      32.6  T
   6    -23.1732178 -0.607592E-09  0.261E-04    3.85      98.8  T
     SCC iter.                  ...        0 min,  0.008 sec
     gradient                   ...        0 min,  0.001 sec
 * total energy  :   -22.8944468 Eh     change       -0.5211209E-04 Eh
   gradient norm :     0.0048218 Eh/α   predicted    -0.3481536E-04 ( -33.19%)
   displ. norm   :     0.1665661 α      lambda       -0.8590457E-04
   maximum displ.:     0.1062001 α      in ANC's #1, #4, #2, ...

........................................................................
.............................. CYCLE   12 ..............................
........................................................................

 iter      E             dE          RMSdq      gap      omega  full diag
   1    -23.1741364 -0.231741E+02  0.765E-02    3.86       0.0  T
   2    -23.1741367 -0.294968E-06  0.451E-02    3.86       1.0  T
   3    -23.1741367 -0.414054E-08  0.281E-03    3.86       9.2  T
   4    -23.1741368 -0.584578E-07  0.170E-03    3.86      15.2  T
   5    -23.1741368 -0.177351E-07  0.846E-04    3.86      30.5  T
   6    -23.1741368 -0.182873E-08  0.339E-04    3.86      76.1  T
     SCC iter.                  ...        0 min,  0.007 sec
     gradient                   ...        0 min,  0.004 sec
 * total energy  :   -22.8945094 Eh     change       -0.6258819E-04 Eh
   gradient norm :     0.0029247 Eh/α   predicted    -0.4414159E-04 ( -29.47%)
   displ. norm   :     0.3443385 α      lambda       -0.8078155E-04
   maximum displ.:     0.2378741 α      in ANC's #4, #1, #2, ...

........................................................................
.............................. CYCLE   13 ..............................
........................................................................

 iter      E             dE          RMSdq      gap      omega  full diag
   1    -23.1710863 -0.231711E+02  0.153E-01    3.87       0.0  T
   2    -23.1710902 -0.392958E-05  0.897E-02    3.87       1.0  T
   3    -23.1710862  0.398371E-05  0.199E-02    3.87       1.3  T
   4    -23.1710905 -0.428245E-05  0.660E-03    3.87       3.9  T
   5    -23.1710910 -0.480262E-06  0.201E-03    3.87      12.9  T
   6    -23.1710910 -0.273043E-08  0.630E-04    3.87      41.0  T
   7    -23.1710910 -0.784013E-09  0.170E-04    3.87     151.6  T
     SCC iter.                  ...        0 min,  0.006 sec
     gradient                   ...        0 min,  0.001 sec
 * total energy  :   -22.8944703 Eh     change        0.3915150E-04 Eh
   gradient norm :     0.0091664 Eh/α   predicted    -0.4517980E-04 (-215.40%)
   displ. norm   :     0.1104991 α      lambda       -0.2455378E-03
   maximum displ.:     0.0877321 α      in ANC's #4, #1, #6, ...

........................................................................
.............................. CYCLE   14 ..............................
........................................................................

 iter      E             dE          RMSdq      gap      omega  full diag
   1    -23.1753516 -0.231754E+02  0.662E-02    3.87       0.0  T
   2    -23.1753557 -0.406630E-05  0.370E-02    3.87       1.0  T
   3    -23.1753558 -0.755934E-07  0.107E-02    3.87       2.4  T
   4    -23.1753560 -0.228855E-06  0.254E-03    3.87      10.2  T
   5    -23.1753560 -0.232349E-07  0.144E-03    3.87      17.9  T
   6    -23.1753560  0.160507E-08  0.828E-04    3.87      31.2  T
   7    -23.1753560 -0.683926E-08  0.187E-04    3.87     137.7  T
     SCC iter.                  ...        0 min,  0.004 sec
     gradient                   ...        0 min,  0.001 sec
 * total energy  :   -22.8945619 Eh     change       -0.9162549E-04 Eh
   gradient norm :     0.0024371 Eh/α   predicted    -0.1242687E-03 (  35.63%)
   displ. norm   :     0.0698422 α      lambda       -0.2145515E-04
   maximum displ.:     0.0502224 α      in ANC's #4, #1, #2, ...

........................................................................
.............................. CYCLE   15 ..............................
........................................................................

 iter      E             dE          RMSdq      gap      omega  full diag
   1    -23.1748027 -0.231748E+02  0.276E-02    3.87       0.0  T
   2    -23.1748028 -0.183243E-06  0.162E-02    3.87       1.6  T
   3    -23.1748024  0.447683E-06  0.651E-03    3.87       4.0  T
   4    -23.1748029 -0.497384E-06  0.116E-03    3.87      22.2  T
   5    -23.1748029 -0.135868E-07  0.369E-04    3.87      70.0  T
   6    -23.1748029 -0.102812E-09  0.161E-04    3.87     159.9  T
     SCC iter.                  ...        0 min,  0.004 sec
     gradient                   ...        0 min,  0.001 sec
 * total energy  :   -22.8945791 Eh     change       -0.1726667E-04 Eh
   gradient norm :     0.0013872 Eh/α   predicted    -0.1077965E-04 ( -37.57%)
   displ. norm   :     0.3114996 α      lambda       -0.3656451E-04
   maximum displ.:     0.2149378 α      in ANC's #4, #1, #2, ...

........................................................................
.............................. CYCLE   16 ..............................
........................................................................

 iter      E             dE          RMSdq      gap      omega  full diag
   1    -23.1723028 -0.231723E+02  0.123E-01    3.88       0.0  T
   2    -23.1723060 -0.325383E-05  0.726E-02    3.88       1.0  T
   3    -23.1722976  0.843925E-05  0.279E-02    3.88       1.0  T
   4    -23.1723069 -0.933550E-05  0.488E-03    3.88       5.3  T
   5    -23.1723072 -0.237367E-06  0.152E-03    3.88      17.0  T
   6    -23.1723072 -0.113189E-08  0.570E-04    3.88      45.3  T
   7    -23.1723072 -0.670923E-09  0.125E-04    3.88     206.2  T
     SCC iter.                  ...        0 min,  0.004 sec
     gradient                   ...        0 min,  0.001 sec
 * total energy  :   -22.8945550 Eh     change        0.2414026E-04 Eh
   gradient norm :     0.0068846 Eh/α   predicted    -0.1906775E-04 (-178.99%)
   displ. norm   :     0.1305400 α      lambda       -0.8767068E-04
   maximum displ.:     0.0890752 α      in ANC's #4, #1, #2, ...

........................................................................
.............................. CYCLE   17 ..............................
........................................................................

 iter      E             dE          RMSdq      gap      omega  full diag
   1    -23.1741764 -0.231742E+02  0.578E-02    3.88       0.0  T
   2    -23.1741775 -0.104457E-05  0.337E-02    3.88       1.0  T
   3    -23.1741764  0.101397E-05  0.104E-02    3.88       2.5  T
   4    -23.1741775 -0.107634E-05  0.324E-03    3.88       8.0  T
   5    -23.1741776 -0.121169E-06  0.836E-04    3.88      30.9  T
   6    -23.1741776 -0.607731E-09  0.311E-04    3.88      83.0  T
     SCC iter.                  ...        0 min,  0.004 sec
     gradient                   ...        0 min,  0.001 sec
 * total energy  :   -22.8946014 Eh     change       -0.4642854E-04 Eh
   gradient norm :     0.0024295 Eh/α   predicted    -0.4458336E-04 (  -3.97%)
   displ. norm   :     0.0124012 α      lambda       -0.9164887E-05
   maximum displ.:     0.0055180 α      in ANC's #4, #1, #6, ...

........................................................................
.............................. CYCLE   18 ..............................
........................................................................

 iter      E             dE          RMSdq      gap      omega  full diag
   1    -23.1746127 -0.231746E+02  0.736E-03    3.88       0.0  T
   2    -23.1746127 -0.458527E-07  0.417E-03    3.88       6.2  T
   3    -23.1746127 -0.923766E-09  0.113E-03    3.88      22.9  T
   4    -23.1746127 -0.218842E-08  0.349E-04    3.88      74.1  T
   5    -23.1746127 -0.745647E-09  0.199E-04    3.88     129.7  T
     SCC iter.                  ...        0 min,  0.005 sec
     gradient                   ...        0 min,  0.001 sec
 * total energy  :   -22.8946087 Eh     change       -0.7225023E-05 Eh
   gradient norm :     0.0013074 Eh/α   predicted    -0.4585008E-05 ( -36.54%)
   displ. norm   :     0.0818360 α      lambda       -0.1250717E-04
   maximum displ.:     0.0550979 α      in ANC's #4, #1, #2, ...

........................................................................
.............................. CYCLE   19 ..............................
........................................................................

 iter      E             dE          RMSdq      gap      omega  full diag
   1    -23.1755043 -0.231755E+02  0.293E-02    3.88       0.0  T
   2    -23.1755044 -0.109249E-06  0.174E-02    3.88       1.5  T
   3    -23.1755044  0.413574E-07  0.229E-03    3.88      11.3  T
   4    -23.1755044 -0.490673E-07  0.117E-03    3.88      22.0  T
   5    -23.1755044 -0.136908E-07  0.398E-04    3.88      64.8  T
   6    -23.1755044 -0.149708E-09  0.171E-04    3.88     150.9  T
     SCC iter.                  ...        0 min,  0.004 sec
     gradient                   ...        0 min,  0.001 sec
 * total energy  :   -22.8946195 Eh     change       -0.1085837E-04 Eh
   gradient norm :     0.0011443 Eh/α   predicted    -0.6271428E-05 ( -42.24%)
   displ. norm   :     0.1243897 α      lambda       -0.8977076E-05
   maximum displ.:     0.0891765 α      in ANC's #4, #1, #2, ...

........................................................................
.............................. CYCLE   20 ..............................
........................................................................

 iter      E             dE          RMSdq      gap      omega  full diag
   1    -23.1750667 -0.231751E+02  0.428E-02    3.88       0.0  T
   2    -23.1750668 -0.124652E-06  0.254E-02    3.88       1.0  T
   3    -23.1750666  0.258325E-06  0.477E-03    3.88       5.4  T
   4    -23.1750668 -0.285770E-06  0.109E-03    3.88      23.7  T
   5    -23.1750668 -0.113948E-07  0.394E-04    3.88      65.5  T
   6    -23.1750668 -0.773639E-10  0.119E-04    3.88     217.2  T
     SCC iter.                  ...        0 min,  0.004 sec
     gradient                   ...        0 min,  0.001 sec
 * total energy  :   -22.8946302 Eh     change       -0.1063187E-04 Eh
   gradient norm :     0.0007270 Eh/α   predicted    -0.4517613E-05 ( -57.51%)
   displ. norm   :     0.1825107 α      lambda       -0.9406144E-05
   maximum displ.:     0.1394592 α      in ANC's #4, #1, #24, ...
 * RMSD in coord.:     0.5045013 α      energy gain  -0.1416394E-01 Eh

generating ANC from exact Hessian ...
Using Lindh-Hessian (1995)
 Shifting diagonal of input Hessian by   7.248422330885429E-003
 Lowest  eigenvalues of input Hessian
    0.000000    0.000000    0.000000    0.000000    0.000000    0.000000
    0.010000    0.011797    0.014298    0.016974    0.019916    0.025516
    0.026983    0.034842    0.038948    0.050395    0.076968    0.079536
 Highest eigenvalues
    1.189205    1.279989    1.474450    1.828378    1.918162    2.375995
 

........................................................................
.............................. CYCLE   21 ..............................
........................................................................

 iter      E             dE          RMSdq      gap      omega  full diag
   1    -23.1743457 -0.231743E+02  0.621E-02    3.88       0.0  T
   2    -23.1743463 -0.581037E-06  0.367E-02    3.88       1.0  T
   3    -23.1743460  0.278847E-06  0.582E-03    3.88       4.4  T
   4    -23.1743463 -0.292866E-06  0.252E-03    3.88      10.2  T
   5    -23.1743464 -0.734391E-07  0.786E-04    3.88      32.8  T
   6    -23.1743464 -0.888971E-09  0.302E-04    3.88      85.6  T
     SCC iter.                  ...        0 min,  0.004 sec
     gradient                   ...        0 min,  0.001 sec
 * total energy  :   -22.8946276 Eh     change        0.2525835E-05 Eh
   gradient norm :     0.0028786 Eh/α   predicted     0.0000000E+00 (-100.00%)
   displ. norm   :     0.0135106 α      lambda       -0.1872692E-04
   maximum displ.:     0.0099500 α      in ANC's #1, #24, #7, ...

........................................................................
.............................. CYCLE   22 ..............................
........................................................................

 iter      E             dE          RMSdq      gap      omega  full diag
   1    -23.1749955 -0.231750E+02  0.123E-02    3.88       0.0  T
   2    -23.1749957 -0.185759E-06  0.680E-03    3.88       3.8  T
   3    -23.1749957  0.168850E-07  0.265E-03    3.88       9.7  T
   4    -23.1749957 -0.156202E-07  0.126E-03    3.88      20.4  T
   5    -23.1749957 -0.189194E-07  0.357E-04    3.88      72.4  T
   6    -23.1749957 -0.235779E-09  0.112E-04    3.88     231.5  T
     SCC iter.                  ...        0 min,  0.004 sec
     gradient                   ...        0 min,  0.001 sec
 * total energy  :   -22.8946392 Eh     change       -0.1155001E-04 Eh
   gradient norm :     0.0006644 Eh/α   predicted    -0.9365718E-05 ( -18.91%)
   displ. norm   :     0.0204924 α      lambda       -0.2945326E-05
   maximum displ.:     0.0165948 α      in ANC's #1, #7, #4, ...

........................................................................
.............................. CYCLE   23 ..............................
........................................................................

 iter      E             dE          RMSdq      gap      omega  full diag
   1    -23.1752923 -0.231753E+02  0.141E-02    3.88       0.0  T
   2    -23.1752923 -0.428231E-07  0.820E-03    3.88       3.2  T
   3    -23.1752923  0.466090E-07  0.221E-03    3.88      11.7  T
   4    -23.1752923 -0.538045E-07  0.653E-04    3.88      39.5  T
   5    -23.1752924 -0.419398E-08  0.255E-04    3.88     101.5  T
     SCC iter.                  ...        0 min,  0.003 sec
     gradient                   ...        0 min,  0.001 sec
 * total energy  :   -22.8946418 Eh     change       -0.2649500E-05 Eh
   gradient norm :     0.0005853 Eh/α   predicted    -0.1472781E-05 ( -44.41%)
   displ. norm   :     0.0219743 α      lambda       -0.1917987E-05
   maximum displ.:     0.0161853 α      in ANC's #1, #7, #4, ...

   *** GEOMETRY OPTIMIZATION CONVERGED AFTER 23 ITERATIONS ***

------------------------------------------------------------------------
 total energy gain   :        -0.0141756 Eh       -8.8953 kcal/mol
 total RMSD          :         0.5014974 a0        0.2654 Å
 total power (kW/mol):        -1.6181772 (step) -221.8463 (real)
------------------------------------------------------------------------

 ANCopt (total)                0 d,  0 h,  0 min,  0.168 sec
 optimizer setup                ...        0 min,  0.000 sec (  0.063%)
 model hessian                  ...        0 min,  0.005 sec (  2.727%)
 ANC generation                 ...        0 min,  0.002 sec (  1.023%)
 coordinate transformation      ...        0 min,  0.000 sec (  0.091%)
 single point calculation       ...        0 min,  0.152 sec ( 90.796%)
 optimization log               ...        0 min,  0.003 sec (  1.667%)
 hessian update                 ...        0 min,  0.002 sec (  1.365%)
 rational function              ...        0 min,  0.002 sec (  1.434%)

================
 final structure:
================
15
 xtb: 6.7.1 (edcfbbe)
O           -0.81099679958745       -1.15842686582017        0.83367194719334
C           -0.41812478822381       -0.28597691648591        0.09816138995811
O           -1.24650115242109        0.49528251219291       -0.61334453244668
C           -2.63132878867273        0.22832594927176       -0.45612782578699
C            1.01727002617451        0.04153677549250       -0.11917552318444
C            1.40102020510376        0.85956500030520       -1.09302381284503
C            1.95633635830389       -0.64121077412328        0.82305542532019
H           -3.15301738999408        0.94773719508240       -1.08211294663672
H           -2.92440066649304        0.34523241910421        0.58949307155559
H           -2.86012460333850       -0.79226059866357       -0.77071188857223
H            0.68967124476428        1.32494434401111       -1.75200123121539
H            2.44151344300368        1.08547229872265       -1.25743709565156
H            2.98926248015247       -0.46642299486041        0.53842102699337
H            1.75321962750798       -1.70980088945935        0.83296797899824
H            1.79619780371992       -0.27399645477035        1.83543801632027
 
 Bond Distances (Angstroems)
 ---------------------------
O1-C2=1.2069         C2-O1=1.2069         C2-O3=1.3427         C2-C5=1.4882         O3-C2=1.3427         O3-C4=1.4191         
C4-O3=1.4191         C4-H8=1.0870         C4-H9=1.0922         C4-H10=1.0922        C5-C2=1.4882         C5-C6=1.3285         
C5-C7=1.4953         C6-C5=1.3285         C6-H11=1.0756        C6-H12=1.0774        C7-C5=1.4953         C7-H13=1.0856        
C7-H14=1.0878        C7-H15=1.0888        H8-C4=1.0870         H9-C4=1.0922         H10-C4=1.0922        H11-C6=1.0756        
H12-C6=1.0774        H13-C7=1.0856        H14-C7=1.0878        H15-C7=1.0888        
 C  H  Rav=1.0858 sigma=0.0058  Rmin=1.0756  Rmax=1.0922     8
 C  C  Rav=1.4373 sigma=0.0770  Rmin=1.3285  Rmax=1.4953     3
 O  C  Rav=1.3229 sigma=0.0878  Rmin=1.2069  Rmax=1.4191     3
 
 selected bond angles (degree)
 --------------------
O3-C2-O1=122.87                C5-C2-O1=124.20                C5-C2-O3=112.93                C4-O3-C2=115.72                
H8-C4-O3=106.26                H9-C4-O3=110.35                H9-C4-H8=110.59                H10-C4-O3=110.38               
H10-C4-H8=110.61               H10-C4-H9=108.64               C6-C5-C2=121.41                C7-C5-C2=114.41                
C7-C5-C6=124.17                H11-C6-C5=121.64               H12-C6-C5=121.33               H12-C6-H11=117.03              
H13-C7-C5=111.03               H14-C7-C5=109.70               H14-C7-H13=109.77              H15-C7-C5=109.85               
H15-C7-H13=109.23              H15-C7-H14=107.18              
 
 selected dihedral angles (degree)
 ---------------------------------
C4-O3-C2-O1=359.62            C4-O3-C2-C5=179.65            H8-C4-O3-C2=179.30            H9-C4-O3-C2= 59.37            
H10-C4-O3-C2=299.27           C6-C5-C2-O1=169.04            C6-C5-C2-O3=349.01            C7-C5-C2-O1=350.09            
C7-C5-C2-O3=170.06            H11-C6-C5-C2=  0.79           H11-C6-C5-C7=179.63           H12-C6-C5-C2=180.82           
H12-C6-C5-C7=359.67           H13-C7-C5-C2=172.73           H13-C7-C5-C6=353.81           H14-C7-C5-C2= 51.23           
H14-C7-C5-C6=232.31           H15-C7-C5-C2=293.66           H15-C7-C5-C6=114.74           
           -------------------------------------------------
          |                Final Singlepoint                |
           -------------------------------------------------

          ...................................................
          :                      SETUP                      :
          :.................................................:
          :  # basis functions                  36          :
          :  # atomic orbitals                  36          :
          :  # shells                           22          :
          :  # electrons                        40          :
          :  max. iterations                   250          :
          :  Hamiltonian                  GFN2-xTB          :
          :  restarted?                      false          :
          :  GBSA solvation                  false          :
          :  PC potential                    false          :
          :  electronic temp.          300.0000000     K    :
          :  accuracy                    1.0000000          :
          :  -> integral cutoff          0.2500000E+02      :
          :  -> integral neglect         0.1000000E-07      :
          :  -> SCF convergence          0.1000000E-05 Eh   :
          :  -> wf. convergence          0.1000000E-03 e    :
          :  Broyden damping             0.4000000          :
          :  net charge                          0          :
          :  unpaired electrons                  0          :
          ...................................................

 iter      E             dE          RMSdq      gap      omega  full diag
   1    -23.1752924 -0.231753E+02  0.976E-05    3.88       0.0  T
   2    -23.1752924 -0.284182E-10  0.594E-05    3.88     434.8  T
   3    -23.1752924 -0.520828E-11  0.365E-05    3.88     706.8  T

   *** convergence criteria satisfied after 3 iterations ***

         #    Occupation            Energy/Eh            Energy/eV
      -------------------------------------------------------------
         1        2.0000           -0.7412473             -20.1704
       ...           ...                  ...                  ...
        14        2.0000           -0.4872313             -13.2582
        15        2.0000           -0.4765291             -12.9670
        16        2.0000           -0.4673338             -12.7168
        17        2.0000           -0.4560702             -12.4103
        18        2.0000           -0.4466403             -12.1537
        19        2.0000           -0.4175830             -11.3630
        20        2.0000           -0.4113038             -11.1921 (HOMO)
        21                         -0.2687064              -7.3119 (LUMO)
        22                         -0.1630733              -4.4375
        23                          0.0155403               0.4229
        24                          0.1039992               2.8300
        25                          0.1154348               3.1411
       ...                                ...                  ...
        36                          0.6988327              19.0162
      -------------------------------------------------------------
                  HL-Gap            0.1425975 Eh            3.8803 eV
             Fermi-level           -0.3400051 Eh           -9.2520 eV

 SCC (total)                   0 d,  0 h,  0 min,  0.005 sec
 SCC setup                      ...        0 min,  0.001 sec ( 22.248%)
 Dispersion                     ...        0 min,  0.000 sec (  3.999%)
 classical contributions        ...        0 min,  0.000 sec (  0.703%)
 integral evaluation            ...        0 min,  0.000 sec (  6.321%)
 iterations                     ...        0 min,  0.002 sec ( 39.481%)
 molecular gradient             ...        0 min,  0.001 sec ( 22.108%)
 printout                       ...        0 min,  0.000 sec (  4.712%)

         :::::::::::::::::::::::::::::::::::::::::::::::::::::
         ::                     SUMMARY                     ::
         :::::::::::::::::::::::::::::::::::::::::::::::::::::
         :: total energy             -22.894641825744 Eh    ::
         :: gradient norm              0.000585188995 Eh/a0 ::
         :: HOMO-LUMO gap              3.880274395514 eV    ::
         ::.................................................::
         :: SCC energy               -23.175280389931 Eh    ::
         :: -> isotropic ES            0.044924803229 Eh    ::
         :: -> anisotropic ES          0.001815560075 Eh    ::
         :: -> anisotropic XC          0.006350321744 Eh    ::
         :: -> dispersion             -0.008683973852 Eh    ::
         :: repulsion energy           0.280638564187 Eh    ::
         :: add. restraining           0.000000000000 Eh    ::
         :: total charge              -0.000000000000 e     ::
         :::::::::::::::::::::::::::::::::::::::::::::::::::::

           -------------------------------------------------
          |                Property Printout                |
           -------------------------------------------------

    * Orbital Energies and Occupations

         #    Occupation            Energy/Eh            Energy/eV
      -------------------------------------------------------------
         1        2.0000           -0.7412473             -20.1704
       ...           ...                  ...                  ...
         8        2.0000           -0.5840442             -15.8927
         9        2.0000           -0.5581704             -15.1886
        10        2.0000           -0.5384060             -14.6508
        11        2.0000           -0.5159098             -14.0386
        12        2.0000           -0.5105234             -13.8920
        13        2.0000           -0.4944825             -13.4556
        14        2.0000           -0.4872313             -13.2582
        15        2.0000           -0.4765291             -12.9670
        16        2.0000           -0.4673338             -12.7168
        17        2.0000           -0.4560702             -12.4103
        18        2.0000           -0.4466403             -12.1537
        19        2.0000           -0.4175830             -11.3630
        20        2.0000           -0.4113038             -11.1921 (HOMO)
        21                         -0.2687064              -7.3119 (LUMO)
        22                         -0.1630733              -4.4375
        23                          0.0155403               0.4229
        24                          0.1039992               2.8300
        25                          0.1154348               3.1411
        26                          0.1324351               3.6037
        27                          0.1597078               4.3459
        28                          0.1825831               4.9683
        29                          0.1927736               5.2456
        30                          0.2051671               5.5829
        31                          0.2200085               5.9867
       ...                                ...                  ...
        36                          0.6988327              19.0162
      -------------------------------------------------------------
                  HL-Gap            0.1425975 Eh            3.8803 eV
             Fermi-level           -0.3400051 Eh           -9.2520 eV

     #   Z          covCN         q      C6AA      α(0)
     1   8 O        0.856    -0.411    21.905     6.275
     2   6 C        2.733     0.350    21.064     7.514
     3   8 O        1.704    -0.264    18.372     5.787
     4   6 C        3.658     0.035    20.267     6.461
     5   6 C        2.937    -0.008    28.210     8.711
     6   6 C        2.844    -0.082    30.048     8.984
     7   6 C        3.759    -0.111    22.669     6.788
     8   1 H        0.925     0.066     2.125     2.280
     9   1 H        0.924     0.063     2.169     2.303
    10   1 H        0.924     0.062     2.177     2.307
    11   1 H        0.926     0.062     2.175     2.306
    12   1 H        0.926     0.056     2.248     2.345
    13   1 H        0.925     0.051     2.308     2.376
    14   1 H        0.925     0.069     2.093     2.262
    15   1 H        0.925     0.062     2.177     2.307

 Mol. C6AA /au·bohr⁶  :       2052.409749
 Mol. C8AA /au·bohr⁸  :      45514.149568
 Mol. α(0) /au        :         69.005831


Wiberg/Mayer (AO) data.
largest (>0.10) Wiberg bond orders for each atom

 ---------------------------------------------------------------------------
     #   Z sym  total        # sym  WBO       # sym  WBO       # sym  WBO
 ---------------------------------------------------------------------------
     1   8 O    2.034 --     2 C    1.733     3 O    0.169
     2   6 C    3.917 --     1 O    1.733     3 O    1.115     5 C    0.994
     3   8 O    2.300 --     2 C    1.115     4 C    0.961     1 O    0.169
     4   6 C    3.928 --     8 H    0.982    10 H    0.977     9 H    0.976
                             3 O    0.961
     5   6 C    3.987 --     6 C    1.879     7 C    1.029     2 C    0.994
     6   6 C    3.989 --     5 C    1.879    12 H    0.974    11 H    0.973
     7   6 C    3.994 --     5 C    1.029    13 H    0.984    14 H    0.968
                            15 H    0.965
     8   1 H    0.995 --     4 C    0.982
     9   1 H    0.996 --     4 C    0.976
    10   1 H    0.996 --     4 C    0.977
    11   1 H    0.996 --     6 C    0.973
    12   1 H    0.997 --     6 C    0.974
    13   1 H    0.997 --     7 C    0.984
    14   1 H    0.995 --     7 C    0.968
    15   1 H    0.996 --     7 C    0.965
 ---------------------------------------------------------------------------

Topologies differ in total number of bonds
Writing topology from bond orders to xtbtopo.mol

molecular dipole:
                 x           y           z       tot (Debye)
 q only:        0.149       0.516      -0.427
   full:        0.121       0.580      -0.482       1.942
molecular quadrupole (traceless):
                xx          xy          yy          xz          yz          zz
 q only:        7.104      -2.083      -4.442       2.401       1.173      -2.663
  q+dip:        6.663      -1.920      -4.620       2.224       1.601      -2.043
   full:        6.664      -2.164      -4.536       2.378       2.686      -2.128

           -------------------------------------------------
          |                Geometry Summary                 |
           -------------------------------------------------

      molecular mass/u    :      100.1160153
   center of mass at/Å    :       -0.1624546      -0.0770736      -0.0651509
  moments of inertia/u·Å² :        0.9882110E+02   0.2551249E+03   0.3460360E+03
rotational constants/cm⁻¹ :        0.1705874E+00   0.6607599E-01   0.4871641E-01

 * 12 selected distances

     #   Z          #   Z                                           value/Å
     1   8 O        2   6 C                                       1.2068527
     2   6 C        3   8 O                                       1.3426894
     3   8 O        4   6 C                                       1.4190598 (max)
     5   6 C        6   6 C                                       1.3284635
     4   6 C        8   1 H                                       1.0870001
     4   6 C        9   1 H                                       1.0921912
     4   6 C       10   1 H                                       1.0922032
     6   6 C       11   1 H                                       1.0755681 (min)
     6   6 C       12   1 H                                       1.0773543
     7   6 C       13   1 H                                       1.0855893
     7   6 C       14   1 H                                       1.0877682
     7   6 C       15   1 H                                       1.0887651

 * 3 distinct bonds (by element types)

   Z      Z             #   av. dist./Å        max./Å        min./Å
   1 H    6 C           8     1.0858049     1.0922032     1.0755681
   6 C    6 C           1     1.3284635     1.3284635     1.3284635
   6 C    8 O           3     1.3228673     1.4190598     1.2068527


optimized geometry written to: xtbopt.xyz


           -------------------------------------------------
          | TOTAL ENERGY              -22.894641825744 Eh   |
          | GRADIENT NORM               0.000585188995 Eh/α |
          | HOMO-LUMO GAP               3.880274395514 eV   |
           -------------------------------------------------

------------------------------------------------------------------------
 * finished run on 2025/12/01 at 14:19:54.543     
------------------------------------------------------------------------
 total:
 * wall-time:     0 d,  0 h,  0 min,  0.198 sec
 *  cpu-time:     0 d,  0 h,  0 min,  4.416 sec
 * ratio c/w:    22.297 speedup
 SCF:
 * wall-time:     0 d,  0 h,  0 min,  0.018 sec
 *  cpu-time:     0 d,  0 h,  0 min,  0.408 sec
 * ratio c/w:    22.421 speedup
 ANC optimizer:
 * wall-time:     0 d,  0 h,  0 min,  0.174 sec
 *  cpu-time:     0 d,  0 h,  0 min,  3.903 sec
 * ratio c/w:    22.483 speedup

normal termination of xtb
