      -----------------------------------------------------------      
     |                   =====================                   |     
     |                           x T B                           |     
     |                   =====================                   |     
     |                         S. Grimme                         |     
     |          Mulliken Center for Theoretical Chemistry        |     
     |                    University of Bonn                     |     
      -----------------------------------------------------------      

   * xtb version 6.7.1 (edcfbbe) compiled by 'albert@albert-system' on 2024-07-22

   xtb is free software: you can redistribute it and/or modify it under
   the terms of the GNU Lesser General Public License as published by
   the Free Software Foundation, either version 3 of the License, or
   (at your option) any later version.
   
   xtb is distributed in the hope that it will be useful,
   but WITHOUT ANY WARRANTY; without even the implied warranty of
   MERCHANTABILITY or FITNESS FOR A PARTICULAR PURPOSE.  See the
   GNU Lesser General Public License for more details.
   
   Cite this work as:
   * C. Bannwarth, E. Caldeweyher, S. Ehlert, A. Hansen, P. Pracht,
     J. Seibert, S. Spicher, S. Grimme, WIREs Comput. Mol. Sci., 2020, 11,
     e01493. DOI: 10.1002/wcms.1493
   
   for GFN2-xTB:
   * C. Bannwarth, S. Ehlert and S. Grimme., J. Chem. Theory Comput., 2019,
     15, 1652-1671. DOI: 10.1021/acs.jctc.8b01176
   for GFN1-xTB:
   * S. Grimme, C. Bannwarth, P. Shushkov, J. Chem. Theory Comput., 2017,
     13, 1989-2009. DOI: 10.1021/acs.jctc.7b00118
   for GFN0-xTB:
   * P. Pracht, E. Caldeweyher, S. Ehlert, S. Grimme, ChemRxiv, 2019, preprint.
     DOI: 10.26434/chemrxiv.8326202.v1
   for GFN-FF:
   * S. Spicher and S. Grimme, Angew. Chem. Int. Ed., 2020, 59, 15665-15673.
     DOI: 10.1002/anie.202004239
   
   for ALPB and GBSA implicit solvation:
   * S. Ehlert, M. Stahn, S. Spicher, S. Grimme, J. Chem. Theory Comput.,
     2021, 17, 4250-4261. DOI: 10.1021/acs.jctc.1c00471
   
   for ddCOSMO and CPCM-X implicit solvation:
   * M. Stahn, S. Ehlert, S. Grimme, J. Phys. Chem. A,
     2023, XX, XXXX-XXXX. DOI: 10.1021/acs.jpca.3c04382
   
   for DFT-D4:
   * E. Caldeweyher, C. Bannwarth and S. Grimme, J. Chem. Phys., 2017,
     147, 034112. DOI: 10.1063/1.4993215
   * E. Caldeweyher, S. Ehlert, A. Hansen, H. Neugebauer, S. Spicher,
     C. Bannwarth and S. Grimme, J. Chem. Phys., 2019, 150, 154122.
     DOI: 10.1063/1.5090222
   * E. Caldeweyher, J.-M. Mewes, S. Ehlert and S. Grimme, Phys. Chem. Chem. Phys.
     2020, 22, 8499-8512. DOI: 10.1039/D0CP00502A
   
   for sTDA-xTB:
   * S. Grimme and C. Bannwarth, J. Chem. Phys., 2016, 145, 054103.
     DOI: 10.1063/1.4959605
   
   in the mass-spec context:
   * V. Asgeirsson, C. Bauer and S. Grimme, Chem. Sci., 2017, 8, 4879.
     DOI: 10.1039/c7sc00601b
   * J. Koopman and S. Grimme, ACS Omega 2019, 4, 12, 15120-15133.
     DOI: 10.1021/acsomega.9b02011
   
   for metadynamics refer to:
   * S. Grimme, J. Chem. Theory Comput., 2019, 155, 2847-2862
     DOI: 10.1021/acs.jctc.9b00143
   
   for SPH calculations refer to:
   * S. Spicher and S. Grimme, J. Chem. Theory Comput., 2021, 17, 1701-1714
     DOI: 10.1021/acs.jctc.0c01306
   
   for ONIOM refer to:
   * C. Plett, A. Katbashev, S. Ehlert, S. Grimme, M. Bursch,
     Phys. Chem. Chem. Phys., 2023, 25, 17860-17868. DOI: 10.1039/D3CP02178E
   
   for DIPRO refer to:
   * J. Kohn, N. Gildemeister, S. Grimme, D. Fazzi, A. Hansen,
     J. Chem. Phys., 2023, just accepted.
   
   for PTB refer to:
   * S. Grimme, M. Mueller, A. Hansen, J. Chem. Phys., 2023, 158, 124111.
     DOI: 10.1063/5.0137838
   
   with help from (in alphabetical order)
   P. Atkinson, C. Bannwarth, F. Bohle, G. Brandenburg, E. Caldeweyher
   M. Checinski, S. Dohm, S. Ehlert, S. Ehrlich, I. Gerasimov, C. Hölzer
   A. Katbashev, J. Kohn, J. Koopman, C. Lavigne, S. Lehtola, F. März, M. Müller,
   F. Musil, H. Neugebauer, J. Pisarek, C. Plett, P. Pracht, F. Pultar,
   J. Seibert, P. Shushkov, S. Spicher, M. Stahn, M. Steiner, T. Strunk,
   J. Stückrath, T. Rose, and J. Unsleber
   
 * started run on 2025/12/01 at 14:19:54.260     
   ID    Z sym.   atoms
    1    8 O      1, 3
    2    6 C      2, 4-7
    3    1 H      8-15

           -------------------------------------------------
          |                Calculation Setup                |
           -------------------------------------------------

          program call               : xtb pipeline_data/3_conformer_xyz/acrylates/rdkit/VVQNEPGJFQJSBK-UHFFFAOYSA-N_conf82.xyz --opt --gfn 2-xTB --iterations 250
          coordinate file            : pipeline_data/3_conformer_xyz/acrylates/rdkit/VVQNEPGJFQJSBK-UHFFFAOYSA-N_conf82.xyz
          omp threads                :                    24

########################################################################
[WARNING] Please study the warnings concerning your input carefully
-1- readin_getIntValue: could not parse '2-xTB'
########################################################################

           -------------------------------------------------
          |                 G F N 2 - x T B                 |
           -------------------------------------------------

        Reference                      10.1021/acs.jctc.8b01176
      * Hamiltonian:
        H0-scaling (s, p, d)           1.850000    2.230000    2.230000
        zeta-weighting                 0.500000
      * Dispersion:
        s8                             2.700000
        a1                             0.520000
        a2                             5.000000
        s9                             5.000000
      * Repulsion:
        kExp                           1.500000    1.000000
        rExp                           1.000000
      * Coulomb:
        alpha                          2.000000
        third order                    shell-resolved
        anisotropic                    true
        a3                             3.000000
        a5                             4.000000
        cn-shift                       1.200000
        cn-exp                         4.000000
        max-rad                        5.000000

q/qsh data taken from xtbrestart
CAMM data taken from xtbrestart

          ...................................................
          :                      SETUP                      :
          :.................................................:
          :  # basis functions                  36          :
          :  # atomic orbitals                  36          :
          :  # shells                           22          :
          :  # electrons                        40          :
          :  max. iterations                   250          :
          :  Hamiltonian                  GFN2-xTB          :
          :  restarted?                       true          :
          :  GBSA solvation                  false          :
          :  PC potential                    false          :
          :  electronic temp.          300.0000000     K    :
          :  accuracy                    1.0000000          :
          :  -> integral cutoff          0.2500000E+02      :
          :  -> integral neglect         0.1000000E-07      :
          :  -> SCF convergence          0.1000000E-05 Eh   :
          :  -> wf. convergence          0.1000000E-03 e    :
          :  Broyden damping             0.4000000          :
          :  net charge                          0          :
          :  unpaired electrons                  0          :
          ...................................................

 iter      E             dE          RMSdq      gap      omega  full diag
   1    -23.1252971 -0.231253E+02  0.415E+00    3.63       0.0  T
   2    -23.1279366 -0.263940E-02  0.250E+00    3.41       1.0  T
   3    -23.1273575  0.579058E-03  0.466E-01    3.65       1.0  T
   4    -23.1287560 -0.139854E-02  0.149E-01    3.51       1.0  T
   5    -23.1287868 -0.307574E-04  0.120E-01    3.52       1.0  T
   6    -23.1288545 -0.677268E-04  0.347E-02    3.52       1.0  T
   7    -23.1288613 -0.679485E-05  0.917E-03    3.52       2.8  T
   8    -23.1288614 -0.817447E-07  0.401E-03    3.52       6.4  T
   9    -23.1288614 -0.321971E-07  0.886E-04    3.52      29.1  T
  10    -23.1288614 -0.686033E-09  0.239E-04    3.52     107.9  T

   *** convergence criteria satisfied after 10 iterations ***

         #    Occupation            Energy/Eh            Energy/eV
      -------------------------------------------------------------
         1        2.0000           -0.7340281             -19.9739
       ...           ...                  ...                  ...
        14        2.0000           -0.4915329             -13.3753
        15        2.0000           -0.4708241             -12.8118
        16        2.0000           -0.4690323             -12.7630
        17        2.0000           -0.4488307             -12.2133
        18        2.0000           -0.4393576             -11.9555
        19        2.0000           -0.4197903             -11.4231
        20        2.0000           -0.4138213             -11.2607 (HOMO)
        21                         -0.2846084              -7.7446 (LUMO)
        22                         -0.1694354              -4.6106
        23                         -0.0178844              -0.4867
        24                          0.0905083               2.4629
        25                          0.1034399               2.8147
       ...                                ...                  ...
        36                          0.6311066              17.1733
      -------------------------------------------------------------
                  HL-Gap            0.1292129 Eh            3.5161 eV
             Fermi-level           -0.3492148 Eh           -9.5026 eV

 SCC (total)                   0 d,  0 h,  0 min,  0.013 sec
 SCC setup                      ...        0 min,  0.000 sec (  1.606%)
 Dispersion                     ...        0 min,  0.000 sec (  1.353%)
 classical contributions        ...        0 min,  0.000 sec (  0.374%)
 integral evaluation            ...        0 min,  0.001 sec (  5.765%)
 iterations                     ...        0 min,  0.010 sec ( 71.265%)
 molecular gradient             ...        0 min,  0.002 sec ( 18.581%)
 printout                       ...        0 min,  0.000 sec (  0.867%)

         :::::::::::::::::::::::::::::::::::::::::::::::::::::
         ::                     SUMMARY                     ::
         :::::::::::::::::::::::::::::::::::::::::::::::::::::
         :: total energy             -22.878767227038 Eh    ::
         :: gradient norm              0.130035274549 Eh/a0 ::
         :: HOMO-LUMO gap              3.516061999036 eV    ::
         ::.................................................::
         :: SCC energy               -23.128847310770 Eh    ::
         :: -> isotropic ES            0.047912751653 Eh    ::
         :: -> anisotropic ES          0.000372629004 Eh    ::
         :: -> anisotropic XC          0.007314121512 Eh    ::
         :: -> dispersion             -0.008557394640 Eh    ::
         :: repulsion energy           0.250080083732 Eh    ::
         :: add. restraining           0.000000000000 Eh    ::
         :: total charge               0.000000000000 e     ::
         :::::::::::::::::::::::::::::::::::::::::::::::::::::

      ----------------------------------------------------------- 
     |                   =====================                   |
     |                        A N C O P T                        |
     |                   =====================                   |
     |               Approximate Normal Coordinate               |
     |                Rational Function Optimizer                |
      ----------------------------------------------------------- 
      ----------------------------------------------------------- 
     |                   =====================                   |
     |                        A N C O P T                        |
     |                   =====================                   |
     |               Approximate Normal Coordinate               |
     |                Rational Function Optimizer                |
      ----------------------------------------------------------- 

          ...................................................
          :                      SETUP                      :
          :.................................................:
          :   optimization level            normal          :
          :   max. optcycles                   200          :
          :   ANC micro-cycles                  20          :
          :   degrees of freedom                39          :
          :.................................................:
          :   RF solver                   davidson          :
          :   write xtbopt.log                true          :
          :   linear?                        false          :
          :   energy convergence         0.5000000E-05 Eh   :
          :   grad. convergence          0.1000000E-02 Eh/α :
          :   maxmium RF displ.          1.0000000          :
          :   Hlow (freq-cutoff)         0.1000000E-01      :
          :   Hmax (freq-cutoff)         5.0000000          :
          :   S6 in model hess.         20.0000000          :
          ...................................................

generating ANC from exact Hessian ...
Using Lindh-Hessian (1995)
 Shifting diagonal of input Hessian by   6.900889031647884E-003
 Lowest  eigenvalues of input Hessian
    0.000000    0.000000    0.000000    0.000000    0.000000    0.000000
    0.010000    0.010598    0.013066    0.016157    0.018018    0.022942
    0.024382    0.033513    0.036959    0.052397    0.073715    0.075709
 Highest eigenvalues
    1.125058    1.241815    1.451384    1.722596    1.973831    2.097929
 

........................................................................
.............................. CYCLE    1 ..............................
........................................................................

 iter      E             dE          RMSdq      gap      omega  full diag
   1    -23.1288614 -0.231289E+02  0.748E-05    3.52       0.0  T
   2    -23.1288614 -0.348521E-11  0.473E-05    3.52     545.6  T
   3    -23.1288614 -0.959233E-12  0.144E-05    3.52    1799.1  T
     SCC iter.                  ...        0 min,  0.002 sec
     gradient                   ...        0 min,  0.001 sec
 * total energy  :   -22.8787672 Eh     change       -0.1215312E-09 Eh
   gradient norm :     0.1300367 Eh/α   predicted     0.0000000E+00 (-100.00%)
   displ. norm   :     0.2868601 α      lambda       -0.1770970E-01
   maximum displ.:     0.1324129 α      in ANC's #7, #10, #18, ...

........................................................................
.............................. CYCLE    2 ..............................
........................................................................

 iter      E             dE          RMSdq      gap      omega  full diag
   1    -23.1594489 -0.231594E+02  0.350E-01    3.69       0.0  T
   2    -23.1597310 -0.282131E-03  0.215E-01    3.75       1.0  T
   3    -23.1596848  0.462379E-04  0.140E-01    3.74       1.0  T
   4    -23.1597751 -0.903399E-04  0.477E-02    3.75       1.0  T
   5    -23.1597998 -0.246399E-04  0.913E-03    3.74       2.8  T
   6    -23.1598002 -0.392327E-06  0.535E-03    3.75       4.8  T
   7    -23.1598002 -0.483152E-07  0.153E-03    3.75      16.8  T
   8    -23.1598002 -0.339976E-08  0.589E-04    3.75      43.8  T
   9    -23.1598002 -0.534932E-09  0.164E-04    3.75     157.8  T
     SCC iter.                  ...        0 min,  0.006 sec
     gradient                   ...        0 min,  0.001 sec
 * total energy  :   -22.8907507 Eh     change       -0.1198351E-01 Eh
   gradient norm :     0.0485019 Eh/α   predicted    -0.9583505E-02 ( -20.03%)
   displ. norm   :     0.2414719 α      lambda       -0.4162170E-02
   maximum displ.:     0.1388981 α      in ANC's #7, #3, #10, ...

........................................................................
.............................. CYCLE    3 ..............................
........................................................................

 iter      E             dE          RMSdq      gap      omega  full diag
   1    -23.1736128 -0.231736E+02  0.226E-01    3.85       0.0  T
   2    -23.1737114 -0.986101E-04  0.135E-01    3.89       1.0  T
   3    -23.1736846  0.267697E-04  0.884E-02    3.89       1.0  T
   4    -23.1737255 -0.408496E-04  0.282E-02    3.89       1.0  T
   5    -23.1737337 -0.823530E-05  0.436E-03    3.89       5.9  T
   6    -23.1737338 -0.911535E-07  0.232E-03    3.89      11.1  T
   7    -23.1737338 -0.129151E-07  0.700E-04    3.89      36.9  T
   8    -23.1737338 -0.632472E-09  0.320E-04    3.89      80.6  T
     SCC iter.                  ...        0 min,  0.006 sec
     gradient                   ...        0 min,  0.001 sec
 * total energy  :   -22.8929673 Eh     change       -0.2216550E-02 Eh
   gradient norm :     0.0132442 Eh/α   predicted    -0.2202429E-02 (  -0.64%)
   displ. norm   :     0.1325953 α      lambda       -0.4490573E-03
   maximum displ.:     0.1067835 α      in ANC's #3, #7, #10, ...

........................................................................
.............................. CYCLE    4 ..............................
........................................................................

 iter      E             dE          RMSdq      gap      omega  full diag
   1    -23.1729755 -0.231730E+02  0.638E-02    3.89       0.0  T
   2    -23.1729776 -0.205837E-05  0.386E-02    3.90       1.0  T
   3    -23.1729756  0.190534E-05  0.157E-02    3.89       1.6  T
   4    -23.1729777 -0.201043E-05  0.505E-03    3.90       5.1  T
   5    -23.1729779 -0.270455E-06  0.976E-04    3.90      26.5  T
   6    -23.1729779 -0.268210E-08  0.586E-04    3.90      44.0  T
     SCC iter.                  ...        0 min,  0.004 sec
     gradient                   ...        0 min,  0.001 sec
 * total energy  :   -22.8932347 Eh     change       -0.2674440E-03 Eh
   gradient norm :     0.0065740 Eh/α   predicted    -0.2284770E-03 ( -14.57%)
   displ. norm   :     0.1282071 α      lambda       -0.2201478E-03
   maximum displ.:     0.1041411 α      in ANC's #3, #7, #1, ...

........................................................................
.............................. CYCLE    5 ..............................
........................................................................

 iter      E             dE          RMSdq      gap      omega  full diag
   1    -23.1718405 -0.231718E+02  0.541E-02    3.90       0.0  T
   2    -23.1718415 -0.947919E-06  0.328E-02    3.90       1.0  T
   3    -23.1718396  0.182456E-05  0.141E-02    3.90       1.8  T
   4    -23.1718417 -0.204011E-05  0.314E-03    3.90       8.2  T
   5    -23.1718418 -0.858699E-07  0.885E-04    3.90      29.2  T
   6    -23.1718418 -0.920920E-09  0.449E-04    3.90      57.5  T
     SCC iter.                  ...        0 min,  0.004 sec
     gradient                   ...        0 min,  0.001 sec
 * total energy  :   -22.8933240 Eh     change       -0.8925189E-04 Eh
   gradient norm :     0.0035877 Eh/α   predicted    -0.1118834E-03 (  25.36%)
   displ. norm   :     0.0255917 α      lambda       -0.4257939E-04
   maximum displ.:     0.0114367 α      in ANC's #1, #8, #9, ...

........................................................................
.............................. CYCLE    6 ..............................
........................................................................

 iter      E             dE          RMSdq      gap      omega  full diag
   1    -23.1724301 -0.231724E+02  0.249E-02    3.90       0.0  T
   2    -23.1724302 -0.171139E-06  0.152E-02    3.90       1.7  T
   3    -23.1724297  0.536166E-06  0.726E-03    3.90       3.6  T
   4    -23.1724303 -0.608295E-06  0.153E-03    3.90      16.9  T
   5    -23.1724303 -0.200045E-07  0.403E-04    3.90      64.1  T
   6    -23.1724303 -0.203535E-09  0.210E-04    3.90     123.1  T
     SCC iter.                  ...        0 min,  0.004 sec
     gradient                   ...        0 min,  0.001 sec
 * total energy  :   -22.8933483 Eh     change       -0.2428851E-04 Eh
   gradient norm :     0.0011126 Eh/α   predicted    -0.2130303E-04 ( -12.29%)
   displ. norm   :     0.0235436 α      lambda       -0.5876599E-05
   maximum displ.:     0.0157086 α      in ANC's #2, #1, #9, ...

........................................................................
.............................. CYCLE    7 ..............................
........................................................................

 iter      E             dE          RMSdq      gap      omega  full diag
   1    -23.1727875 -0.231728E+02  0.169E-02    3.90       0.0  T
   2    -23.1727876 -0.735475E-07  0.101E-02    3.90       2.6  T
   3    -23.1727873  0.277974E-06  0.541E-03    3.90       4.8  T
   4    -23.1727876 -0.317419E-06  0.781E-04    3.90      33.1  T
   5    -23.1727876 -0.513793E-08  0.202E-04    3.90     127.6  T
     SCC iter.                  ...        0 min,  0.004 sec
     gradient                   ...        0 min,  0.001 sec
 * total energy  :   -22.8933520 Eh     change       -0.3776278E-05 Eh
   gradient norm :     0.0006457 Eh/α   predicted    -0.2939694E-05 ( -22.15%)
   displ. norm   :     0.0192950 α      lambda       -0.2277921E-05
   maximum displ.:     0.0142870 α      in ANC's #1, #2, #5, ...

   *** GEOMETRY OPTIMIZATION CONVERGED AFTER 7 ITERATIONS ***

------------------------------------------------------------------------
 total energy gain   :        -0.0145848 Eh       -9.1521 kcal/mol
 total RMSD          :         0.1743807 a0        0.0923 Å
 total power (kW/mol):        -5.4703482 (step) -775.5571 (real)
------------------------------------------------------------------------

 ANCopt (total)                0 d,  0 h,  0 min,  0.049 sec
 optimizer setup                ...        0 min,  0.000 sec (  0.231%)
 model hessian                  ...        0 min,  0.002 sec (  4.629%)
 ANC generation                 ...        0 min,  0.000 sec (  0.644%)
 coordinate transformation      ...        0 min,  0.000 sec (  0.099%)
 single point calculation       ...        0 min,  0.044 sec ( 89.440%)
 optimization log               ...        0 min,  0.001 sec (  1.137%)
 hessian update                 ...        0 min,  0.001 sec (  1.443%)
 rational function              ...        0 min,  0.001 sec (  1.604%)

================
 final structure:
================
15
 xtb: 6.7.1 (edcfbbe)
O            0.98889510957332        1.62827282863380        0.29082875069252
C            0.45076471450416        0.55501728804513        0.16667565861279
O            1.12722765413705       -0.59006758826139       -0.01556486005443
C            2.54358863119399       -0.51001111416058       -0.04955718989417
C           -1.02372952497383        0.35353423000701        0.19383024199639
C           -1.78611936801215        1.43095006008353        0.36194347537924
C           -1.58434617771051       -1.02816409713160        0.03498371678267
H            2.85581217948254        0.50114696052901       -0.31795639617655
H            2.94531492378343       -0.76430530316708        0.93342808478763
H            2.88897596868058       -1.22902213401463       -0.79038128412362
H           -2.86039943006807        1.36869135938417        0.39346795269826
H           -1.33983029876388        2.40417811465352        0.47331025538278
H           -2.18901303756791       -1.28781311914324        0.90217830034999
H           -2.22508189897389       -1.07190242393842       -0.84400131920539
H           -0.79205844528482       -1.76050606151926       -0.07246938722813
 
 Bond Distances (Angstroems)
 ---------------------------
O1-C2=1.2070         C2-O1=1.2070         C2-O3=1.3424         C2-C5=1.4884         O3-C2=1.3424         O3-C4=1.4190         
C4-O3=1.4190         C4-H8=1.0918         C4-H9=1.0919         C4-H10=1.0886        C5-C2=1.4884         C5-C6=1.3305         
C5-C7=1.4995         C6-C5=1.3305         C6-H11=1.0765        C6-H12=1.0765        C7-C5=1.4995         C7-H13=1.0886        
C7-H14=1.0886        C7-H15=1.0842        H8-C4=1.0918         H9-C4=1.0919         H10-C4=1.0886        H11-C6=1.0765        
H12-C6=1.0765        H13-C7=1.0886        H14-C7=1.0886        H15-C7=1.0842        
 C  H  Rav=1.0858 sigma=0.0058  Rmin=1.0765  Rmax=1.0919     8
 C  C  Rav=1.4395 sigma=0.0772  Rmin=1.3305  Rmax=1.4995     3
 O  C  Rav=1.3228 sigma=0.0877  Rmin=1.2070  Rmax=1.4190     3
 
 selected bond angles (degree)
 --------------------
O3-C2-O1=123.22                C5-C2-O1=124.07                C5-C2-O3=112.72                C4-O3-C2=117.26                
H8-C4-O3=110.10                H9-C4-O3=109.42                H9-C4-H8=109.38                H10-C4-O3=107.20               
H10-C4-H8=110.71               H10-C4-H9=110.00               C6-C5-C2=117.41                C7-C5-C2=119.55                
C7-C5-C6=123.04                H11-C6-C5=121.91               H12-C6-C5=120.51               H12-C6-H11=117.58              
H13-C7-C5=110.06               H14-C7-C5=110.04               H14-C7-H13=107.86              H15-C7-C5=111.08               
H15-C7-H13=108.89              H15-C7-H14=108.84              
 
 selected dihedral angles (degree)
 ---------------------------------
C4-O3-C2-O1=  0.52            C4-O3-C2-C5=180.34            H8-C4-O3-C2=337.27            H9-C4-O3-C2= 97.51            
H10-C4-O3-C2=216.77           C6-C5-C2-O1=  0.21            C6-C5-C2-O3=180.39            C7-C5-C2-O1=180.25            
C7-C5-C2-O3=  0.43            H11-C6-C5-C2=180.04           H11-C6-C5-C7=  0.00           H12-C6-C5-C2=359.96           
H12-C6-C5-C7=179.92           H13-C7-C5-C2=121.58           H13-C7-C5-C6=301.62           H14-C7-C5-C2=240.31           
H14-C7-C5-C6= 60.36           H15-C7-C5-C2=  0.90           H15-C7-C5-C6=180.95           
           -------------------------------------------------
          |                Final Singlepoint                |
           -------------------------------------------------

          ...................................................
          :                      SETUP                      :
          :.................................................:
          :  # basis functions                  36          :
          :  # atomic orbitals                  36          :
          :  # shells                           22          :
          :  # electrons                        40          :
          :  max. iterations                   250          :
          :  Hamiltonian                  GFN2-xTB          :
          :  restarted?                      false          :
          :  GBSA solvation                  false          :
          :  PC potential                    false          :
          :  electronic temp.          300.0000000     K    :
          :  accuracy                    1.0000000          :
          :  -> integral cutoff          0.2500000E+02      :
          :  -> integral neglect         0.1000000E-07      :
          :  -> SCF convergence          0.1000000E-05 Eh   :
          :  -> wf. convergence          0.1000000E-03 e    :
          :  Broyden damping             0.4000000          :
          :  net charge                          0          :
          :  unpaired electrons                  0          :
          ...................................................

 iter      E             dE          RMSdq      gap      omega  full diag
   1    -23.1727876 -0.231728E+02  0.107E-04    3.90       0.0  T
   2    -23.1727876 -0.136637E-10  0.610E-05    3.90     423.2  T
   3    -23.1727876 -0.138556E-12  0.311E-05    3.90     830.3  T

   *** convergence criteria satisfied after 3 iterations ***

         #    Occupation            Energy/Eh            Energy/eV
      -------------------------------------------------------------
         1        2.0000           -0.7416775             -20.1821
       ...           ...                  ...                  ...
        14        2.0000           -0.4893542             -13.3160
        15        2.0000           -0.4754094             -12.9365
        16        2.0000           -0.4705409             -12.8041
        17        2.0000           -0.4513940             -12.2831
        18        2.0000           -0.4453115             -12.1175
        19        2.0000           -0.4168755             -11.3438
        20        2.0000           -0.4126196             -11.2280 (HOMO)
        21                         -0.2692099              -7.3256 (LUMO)
        22                         -0.1623470              -4.4177
        23                          0.0110159               0.2998
        24                          0.0943218               2.5666
        25                          0.1288278               3.5056
       ...                                ...                  ...
        36                          0.6923741              18.8405
      -------------------------------------------------------------
                  HL-Gap            0.1434097 Eh            3.9024 eV
             Fermi-level           -0.3409148 Eh           -9.2768 eV

 SCC (total)                   0 d,  0 h,  0 min,  0.005 sec
 SCC setup                      ...        0 min,  0.001 sec ( 10.970%)
 Dispersion                     ...        0 min,  0.000 sec (  1.472%)
 classical contributions        ...        0 min,  0.000 sec (  2.813%)
 integral evaluation            ...        0 min,  0.000 sec (  8.267%)
 iterations                     ...        0 min,  0.002 sec ( 41.604%)
 molecular gradient             ...        0 min,  0.002 sec ( 30.230%)
 printout                       ...        0 min,  0.000 sec (  4.263%)

         :::::::::::::::::::::::::::::::::::::::::::::::::::::
         ::                     SUMMARY                     ::
         :::::::::::::::::::::::::::::::::::::::::::::::::::::
         :: total energy             -22.893352046339 Eh    ::
         :: gradient norm              0.000645236195 Eh/a0 ::
         :: HOMO-LUMO gap              3.902376471239 eV    ::
         ::.................................................::
         :: SCC energy               -23.172771627753 Eh    ::
         :: -> isotropic ES            0.045457558604 Eh    ::
         :: -> anisotropic ES          0.000337325987 Eh    ::
         :: -> anisotropic XC          0.006444512440 Eh    ::
         :: -> dispersion             -0.008661973822 Eh    ::
         :: repulsion energy           0.279419581414 Eh    ::
         :: add. restraining           0.000000000000 Eh    ::
         :: total charge               0.000000000000 e     ::
         :::::::::::::::::::::::::::::::::::::::::::::::::::::

           -------------------------------------------------
          |                Property Printout                |
           -------------------------------------------------

    * Orbital Energies and Occupations

         #    Occupation            Energy/Eh            Energy/eV
      -------------------------------------------------------------
         1        2.0000           -0.7416775             -20.1821
       ...           ...                  ...                  ...
         8        2.0000           -0.5840069             -15.8916
         9        2.0000           -0.5580732             -15.1859
        10        2.0000           -0.5394716             -14.6798
        11        2.0000           -0.5177671             -14.0892
        12        2.0000           -0.5101230             -13.8812
        13        2.0000           -0.4928075             -13.4100
        14        2.0000           -0.4893542             -13.3160
        15        2.0000           -0.4754094             -12.9365
        16        2.0000           -0.4705409             -12.8041
        17        2.0000           -0.4513940             -12.2831
        18        2.0000           -0.4453115             -12.1175
        19        2.0000           -0.4168755             -11.3438
        20        2.0000           -0.4126196             -11.2280 (HOMO)
        21                         -0.2692099              -7.3256 (LUMO)
        22                         -0.1623470              -4.4177
        23                          0.0110159               0.2998
        24                          0.0943218               2.5666
        25                          0.1288278               3.5056
        26                          0.1369556               3.7268
        27                          0.1629580               4.4343
        28                          0.1775361               4.8310
        29                          0.1891883               5.1481
        30                          0.1954956               5.3197
        31                          0.2179979               5.9320
       ...                                ...                  ...
        36                          0.6923741              18.8405
      -------------------------------------------------------------
                  HL-Gap            0.1434097 Eh            3.9024 eV
             Fermi-level           -0.3409148 Eh           -9.2768 eV

     #   Z          covCN         q      C6AA      α(0)
     1   8 O        0.856    -0.417    22.033     6.293
     2   6 C        2.731     0.351    21.045     7.511
     3   8 O        1.704    -0.261    18.323     5.779
     4   6 C        3.651     0.030    20.385     6.485
     5   6 C        2.937    -0.009    28.244     8.716
     6   6 C        2.852    -0.078    29.942     8.968
     7   6 C        3.757    -0.116    22.776     6.804
     8   1 H        0.924     0.074     2.044     2.236
     9   1 H        0.924     0.058     2.225     2.333
    10   1 H        0.925     0.063     2.167     2.302
    11   1 H        0.926     0.058     2.223     2.331
    12   1 H        0.926     0.073     2.058     2.243
    13   1 H        0.925     0.056     2.243     2.342
    14   1 H        0.925     0.057     2.239     2.340
    15   1 H        0.925     0.063     2.160     2.298

 Mol. C6AA /au·bohr⁶  :       2051.054046
 Mol. C8AA /au·bohr⁸  :      45508.277310
 Mol. α(0) /au        :         68.982648


Wiberg/Mayer (AO) data.
largest (>0.10) Wiberg bond orders for each atom

 ---------------------------------------------------------------------------
     #   Z sym  total        # sym  WBO       # sym  WBO       # sym  WBO
 ---------------------------------------------------------------------------
     1   8 O    2.034 --     2 C    1.723     3 O    0.170
     2   6 C    3.917 --     1 O    1.723     3 O    1.118     5 C    0.997
     3   8 O    2.307 --     2 C    1.118     4 C    0.960     1 O    0.170
     4   6 C    3.926 --    10 H    0.980     9 H    0.976     8 H    0.974
                             3 O    0.960
     5   6 C    3.986 --     6 C    1.879     7 C    1.024     2 C    0.997
     6   6 C    3.986 --     5 C    1.879    11 H    0.976    12 H    0.971
     7   6 C    3.994 --     5 C    1.024    15 H    0.982    13 H    0.971
                            14 H    0.971
     8   1 H    0.995 --     4 C    0.974
     9   1 H    0.997 --     4 C    0.976
    10   1 H    0.995 --     4 C    0.980
    11   1 H    0.996 --     6 C    0.976
    12   1 H    0.995 --     6 C    0.971
    13   1 H    0.997 --     7 C    0.971
    14   1 H    0.997 --     7 C    0.971
    15   1 H    0.996 --     7 C    0.982
 ---------------------------------------------------------------------------

Topologies differ in total number of bonds
Writing topology from bond orders to xtbtopo.mol

molecular dipole:
                 x           y           z       tot (Debye)
 q only:       -0.265      -0.788      -0.110
   full:       -0.262      -0.875      -0.112       2.339
molecular quadrupole (traceless):
                xx          xy          yy          xz          yz          zz
 q only:        6.703      -4.080      -4.713      -1.062      -0.472      -1.990
  q+dip:        6.768      -4.706      -5.401      -1.045      -0.669      -1.368
   full:        6.534      -4.626      -6.265      -0.996      -0.922      -0.269

           -------------------------------------------------
          |                Geometry Summary                 |
           -------------------------------------------------

      molecular mass/u    :      100.1160153
   center of mass at/Å    :        0.1630270       0.2435279       0.1357338
  moments of inertia/u·Å² :        0.1049621E+03   0.2477509E+03   0.3463900E+03
rotational constants/cm⁻¹ :        0.1606069E+00   0.6804266E-01   0.4866663E-01

 * 12 selected distances

     #   Z          #   Z                                           value/Å
     1   8 O        2   6 C                                       1.2070112
     2   6 C        3   8 O                                       1.3423984
     3   8 O        4   6 C                                       1.4190290 (max)
     5   6 C        6   6 C                                       1.3305358
     4   6 C        8   1 H                                       1.0917704
     4   6 C        9   1 H                                       1.0919294
     4   6 C       10   1 H                                       1.0886183
     6   6 C       11   1 H                                       1.0765444
     6   6 C       12   1 H                                       1.0764523 (min)
     7   6 C       13   1 H                                       1.0886075
     7   6 C       14   1 H                                       1.0886093
     7   6 C       15   1 H                                       1.0842467

 * 3 distinct bonds (by element types)

   Z      Z             #   av. dist./Å        max./Å        min./Å
   1 H    6 C           8     1.0858473     1.0919294     1.0764523
   6 C    6 C           1     1.3305358     1.3305358     1.3305358
   6 C    8 O           3     1.3228129     1.4190290     1.2070112


optimized geometry written to: xtbopt.xyz


           -------------------------------------------------
          | TOTAL ENERGY              -22.893352046339 Eh   |
          | GRADIENT NORM               0.000645236195 Eh/α |
          | HOMO-LUMO GAP               3.902376471239 eV   |
           -------------------------------------------------

------------------------------------------------------------------------
 * finished run on 2025/12/01 at 14:19:54.338     
------------------------------------------------------------------------
 total:
 * wall-time:     0 d,  0 h,  0 min,  0.077 sec
 *  cpu-time:     0 d,  0 h,  0 min,  1.690 sec
 * ratio c/w:    21.919 speedup
 SCF:
 * wall-time:     0 d,  0 h,  0 min,  0.014 sec
 *  cpu-time:     0 d,  0 h,  0 min,  0.298 sec
 * ratio c/w:    22.032 speedup
 ANC optimizer:
 * wall-time:     0 d,  0 h,  0 min,  0.056 sec
 *  cpu-time:     0 d,  0 h,  0 min,  1.260 sec
 * ratio c/w:    22.654 speedup

normal termination of xtb
