      -----------------------------------------------------------      
     |                   =====================                   |     
     |                           x T B                           |     
     |                   =====================                   |     
     |                         S. Grimme                         |     
     |          Mulliken Center for Theoretical Chemistry        |     
     |                    University of Bonn                     |     
      -----------------------------------------------------------      

   * xtb version 6.7.1 (edcfbbe) compiled by 'albert@albert-system' on 2024-07-22

   xtb is free software: you can redistribute it and/or modify it under
   the terms of the GNU Lesser General Public License as published by
   the Free Software Foundation, either version 3 of the License, or
   (at your option) any later version.
   
   xtb is distributed in the hope that it will be useful,
   but WITHOUT ANY WARRANTY; without even the implied warranty of
   MERCHANTABILITY or FITNESS FOR A PARTICULAR PURPOSE.  See the
   GNU Lesser General Public License for more details.
   
   Cite this work as:
   * C. Bannwarth, E. Caldeweyher, S. Ehlert, A. Hansen, P. Pracht,
     J. Seibert, S. Spicher, S. Grimme, WIREs Comput. Mol. Sci., 2020, 11,
     e01493. DOI: 10.1002/wcms.1493
   
   for GFN2-xTB:
   * C. Bannwarth, S. Ehlert and S. Grimme., J. Chem. Theory Comput., 2019,
     15, 1652-1671. DOI: 10.1021/acs.jctc.8b01176
   for GFN1-xTB:
   * S. Grimme, C. Bannwarth, P. Shushkov, J. Chem. Theory Comput., 2017,
     13, 1989-2009. DOI: 10.1021/acs.jctc.7b00118
   for GFN0-xTB:
   * P. Pracht, E. Caldeweyher, S. Ehlert, S. Grimme, ChemRxiv, 2019, preprint.
     DOI: 10.26434/chemrxiv.8326202.v1
   for GFN-FF:
   * S. Spicher and S. Grimme, Angew. Chem. Int. Ed., 2020, 59, 15665-15673.
     DOI: 10.1002/anie.202004239
   
   for ALPB and GBSA implicit solvation:
   * S. Ehlert, M. Stahn, S. Spicher, S. Grimme, J. Chem. Theory Comput.,
     2021, 17, 4250-4261. DOI: 10.1021/acs.jctc.1c00471
   
   for ddCOSMO and CPCM-X implicit solvation:
   * M. Stahn, S. Ehlert, S. Grimme, J. Phys. Chem. A,
     2023, XX, XXXX-XXXX. DOI: 10.1021/acs.jpca.3c04382
   
   for DFT-D4:
   * E. Caldeweyher, C. Bannwarth and S. Grimme, J. Chem. Phys., 2017,
     147, 034112. DOI: 10.1063/1.4993215
   * E. Caldeweyher, S. Ehlert, A. Hansen, H. Neugebauer, S. Spicher,
     C. Bannwarth and S. Grimme, J. Chem. Phys., 2019, 150, 154122.
     DOI: 10.1063/1.5090222
   * E. Caldeweyher, J.-M. Mewes, S. Ehlert and S. Grimme, Phys. Chem. Chem. Phys.
     2020, 22, 8499-8512. DOI: 10.1039/D0CP00502A
   
   for sTDA-xTB:
   * S. Grimme and C. Bannwarth, J. Chem. Phys., 2016, 145, 054103.
     DOI: 10.1063/1.4959605
   
   in the mass-spec context:
   * V. Asgeirsson, C. Bauer and S. Grimme, Chem. Sci., 2017, 8, 4879.
     DOI: 10.1039/c7sc00601b
   * J. Koopman and S. Grimme, ACS Omega 2019, 4, 12, 15120-15133.
     DOI: 10.1021/acsomega.9b02011
   
   for metadynamics refer to:
   * S. Grimme, J. Chem. Theory Comput., 2019, 155, 2847-2862
     DOI: 10.1021/acs.jctc.9b00143
   
   for SPH calculations refer to:
   * S. Spicher and S. Grimme, J. Chem. Theory Comput., 2021, 17, 1701-1714
     DOI: 10.1021/acs.jctc.0c01306
   
   for ONIOM refer to:
   * C. Plett, A. Katbashev, S. Ehlert, S. Grimme, M. Bursch,
     Phys. Chem. Chem. Phys., 2023, 25, 17860-17868. DOI: 10.1039/D3CP02178E
   
   for DIPRO refer to:
   * J. Kohn, N. Gildemeister, S. Grimme, D. Fazzi, A. Hansen,
     J. Chem. Phys., 2023, just accepted.
   
   for PTB refer to:
   * S. Grimme, M. Mueller, A. Hansen, J. Chem. Phys., 2023, 158, 124111.
     DOI: 10.1063/5.0137838
   
   with help from (in alphabetical order)
   P. Atkinson, C. Bannwarth, F. Bohle, G. Brandenburg, E. Caldeweyher
   M. Checinski, S. Dohm, S. Ehlert, S. Ehrlich, I. Gerasimov, C. Hölzer
   A. Katbashev, J. Kohn, J. Koopman, C. Lavigne, S. Lehtola, F. März, M. Müller,
   F. Musil, H. Neugebauer, J. Pisarek, C. Plett, P. Pracht, F. Pultar,
   J. Seibert, P. Shushkov, S. Spicher, M. Stahn, M. Steiner, T. Strunk,
   J. Stückrath, T. Rose, and J. Unsleber
   
 * started run on 2025/12/01 at 14:19:53.883     
   ID    Z sym.   atoms
    1    8 O      1, 3
    2    6 C      2, 4-7
    3    1 H      8-15

           -------------------------------------------------
          |                Calculation Setup                |
           -------------------------------------------------

          program call               : xtb pipeline_data/3_conformer_xyz/acrylates/rdkit/VVQNEPGJFQJSBK-UHFFFAOYSA-N_conf59.xyz --opt --gfn 2-xTB --iterations 250
          coordinate file            : pipeline_data/3_conformer_xyz/acrylates/rdkit/VVQNEPGJFQJSBK-UHFFFAOYSA-N_conf59.xyz
          omp threads                :                    24

########################################################################
[WARNING] Please study the warnings concerning your input carefully
-1- readin_getIntValue: could not parse '2-xTB'
########################################################################

           -------------------------------------------------
          |                 G F N 2 - x T B                 |
           -------------------------------------------------

        Reference                      10.1021/acs.jctc.8b01176
      * Hamiltonian:
        H0-scaling (s, p, d)           1.850000    2.230000    2.230000
        zeta-weighting                 0.500000
      * Dispersion:
        s8                             2.700000
        a1                             0.520000
        a2                             5.000000
        s9                             5.000000
      * Repulsion:
        kExp                           1.500000    1.000000
        rExp                           1.000000
      * Coulomb:
        alpha                          2.000000
        third order                    shell-resolved
        anisotropic                    true
        a3                             3.000000
        a5                             4.000000
        cn-shift                       1.200000
        cn-exp                         4.000000
        max-rad                        5.000000

q/qsh data taken from xtbrestart
CAMM data taken from xtbrestart

          ...................................................
          :                      SETUP                      :
          :.................................................:
          :  # basis functions                  36          :
          :  # atomic orbitals                  36          :
          :  # shells                           22          :
          :  # electrons                        40          :
          :  max. iterations                   250          :
          :  Hamiltonian                  GFN2-xTB          :
          :  restarted?                       true          :
          :  GBSA solvation                  false          :
          :  PC potential                    false          :
          :  electronic temp.          300.0000000     K    :
          :  accuracy                    1.0000000          :
          :  -> integral cutoff          0.2500000E+02      :
          :  -> integral neglect         0.1000000E-07      :
          :  -> SCF convergence          0.1000000E-05 Eh   :
          :  -> wf. convergence          0.1000000E-03 e    :
          :  Broyden damping             0.4000000          :
          :  net charge                          0          :
          :  unpaired electrons                  0          :
          ...................................................

 iter      E             dE          RMSdq      gap      omega  full diag
   1    -23.1330952 -0.231331E+02  0.445E+00    3.63       0.0  T
   2    -23.1369404 -0.384516E-02  0.267E+00    3.49       1.0  T
   3    -23.1371138 -0.173450E-03  0.355E-01    3.58       1.0  T
   4    -23.1379091 -0.795258E-03  0.205E-01    3.54       1.0  T
   5    -23.1380725 -0.163441E-03  0.107E-01    3.53       1.0  T
   6    -23.1380983 -0.258465E-04  0.513E-02    3.56       1.0  T
   7    -23.1381180 -0.196346E-04  0.885E-03    3.55       2.9  T
   8    -23.1381181 -0.673167E-07  0.384E-03    3.55       6.7  T
   9    -23.1381181 -0.206958E-07  0.102E-03    3.55      25.4  T
  10    -23.1381181 -0.109344E-08  0.305E-04    3.55      84.7  T
  11    -23.1381181 -0.218819E-09  0.103E-04    3.55     249.8  T

   *** convergence criteria satisfied after 11 iterations ***

         #    Occupation            Energy/Eh            Energy/eV
      -------------------------------------------------------------
         1        2.0000           -0.7295029             -19.8508
       ...           ...                  ...                  ...
        14        2.0000           -0.4904428             -13.3456
        15        2.0000           -0.4707590             -12.8100
        16        2.0000           -0.4642819             -12.6338
        17        2.0000           -0.4535518             -12.3418
        18        2.0000           -0.4391019             -11.9486
        19        2.0000           -0.4207667             -11.4496
        20        2.0000           -0.4123710             -11.2212 (HOMO)
        21                         -0.2819870              -7.6733 (LUMO)
        22                         -0.1693592              -4.6085
        23                         -0.0257315              -0.7002
        24                          0.0963871               2.6228
        25                          0.1007957               2.7428
       ...                                ...                  ...
        36                          0.6335486              17.2397
      -------------------------------------------------------------
                  HL-Gap            0.1303840 Eh            3.5479 eV
             Fermi-level           -0.3471790 Eh           -9.4472 eV

 SCC (total)                   0 d,  0 h,  0 min,  0.019 sec
 SCC setup                      ...        0 min,  0.000 sec (  1.258%)
 Dispersion                     ...        0 min,  0.000 sec (  1.507%)
 classical contributions        ...        0 min,  0.000 sec (  1.170%)
 integral evaluation            ...        0 min,  0.001 sec (  2.666%)
 iterations                     ...        0 min,  0.016 sec ( 81.315%)
 molecular gradient             ...        0 min,  0.002 sec ( 11.354%)
 printout                       ...        0 min,  0.000 sec (  0.596%)

         :::::::::::::::::::::::::::::::::::::::::::::::::::::
         ::                     SUMMARY                     ::
         :::::::::::::::::::::::::::::::::::::::::::::::::::::
         :: total energy             -22.881074129342 Eh    ::
         :: gradient norm              0.111079475381 Eh/a0 ::
         :: HOMO-LUMO gap              3.547928365273 eV    ::
         ::.................................................::
         :: SCC energy               -23.138109536921 Eh    ::
         :: -> isotropic ES            0.047784365543 Eh    ::
         :: -> anisotropic ES          0.000821709920 Eh    ::
         :: -> anisotropic XC          0.006594957564 Eh    ::
         :: -> dispersion             -0.008534485608 Eh    ::
         :: repulsion energy           0.257035407579 Eh    ::
         :: add. restraining           0.000000000000 Eh    ::
         :: total charge              -0.000000000000 e     ::
         :::::::::::::::::::::::::::::::::::::::::::::::::::::

      ----------------------------------------------------------- 
     |                   =====================                   |
     |                        A N C O P T                        |
     |                   =====================                   |
     |               Approximate Normal Coordinate               |
     |                Rational Function Optimizer                |
      ----------------------------------------------------------- 
      ----------------------------------------------------------- 
     |                   =====================                   |
     |                        A N C O P T                        |
     |                   =====================                   |
     |               Approximate Normal Coordinate               |
     |                Rational Function Optimizer                |
      ----------------------------------------------------------- 

          ...................................................
          :                      SETUP                      :
          :.................................................:
          :   optimization level            normal          :
          :   max. optcycles                   200          :
          :   ANC micro-cycles                  20          :
          :   degrees of freedom                39          :
          :.................................................:
          :   RF solver                   davidson          :
          :   write xtbopt.log                true          :
          :   linear?                        false          :
          :   energy convergence         0.5000000E-05 Eh   :
          :   grad. convergence          0.1000000E-02 Eh/α :
          :   maxmium RF displ.          1.0000000          :
          :   Hlow (freq-cutoff)         0.1000000E-01      :
          :   Hmax (freq-cutoff)         5.0000000          :
          :   S6 in model hess.         20.0000000          :
          ...................................................

generating ANC from exact Hessian ...
Using Lindh-Hessian (1995)
 Shifting diagonal of input Hessian by   7.208570169942884E-003
 Lowest  eigenvalues of input Hessian
    0.000000    0.000000    0.000000    0.000000    0.000000    0.000000
    0.010000    0.010826    0.013876    0.016783    0.019611    0.024737
    0.026014    0.034177    0.036233    0.047310    0.074762    0.079524
 Highest eigenvalues
    1.135967    1.265121    1.492838    1.822036    1.880936    2.167787
 

........................................................................
.............................. CYCLE    1 ..............................
........................................................................

 iter      E             dE          RMSdq      gap      omega  full diag
   1    -23.1381181 -0.231381E+02  0.293E-05    3.55       0.0  T
   2    -23.1381181 -0.710543E-12  0.187E-05    3.55    1380.8  T
   3    -23.1381181  0.102673E-11  0.138E-05    3.55    1864.6  T
     SCC iter.                  ...        0 min,  0.003 sec
     gradient                   ...        0 min,  0.001 sec
 * total energy  :   -22.8810741 Eh     change       -0.1369571E-10 Eh
   gradient norm :     0.1110800 Eh/α   predicted     0.0000000E+00 (-100.00%)
   displ. norm   :     0.3190255 α      lambda       -0.1441441E-01
   maximum displ.:     0.2099376 α      in ANC's #7, #10, #21, ...

........................................................................
.............................. CYCLE    2 ..............................
........................................................................

 iter      E             dE          RMSdq      gap      omega  full diag
   1    -23.1616456 -0.231616E+02  0.323E-01    3.67       0.0  T
   2    -23.1618381 -0.192515E-03  0.195E-01    3.71       1.0  T
   3    -23.1618331  0.499813E-05  0.697E-02    3.73       1.0  T
   4    -23.1618477 -0.145749E-04  0.173E-02    3.71       1.5  T
   5    -23.1618497 -0.202771E-05  0.829E-03    3.72       3.1  T
   6    -23.1618502 -0.437868E-06  0.427E-03    3.72       6.0  T
   7    -23.1618503 -0.144718E-06  0.971E-04    3.72      26.6  T
   8    -23.1618503 -0.112291E-08  0.428E-04    3.72      60.4  T
     SCC iter.                  ...        0 min,  0.007 sec
     gradient                   ...        0 min,  0.001 sec
 * total energy  :   -22.8911527 Eh     change       -0.1007857E-01 Eh
   gradient norm :     0.0459504 Eh/α   predicted    -0.7940740E-02 ( -21.21%)
   displ. norm   :     0.3020619 α      lambda       -0.4666111E-02
   maximum displ.:     0.2302511 α      in ANC's #7, #10, #3, ...

........................................................................
.............................. CYCLE    3 ..............................
........................................................................

 iter      E             dE          RMSdq      gap      omega  full diag
   1    -23.1743461 -0.231743E+02  0.233E-01    3.81       0.0  T
   2    -23.1744416 -0.954917E-04  0.141E-01    3.83       1.0  T
   3    -23.1744390  0.254578E-05  0.497E-02    3.84       1.0  T
   4    -23.1744458 -0.683960E-05  0.149E-02    3.83       1.7  T
   5    -23.1744473 -0.145242E-05  0.745E-03    3.84       3.5  T
   6    -23.1744478 -0.537086E-06  0.291E-03    3.84       8.9  T
   7    -23.1744479 -0.544332E-07  0.682E-04    3.84      37.9  T
   8    -23.1744479 -0.457987E-09  0.305E-04    3.84      84.7  T
     SCC iter.                  ...        0 min,  0.007 sec
     gradient                   ...        0 min,  0.001 sec
 * total energy  :   -22.8936965 Eh     change       -0.2543761E-02 Eh
   gradient norm :     0.0135099 Eh/α   predicted    -0.2545927E-02 (   0.09%)
   displ. norm   :     0.1173495 α      lambda       -0.4002169E-03
   maximum displ.:     0.0797841 α      in ANC's #7, #3, #2, ...

........................................................................
.............................. CYCLE    4 ..............................
........................................................................

 iter      E             dE          RMSdq      gap      omega  full diag
   1    -23.1739350 -0.231739E+02  0.680E-02    3.85       0.0  T
   2    -23.1739432 -0.825815E-05  0.414E-02    3.84       1.0  T
   3    -23.1739424  0.820980E-06  0.179E-02    3.85       1.4  T
   4    -23.1739427 -0.353058E-06  0.922E-03    3.84       2.8  T
   5    -23.1739438 -0.102942E-05  0.157E-03    3.85      16.4  T
   6    -23.1739438 -0.203691E-07  0.665E-04    3.85      38.8  T
   7    -23.1739438 -0.752976E-09  0.213E-04    3.85     120.9  T
     SCC iter.                  ...        0 min,  0.006 sec
     gradient                   ...        0 min,  0.001 sec
 * total energy  :   -22.8939445 Eh     change       -0.2479958E-03 Eh
   gradient norm :     0.0071660 Eh/α   predicted    -0.2028631E-03 ( -18.20%)
   displ. norm   :     0.1174655 α      lambda       -0.1920387E-03
   maximum displ.:     0.0862374 α      in ANC's #3, #7, #1, ...

........................................................................
.............................. CYCLE    5 ..............................
........................................................................

 iter      E             dE          RMSdq      gap      omega  full diag
   1    -23.1732527 -0.231733E+02  0.596E-02    3.85       0.0  T
   2    -23.1732592 -0.655206E-05  0.347E-02    3.85       1.0  T
   3    -23.1732592 -0.326095E-07  0.133E-02    3.85       1.9  T
   4    -23.1732594 -0.156213E-06  0.337E-03    3.85       7.7  T
   5    -23.1732595 -0.960212E-07  0.139E-03    3.85      18.5  T
   6    -23.1732595 -0.148732E-07  0.672E-04    3.85      38.4  T
   7    -23.1732595 -0.143845E-08  0.233E-04    3.85     111.0  T
     SCC iter.                  ...        0 min,  0.006 sec
     gradient                   ...        0 min,  0.001 sec
 * total energy  :   -22.8940424 Eh     change       -0.9799197E-04 Eh
   gradient norm :     0.0035458 Eh/α   predicted    -0.9734237E-04 (  -0.66%)
   displ. norm   :     0.0418328 α      lambda       -0.4194007E-04
   maximum displ.:     0.0300149 α      in ANC's #3, #1, #4, ...

........................................................................
.............................. CYCLE    6 ..............................
........................................................................

 iter      E             dE          RMSdq      gap      omega  full diag
   1    -23.1736480 -0.231736E+02  0.233E-02    3.85       0.0  T
   2    -23.1736481 -0.169407E-06  0.138E-02    3.85       1.9  T
   3    -23.1736474  0.702431E-06  0.911E-03    3.85       2.8  T
   4    -23.1736483 -0.874209E-06  0.125E-03    3.85      20.6  T
   5    -23.1736483 -0.928464E-08  0.491E-04    3.85      52.6  T
   6    -23.1736483 -0.403709E-09  0.204E-04    3.85     126.8  T
     SCC iter.                  ...        0 min,  0.005 sec
     gradient                   ...        0 min,  0.002 sec
 * total energy  :   -22.8940702 Eh     change       -0.2774396E-04 Eh
   gradient norm :     0.0018480 Eh/α   predicted    -0.2100658E-04 ( -24.28%)
   displ. norm   :     0.0659150 α      lambda       -0.1940150E-04
   maximum displ.:     0.0400732 α      in ANC's #1, #4, #3, ...

........................................................................
.............................. CYCLE    7 ..............................
........................................................................

 iter      E             dE          RMSdq      gap      omega  full diag
   1    -23.1739944 -0.231740E+02  0.260E-02    3.85       0.0  T
   2    -23.1739945 -0.866402E-07  0.160E-02    3.85       1.6  T
   3    -23.1739935  0.105710E-05  0.114E-02    3.85       2.3  T
   4    -23.1739948 -0.137279E-05  0.921E-04    3.85      28.0  T
   5    -23.1739948 -0.410615E-08  0.457E-04    3.85      56.5  T
   6    -23.1739948 -0.261224E-09  0.169E-04    3.85     152.8  T
     SCC iter.                  ...        0 min,  0.005 sec
     gradient                   ...        0 min,  0.002 sec
 * total energy  :   -22.8940871 Eh     change       -0.1694021E-04 Eh
   gradient norm :     0.0016571 Eh/α   predicted    -0.9720352E-05 ( -42.62%)
   displ. norm   :     0.0630201 α      lambda       -0.1229482E-04
   maximum displ.:     0.0463675 α      in ANC's #4, #1, #3, ...

........................................................................
.............................. CYCLE    8 ..............................
........................................................................

 iter      E             dE          RMSdq      gap      omega  full diag
   1    -23.1739465 -0.231739E+02  0.233E-02    3.85       0.0  T
   2    -23.1739466 -0.805043E-07  0.139E-02    3.85       1.9  T
   3    -23.1739464  0.187792E-06  0.427E-03    3.85       6.0  T
   4    -23.1739466 -0.206612E-06  0.987E-04    3.85      26.2  T
   5    -23.1739466 -0.109129E-07  0.329E-04    3.85      78.4  T
     SCC iter.                  ...        0 min,  0.005 sec
     gradient                   ...        0 min,  0.001 sec
 * total energy  :   -22.8941045 Eh     change       -0.1739429E-04 Eh
   gradient norm :     0.0017860 Eh/α   predicted    -0.6159210E-05 ( -64.59%)
   displ. norm   :     0.2313437 α      lambda       -0.4844154E-04
   maximum displ.:     0.1758232 α      in ANC's #4, #1, #6, ...

........................................................................
.............................. CYCLE    9 ..............................
........................................................................

 iter      E             dE          RMSdq      gap      omega  full diag
   1    -23.1730442 -0.231730E+02  0.943E-02    3.85       0.0  T
   2    -23.1730456 -0.136930E-05  0.555E-02    3.85       1.0  T
   3    -23.1730448  0.791526E-06  0.100E-02    3.85       2.6  T
   4    -23.1730457 -0.919595E-06  0.358E-03    3.85       7.2  T
   5    -23.1730458 -0.132175E-06  0.143E-03    3.85      18.1  T
   6    -23.1730458 -0.602684E-08  0.665E-04    3.85      38.8  T
   7    -23.1730458 -0.118019E-08  0.128E-04    3.85     201.7  T
     SCC iter.                  ...        0 min,  0.006 sec
     gradient                   ...        0 min,  0.002 sec
 * total energy  :   -22.8941611 Eh     change       -0.5662055E-04 Eh
   gradient norm :     0.0042105 Eh/α   predicted    -0.2479758E-04 ( -56.20%)
   displ. norm   :     0.2181308 α      lambda       -0.5808714E-04
   maximum displ.:     0.1638239 α      in ANC's #4, #1, #6, ...

........................................................................
.............................. CYCLE   10 ..............................
........................................................................

 iter      E             dE          RMSdq      gap      omega  full diag
   1    -23.1720324 -0.231720E+02  0.866E-02    3.85       0.0  T
   2    -23.1720335 -0.117862E-05  0.509E-02    3.85       1.0  T
   3    -23.1720329  0.692424E-06  0.929E-03    3.85       2.8  T
   4    -23.1720336 -0.779128E-06  0.355E-03    3.85       7.3  T
   5    -23.1720338 -0.135393E-06  0.131E-03    3.85      19.6  T
   6    -23.1720338 -0.349618E-08  0.580E-04    3.85      44.5  T
   7    -23.1720338 -0.106099E-08  0.127E-04    3.85     202.9  T
     SCC iter.                  ...        0 min,  0.007 sec
     gradient                   ...        0 min,  0.001 sec
 * total energy  :   -22.8941870 Eh     change       -0.2585362E-04 Eh
   gradient norm :     0.0075509 Eh/α   predicted    -0.3042214E-04 (  17.67%)
   displ. norm   :     0.0350340 α      lambda       -0.6475546E-04
   maximum displ.:     0.0161501 α      in ANC's #4, #1, #3, ...

........................................................................
.............................. CYCLE   11 ..............................
........................................................................

 iter      E             dE          RMSdq      gap      omega  full diag
   1    -23.1731746 -0.231732E+02  0.264E-02    3.85       0.0  T
   2    -23.1731750 -0.411453E-06  0.151E-02    3.85       1.7  T
   3    -23.1731750  0.348923E-07  0.358E-03    3.85       7.2  T
   4    -23.1731750 -0.300605E-07  0.174E-03    3.85      14.8  T
   5    -23.1731751 -0.366842E-07  0.542E-04    3.85      47.6  T
   6    -23.1731751 -0.633630E-09  0.212E-04    3.85     121.8  T
     SCC iter.                  ...        0 min,  0.006 sec
     gradient                   ...        0 min,  0.002 sec
 * total energy  :   -22.8942349 Eh     change       -0.4787765E-04 Eh
   gradient norm :     0.0051941 Eh/α   predicted    -0.3241702E-04 ( -32.29%)
   displ. norm   :     0.2189853 α      lambda       -0.1050701E-03
   maximum displ.:     0.1570943 α      in ANC's #4, #1, #6, ...

........................................................................
.............................. CYCLE   12 ..............................
........................................................................

 iter      E             dE          RMSdq      gap      omega  full diag
   1    -23.1734115 -0.231734E+02  0.106E-01    3.86       0.0  T
   2    -23.1734119 -0.390871E-06  0.626E-02    3.86       1.0  T
   3    -23.1734110  0.879415E-06  0.906E-03    3.86       2.9  T
   4    -23.1734121 -0.108800E-05  0.248E-03    3.86      10.4  T
   5    -23.1734121 -0.284770E-07  0.126E-03    3.86      20.5  T
   6    -23.1734121 -0.202855E-08  0.332E-04    3.86      77.8  T
   7    -23.1734121 -0.421981E-09  0.900E-05    3.86     286.9  T
     SCC iter.                  ...        0 min,  0.006 sec
     gradient                   ...        0 min,  0.001 sec
 * total energy  :   -22.8943200 Eh     change       -0.8513412E-04 Eh
   gradient norm :     0.0039999 Eh/α   predicted    -0.5505504E-04 ( -35.33%)
   displ. norm   :     0.3711707 α      lambda       -0.1493193E-03
   maximum displ.:     0.2673210 α      in ANC's #4, #1, #6, ...

........................................................................
.............................. CYCLE   13 ..............................
........................................................................

 iter      E             dE          RMSdq      gap      omega  full diag
   1    -23.1717514 -0.231718E+02  0.168E-01    3.87       0.0  T
   2    -23.1717547 -0.333444E-05  0.987E-02    3.87       1.0  T
   3    -23.1717436  0.110561E-04  0.309E-02    3.87       1.0  T
   4    -23.1717560 -0.123143E-04  0.553E-03    3.87       4.7  T
   5    -23.1717562 -0.248651E-06  0.228E-03    3.87      11.3  T
   6    -23.1717562 -0.143886E-08  0.893E-04    3.87      28.9  T
   7    -23.1717562 -0.307590E-08  0.191E-04    3.87     134.9  T
     SCC iter.                  ...        0 min,  0.006 sec
     gradient                   ...        0 min,  0.001 sec
 * total energy  :   -22.8943795 Eh     change       -0.5949439E-04 Eh
   gradient norm :     0.0073311 Eh/α   predicted    -0.8494250E-04 (  42.77%)
   displ. norm   :     0.0561979 α      lambda       -0.1996738E-03
   maximum displ.:     0.0341658 α      in ANC's #2, #9, #4, ...

........................................................................
.............................. CYCLE   14 ..............................
........................................................................

 iter      E             dE          RMSdq      gap      omega  full diag
   1    -23.1761386 -0.231761E+02  0.594E-02    3.88       0.0  T
   2    -23.1761448 -0.623246E-05  0.321E-02    3.88       1.0  T
   3    -23.1761446  0.240307E-06  0.163E-02    3.88       1.6  T
   4    -23.1761453 -0.689904E-06  0.691E-03    3.88       3.7  T
   5    -23.1761457 -0.483035E-06  0.207E-03    3.88      12.5  T
   6    -23.1761458 -0.132584E-07  0.107E-03    3.88      24.2  T
   7    -23.1761458 -0.184572E-08  0.252E-04    3.88     102.4  T
   8    -23.1761458 -0.979803E-10  0.113E-04    3.88     229.0  T
     SCC iter.                  ...        0 min,  0.007 sec
     gradient                   ...        0 min,  0.002 sec
 * total energy  :   -22.8943849 Eh     change       -0.5407628E-05 Eh
   gradient norm :     0.0067098 Eh/α   predicted    -0.1001502E-03 (1752.02%)
   displ. norm   :     0.0880450 α      lambda       -0.1293259E-03
   maximum displ.:     0.0663065 α      in ANC's #4, #1, #6, ...

........................................................................
.............................. CYCLE   15 ..............................
........................................................................

 iter      E             dE          RMSdq      gap      omega  full diag
   1    -23.1740280 -0.231740E+02  0.538E-02    3.87       0.0  T
   2    -23.1740298 -0.184836E-05  0.309E-02    3.88       1.0  T
   3    -23.1740297  0.178284E-06  0.881E-03    3.87       2.9  T
   4    -23.1740301 -0.402352E-06  0.170E-03    3.88      15.2  T
   5    -23.1740301 -0.930639E-08  0.917E-04    3.88      28.2  T
   6    -23.1740301  0.123929E-08  0.643E-04    3.88      40.1  T
     SCC iter.                  ...        0 min,  0.005 sec
     gradient                   ...        0 min,  0.002 sec
 * total energy  :   -22.8944572 Eh     change       -0.7229164E-04 Eh
   gradient norm :     0.0025456 Eh/α   predicted    -0.6516174E-04 (  -9.86%)
   displ. norm   :     0.1049114 α      lambda       -0.2508001E-04
   maximum displ.:     0.0762087 α      in ANC's #4, #1, #2, ...

........................................................................
.............................. CYCLE   16 ..............................
........................................................................

 iter      E             dE          RMSdq      gap      omega  full diag
   1    -23.1735196 -0.231735E+02  0.443E-02    3.88       0.0  T
   2    -23.1735199 -0.330096E-06  0.260E-02    3.88       1.0  T
   3    -23.1735190  0.861612E-06  0.894E-03    3.88       2.9  T
   4    -23.1735200 -0.962071E-06  0.169E-03    3.88      15.3  T
   5    -23.1735200 -0.267487E-07  0.642E-04    3.88      40.2  T
   6    -23.1735200 -0.315460E-09  0.223E-04    3.88     115.8  T
     SCC iter.                  ...        0 min,  0.006 sec
     gradient                   ...        0 min,  0.001 sec
 * total energy  :   -22.8944735 Eh     change       -0.1631507E-04 Eh
   gradient norm :     0.0034028 Eh/α   predicted    -0.1267742E-04 ( -22.30%)
   displ. norm   :     0.0947870 α      lambda       -0.3166980E-04
   maximum displ.:     0.0678689 α      in ANC's #4, #1, #24, ...

........................................................................
.............................. CYCLE   17 ..............................
........................................................................

 iter      E             dE          RMSdq      gap      omega  full diag
   1    -23.1738251 -0.231738E+02  0.401E-02    3.88       0.0  T
   2    -23.1738253 -0.196090E-06  0.238E-02    3.89       1.1  T
   3    -23.1738245  0.734729E-06  0.813E-03    3.88       3.2  T
   4    -23.1738254 -0.814589E-06  0.144E-03    3.89      18.0  T
   5    -23.1738254 -0.207102E-07  0.520E-04    3.89      49.7  T
   6    -23.1738254 -0.226120E-09  0.226E-04    3.89     114.3  T
     SCC iter.                  ...        0 min,  0.012 sec
     gradient                   ...        0 min,  0.006 sec
 * total energy  :   -22.8944975 Eh     change       -0.2398498E-04 Eh
   gradient norm :     0.0030234 Eh/α   predicted    -0.1597791E-04 ( -33.38%)
   displ. norm   :     0.1358283 α      lambda       -0.4230393E-04
   maximum displ.:     0.0938450 α      in ANC's #4, #1, #24, ...

........................................................................
.............................. CYCLE   18 ..............................
........................................................................

 iter      E             dE          RMSdq      gap      omega  full diag
   1    -23.1743826 -0.231744E+02  0.550E-02    3.89       0.0  T
   2    -23.1743827 -0.963999E-07  0.327E-02    3.89       1.0  T
   3    -23.1743807  0.199340E-05  0.128E-02    3.89       2.0  T
   4    -23.1743829 -0.220630E-05  0.107E-03    3.89      24.1  T
   5    -23.1743829 -0.265794E-08  0.550E-04    3.89      47.0  T
   6    -23.1743829 -0.247105E-09  0.119E-04    3.89     216.7  T
     SCC iter.                  ...        0 min,  0.008 sec
     gradient                   ...        0 min,  0.003 sec
 * total energy  :   -22.8945287 Eh     change       -0.3122465E-04 Eh
   gradient norm :     0.0023813 Eh/α   predicted    -0.2154312E-04 ( -31.01%)
   displ. norm   :     0.1629754 α      lambda       -0.3388399E-04
   maximum displ.:     0.1119307 α      in ANC's #4, #1, #24, ...

........................................................................
.............................. CYCLE   19 ..............................
........................................................................

 iter      E             dE          RMSdq      gap      omega  full diag
   1    -23.1744057 -0.231744E+02  0.626E-02    3.90       0.0  T
   2    -23.1744059 -0.182485E-06  0.372E-02    3.90       1.0  T
   3    -23.1744036  0.237799E-05  0.139E-02    3.89       1.9  T
   4    -23.1744062 -0.262174E-05  0.112E-03    3.90      23.1  T
   5    -23.1744062 -0.431075E-08  0.584E-04    3.90      44.2  T
   6    -23.1744062 -0.965663E-10  0.112E-04    3.90     229.5  T
     SCC iter.                  ...        0 min,  0.011 sec
     gradient                   ...        0 min,  0.001 sec
 * total energy  :   -22.8945526 Eh     change       -0.2390957E-04 Eh
   gradient norm :     0.0024782 Eh/α   predicted    -0.1739365E-04 ( -27.25%)
   displ. norm   :     0.1312685 α      lambda       -0.5263415E-04
   maximum displ.:     0.0774933 α      in ANC's #4, #1, #24, ...

........................................................................
.............................. CYCLE   20 ..............................
........................................................................

 iter      E             dE          RMSdq      gap      omega  full diag
   1    -23.1767146 -0.231767E+02  0.502E-02    3.90       0.0  T
   2    -23.1767153 -0.749605E-06  0.296E-02    3.90       1.0  T
   3    -23.1767152  0.153737E-06  0.535E-03    3.90       4.8  T
   4    -23.1767153 -0.152646E-06  0.302E-03    3.90       8.6  T
   5    -23.1767154 -0.990892E-07  0.847E-04    3.90      30.5  T
   6    -23.1767154 -0.153918E-09  0.254E-04    3.90     101.7  T
     SCC iter.                  ...        0 min,  0.013 sec
     gradient                   ...        0 min,  0.002 sec
 * total energy  :   -22.8945580 Eh     change       -0.5399568E-05 Eh
   gradient norm :     0.0040553 Eh/α   predicted    -0.2677095E-04 ( 395.80%)
   displ. norm   :     0.2637668 α      lambda       -0.6455950E-04
   maximum displ.:     0.1810329 α      in ANC's #4, #1, #24, ...
 * RMSD in coord.:     0.6050460 α      energy gain  -0.1348391E-01 Eh

generating ANC from exact Hessian ...
Using Lindh-Hessian (1995)
 Shifting diagonal of input Hessian by   7.198759710003940E-003
 Lowest  eigenvalues of input Hessian
    0.000000    0.000000    0.000000    0.000000    0.000000    0.000000
    0.010000    0.011746    0.014323    0.016986    0.019996    0.025420
    0.026967    0.034929    0.038858    0.050426    0.077132    0.079458
 Highest eigenvalues
    1.186968    1.279981    1.474143    1.828743    1.918190    2.374662
 

........................................................................
.............................. CYCLE   21 ..............................
........................................................................

 iter      E             dE          RMSdq      gap      omega  full diag
   1    -23.1739128 -0.231739E+02  0.101E-01    3.90       0.0  T
   2    -23.1739156 -0.280126E-05  0.592E-02    3.91       1.0  T
   3    -23.1739130  0.255847E-05  0.164E-02    3.90       1.6  T
   4    -23.1739157 -0.265219E-05  0.541E-03    3.91       4.8  T
   5    -23.1739160 -0.347988E-06  0.131E-03    3.90      19.6  T
   6    -23.1739160 -0.130384E-08  0.464E-04    3.90      55.6  T
   7    -23.1739160 -0.480902E-09  0.103E-04    3.90     251.8  T
     SCC iter.                  ...        0 min,  0.007 sec
     gradient                   ...        0 min,  0.002 sec
 * total energy  :   -22.8945661 Eh     change       -0.8033018E-05 Eh
   gradient norm :     0.0039742 Eh/α   predicted     0.0000000E+00 (-100.00%)
   displ. norm   :     0.0187603 α      lambda       -0.3722597E-04
   maximum displ.:     0.0085431 α      in ANC's #1, #7, #3, ...

........................................................................
.............................. CYCLE   22 ..............................
........................................................................

 iter      E             dE          RMSdq      gap      omega  full diag
   1    -23.1748706 -0.231749E+02  0.193E-02    3.90       0.0  T
   2    -23.1748709 -0.338329E-06  0.110E-02    3.90       2.3  T
   3    -23.1748707  0.224457E-06  0.567E-03    3.90       4.6  T
   4    -23.1748710 -0.267273E-06  0.174E-03    3.90      14.8  T
   5    -23.1748710 -0.290381E-07  0.448E-04    3.90      57.6  T
   6    -23.1748710 -0.231225E-09  0.166E-04    3.90     155.9  T
     SCC iter.                  ...        0 min,  0.006 sec
     gradient                   ...        0 min,  0.002 sec
 * total energy  :   -22.8945895 Eh     change       -0.2343483E-04 Eh
   gradient norm :     0.0010808 Eh/α   predicted    -0.1861836E-04 ( -20.55%)
   displ. norm   :     0.0322998 α      lambda       -0.8271938E-05
   maximum displ.:     0.0194119 α      in ANC's #1, #7, #3, ...

........................................................................
.............................. CYCLE   23 ..............................
........................................................................

 iter      E             dE          RMSdq      gap      omega  full diag
   1    -23.1754293 -0.231754E+02  0.235E-02    3.90       0.0  T
   2    -23.1754295 -0.128583E-06  0.137E-02    3.90       1.9  T
   3    -23.1754292  0.221266E-06  0.464E-03    3.90       5.6  T
   4    -23.1754295 -0.254572E-06  0.107E-03    3.90      24.0  T
   5    -23.1754295 -0.976569E-08  0.431E-04    3.90      59.9  T
   6    -23.1754295 -0.998845E-10  0.144E-04    3.90     179.0  T
     SCC iter.                  ...        0 min,  0.006 sec
     gradient                   ...        0 min,  0.001 sec
 * total energy  :   -22.8945967 Eh     change       -0.7230196E-05 Eh
   gradient norm :     0.0010754 Eh/α   predicted    -0.4136572E-05 ( -42.79%)
   displ. norm   :     0.0369693 α      lambda       -0.5746561E-05
   maximum displ.:     0.0204612 α      in ANC's #7, #1, #2, ...

........................................................................
.............................. CYCLE   24 ..............................
........................................................................

 iter      E             dE          RMSdq      gap      omega  full diag
   1    -23.1753861 -0.231754E+02  0.288E-02    3.90       0.0  T
   2    -23.1753861 -0.491260E-07  0.169E-02    3.90       1.5  T
   3    -23.1753859  0.264648E-06  0.482E-03    3.90       5.4  T
   4    -23.1753862 -0.311182E-06  0.824E-04    3.90      31.3  T
   5    -23.1753862 -0.144791E-08  0.421E-04    3.90      61.3  T
     SCC iter.                  ...        0 min,  0.005 sec
     gradient                   ...        0 min,  0.002 sec
 * total energy  :   -22.8946036 Eh     change       -0.6858345E-05 Eh
   gradient norm :     0.0011838 Eh/α   predicted    -0.2875829E-05 ( -58.07%)
   displ. norm   :     0.1274789 α      lambda       -0.1631081E-04
   maximum displ.:     0.0734797 α      in ANC's #7, #1, #2, ...

........................................................................
.............................. CYCLE   25 ..............................
........................................................................

 iter      E             dE          RMSdq      gap      omega  full diag
   1    -23.1747493 -0.231747E+02  0.981E-02    3.89       0.0  T
   2    -23.1747499 -0.628072E-06  0.575E-02    3.89       1.0  T
   3    -23.1747473  0.256411E-05  0.151E-02    3.89       1.7  T
   4    -23.1747504 -0.308292E-05  0.299E-03    3.89       8.6  T
   5    -23.1747504 -0.254110E-07  0.163E-03    3.89      15.8  T
   6    -23.1747505 -0.474009E-08  0.427E-04    3.89      60.4  T
   7    -23.1747505 -0.559552E-09  0.117E-04    3.89     221.2  T
     SCC iter.                  ...        0 min,  0.007 sec
     gradient                   ...        0 min,  0.002 sec
 * total energy  :   -22.8946169 Eh     change       -0.1331559E-04 Eh
   gradient norm :     0.0017494 Eh/α   predicted    -0.8215608E-05 ( -38.30%)
   displ. norm   :     0.0888205 α      lambda       -0.1129615E-04
   maximum displ.:     0.0485174 α      in ANC's #1, #7, #2, ...

........................................................................
.............................. CYCLE   26 ..............................
........................................................................

 iter      E             dE          RMSdq      gap      omega  full diag
   1    -23.1745874 -0.231746E+02  0.686E-02    3.88       0.0  T
   2    -23.1745876 -0.261309E-06  0.402E-02    3.88       1.0  T
   3    -23.1745867  0.875483E-06  0.907E-03    3.88       2.8  T
   4    -23.1745878 -0.109292E-05  0.198E-03    3.88      13.1  T
   5    -23.1745878 -0.559437E-08  0.967E-04    3.88      26.7  T
   6    -23.1745878 -0.227248E-08  0.235E-04    3.88     109.8  T
     SCC iter.                  ...        0 min,  0.006 sec
     gradient                   ...        0 min,  0.001 sec
 * total energy  :   -22.8946289 Eh     change       -0.1199463E-04 Eh
   gradient norm :     0.0017151 Eh/α   predicted    -0.5669106E-05 ( -52.74%)
   displ. norm   :     0.1321612 α      lambda       -0.1730581E-04
   maximum displ.:     0.0691018 α      in ANC's #7, #1, #2, ...

........................................................................
.............................. CYCLE   27 ..............................
........................................................................

 iter      E             dE          RMSdq      gap      omega  full diag
   1    -23.1745937 -0.231746E+02  0.106E-01    3.87       0.0  T
   2    -23.1745943 -0.564483E-06  0.620E-02    3.87       1.0  T
   3    -23.1745937  0.575627E-06  0.888E-03    3.87       2.9  T
   4    -23.1745946 -0.948511E-06  0.293E-03    3.87       8.8  T
   5    -23.1745947 -0.161304E-07  0.123E-03    3.87      21.0  T
   6    -23.1745947 -0.239289E-08  0.269E-04    3.87      95.8  T
   7    -23.1745947 -0.332914E-09  0.118E-04    3.87     219.0  T
     SCC iter.                  ...        0 min,  0.007 sec
     gradient                   ...        0 min,  0.002 sec
 * total energy  :   -22.8946456 Eh     change       -0.1671926E-04 Eh
   gradient norm :     0.0017199 Eh/α   predicted    -0.8719420E-05 ( -47.85%)
   displ. norm   :     0.1131432 α      lambda       -0.1353130E-04
   maximum displ.:     0.0575084 α      in ANC's #1, #2, #4, ...

........................................................................
.............................. CYCLE   28 ..............................
........................................................................

 iter      E             dE          RMSdq      gap      omega  full diag
   1    -23.1749909 -0.231750E+02  0.788E-02    3.87       0.0  T
   2    -23.1749913 -0.390943E-06  0.461E-02    3.87       1.0  T
   3    -23.1749914 -0.107372E-06  0.377E-03    3.87       6.8  T
   4    -23.1749915 -0.692704E-07  0.245E-03    3.87      10.5  T
   5    -23.1749915 -0.313373E-07  0.117E-03    3.87      22.0  T
   6    -23.1749915 -0.370634E-08  0.215E-04    3.87     120.2  T
   7    -23.1749915 -0.123816E-09  0.899E-05    3.87     287.2  T
     SCC iter.                  ...        0 min,  0.007 sec
     gradient                   ...        0 min,  0.001 sec
 * total energy  :   -22.8946538 Eh     change       -0.8175757E-05 Eh
   gradient norm :     0.0014482 Eh/α   predicted    -0.6803517E-05 ( -16.78%)
   displ. norm   :     0.1182112 α      lambda       -0.6746086E-05
   maximum displ.:     0.0637244 α      in ANC's #7, #2, #1, ...

........................................................................
.............................. CYCLE   29 ..............................
........................................................................

 iter      E             dE          RMSdq      gap      omega  full diag
   1    -23.1740736 -0.231741E+02  0.945E-02    3.86       0.0  T
   2    -23.1740747 -0.110382E-05  0.556E-02    3.85       1.0  T
   3    -23.1740713  0.337912E-05  0.171E-02    3.86       1.5  T
   4    -23.1740752 -0.393844E-05  0.356E-03    3.85       7.3  T
   5    -23.1740753 -0.787756E-07  0.179E-03    3.85      14.4  T
   6    -23.1740753 -0.351306E-08  0.632E-04    3.85      40.8  T
   7    -23.1740753 -0.833570E-09  0.157E-04    3.85     164.6  T
     SCC iter.                  ...        0 min,  0.007 sec
     gradient                   ...        0 min,  0.002 sec
 * total energy  :   -22.8946510 Eh     change        0.2776527E-05 Eh
   gradient norm :     0.0041642 Eh/α   predicted    -0.3394389E-05 (-222.25%)
   displ. norm   :     0.0451975 α      lambda       -0.1451474E-04
   maximum displ.:     0.0276671 α      in ANC's #1, #7, #2, ...

........................................................................
.............................. CYCLE   30 ..............................
........................................................................

 iter      E             dE          RMSdq      gap      omega  full diag
   1    -23.1748621 -0.231749E+02  0.345E-02    3.86       0.0  T
   2    -23.1748626 -0.450639E-06  0.203E-02    3.86       1.3  T
   3    -23.1748620  0.602038E-06  0.809E-03    3.86       3.2  T
   4    -23.1748627 -0.723149E-06  0.233E-03    3.86      11.1  T
   5    -23.1748627 -0.567204E-07  0.753E-04    3.86      34.3  T
   6    -23.1748627 -0.483674E-09  0.296E-04    3.86      87.1  T
     SCC iter.                  ...        0 min,  0.006 sec
     gradient                   ...        0 min,  0.002 sec
 * total energy  :   -22.8946588 Eh     change       -0.7747410E-05 Eh
   gradient norm :     0.0014143 Eh/α   predicted    -0.7273364E-05 (  -6.12%)
   displ. norm   :     0.0161637 α      lambda       -0.2489546E-05
   maximum displ.:     0.0107871 α      in ANC's #2, #4, #1, ...

........................................................................
.............................. CYCLE   31 ..............................
........................................................................

 iter      E             dE          RMSdq      gap      omega  full diag
   1    -23.1750394 -0.231750E+02  0.777E-03    3.86       0.0  T
   2    -23.1750395 -0.877778E-07  0.479E-03    3.87       5.4  T
   3    -23.1750395  0.382915E-07  0.253E-03    3.86      10.2  T
   4    -23.1750395 -0.458439E-07  0.940E-04    3.87      27.5  T
   5    -23.1750395 -0.982310E-08  0.168E-04    3.87     153.3  T
     SCC iter.                  ...        0 min,  0.005 sec
     gradient                   ...        0 min,  0.002 sec
 * total energy  :   -22.8946611 Eh     change       -0.2282707E-05 Eh
   gradient norm :     0.0003043 Eh/α   predicted    -0.1243248E-05 ( -45.54%)
   displ. norm   :     0.0486141 α      lambda       -0.1692774E-05
   maximum displ.:     0.0309966 α      in ANC's #2, #4, #7, ...

   *** GEOMETRY OPTIMIZATION CONVERGED AFTER 31 ITERATIONS ***

------------------------------------------------------------------------
 total energy gain   :        -0.0135869 Eh       -8.5259 kcal/mol
 total RMSD          :         0.5976234 a0        0.3162 Å
 total power (kW/mol):        -1.1507247 (step) -111.4507 (real)
------------------------------------------------------------------------

 ANCopt (total)                0 d,  0 h,  0 min,  0.320 sec
 optimizer setup                ...        0 min,  0.000 sec (  0.032%)
 model hessian                  ...        0 min,  0.009 sec (  2.751%)
 ANC generation                 ...        0 min,  0.001 sec (  0.256%)
 coordinate transformation      ...        0 min,  0.000 sec (  0.064%)
 single point calculation       ...        0 min,  0.292 sec ( 91.286%)
 optimization log               ...        0 min,  0.002 sec (  0.701%)
 hessian update                 ...        0 min,  0.011 sec (  3.502%)
 rational function              ...        0 min,  0.003 sec (  1.025%)

================
 final structure:
================
15
 xtb: 6.7.1 (edcfbbe)
O            0.71012147822818       -1.17455286697458        0.99499200404985
C            0.39465336292431       -0.29353033891820        0.23292039390267
O            1.29317128011798        0.44172717980345       -0.44205643936863
C            2.65447164776751        0.11390334814014       -0.21226163669854
C           -1.01199097711489        0.09368009132064       -0.05920819704454
C           -1.30485921909231        0.99449911399030       -0.99084957193356
C           -2.03282164709581       -0.62058948233858        0.76776325466625
H            3.24140663303004        0.85323203241657       -0.75137005748833
H            2.87875432585613        0.14780811854892        0.85615532717378
H            2.87064015459071       -0.89072210411534       -0.58275213071446
H           -0.53683273499948        1.48340148114139       -1.56344666181248
H           -2.32473849757835        1.26714733153222       -1.20578642150834
H           -1.92256986274423       -0.33925021874930        1.81425823690752
H           -3.03899431170214       -0.38178308031255        0.43604577589329
H           -1.87041163218766       -1.69497160548524        0.70559612397557
 
 Bond Distances (Angstroems)
 ---------------------------
O1-C2=1.2068         C2-O1=1.2068         C2-O3=1.3430         C2-C5=1.4879         O3-C2=1.3430         O3-C4=1.4189         
C4-O3=1.4189         C4-H8=1.0871         C4-H9=1.0922         C4-H10=1.0924        C5-C2=1.4879         C5-C6=1.3286         
C5-C7=1.4954         C6-C5=1.3286         C6-H11=1.0755        C6-H12=1.0774        C7-C5=1.4954         C7-H13=1.0892        
C7-H14=1.0860        C7-H15=1.0884        H8-C4=1.0871         H9-C4=1.0922         H10-C4=1.0924        H11-C6=1.0755        
H12-C6=1.0774        H13-C7=1.0892        H14-C7=1.0860        H15-C7=1.0884        
 C  H  Rav=1.0860 sigma=0.0059  Rmin=1.0755  Rmax=1.0924     8
 C  C  Rav=1.4373 sigma=0.0769  Rmin=1.3286  Rmax=1.4954     3
 O  C  Rav=1.3229 sigma=0.0877  Rmin=1.2068  Rmax=1.4189     3
 
 selected bond angles (degree)
 --------------------
O3-C2-O1=122.83                C5-C2-O1=124.13                C5-C2-O3=113.04                C4-O3-C2=115.72                
H8-C4-O3=106.29                H9-C4-O3=110.38                H9-C4-H8=110.68                H10-C4-O3=110.33               
H10-C4-H8=110.51               H10-C4-H9=108.64               C6-C5-C2=121.50                C7-C5-C2=114.36                
C7-C5-C6=124.14                H11-C6-C5=121.61               H12-C6-C5=121.34               H12-C6-H11=117.05              
H13-C7-C5=109.81               H14-C7-C5=111.01               H14-C7-H13=109.30              H15-C7-C5=109.76               
H15-C7-H13=107.14              H15-C7-H14=109.75              
 
 selected dihedral angles (degree)
 ---------------------------------
C4-O3-C2-O1=  0.40            C4-O3-C2-C5=180.40            H8-C4-O3-C2=185.26            H9-C4-O3-C2=305.33            
H10-C4-O3-C2= 65.42           C6-C5-C2-O1=185.77            C6-C5-C2-O3=  5.77            C7-C5-C2-O1=  5.26            
C7-C5-C2-O3=185.26            H11-C6-C5-C2=359.51           H11-C6-C5-C7=180.07           H12-C6-C5-C2=179.50           
H12-C6-C5-C7=  0.06           H13-C7-C5-C2= 65.39           H13-C7-C5-C6=244.87           H14-C7-C5-C2=186.36           
H14-C7-C5-C6=  5.83           H15-C7-C5-C2=307.86           H15-C7-C5-C6=127.34           
           -------------------------------------------------
          |                Final Singlepoint                |
           -------------------------------------------------

          ...................................................
          :                      SETUP                      :
          :.................................................:
          :  # basis functions                  36          :
          :  # atomic orbitals                  36          :
          :  # shells                           22          :
          :  # electrons                        40          :
          :  max. iterations                   250          :
          :  Hamiltonian                  GFN2-xTB          :
          :  restarted?                      false          :
          :  GBSA solvation                  false          :
          :  PC potential                    false          :
          :  electronic temp.          300.0000000     K    :
          :  accuracy                    1.0000000          :
          :  -> integral cutoff          0.2500000E+02      :
          :  -> integral neglect         0.1000000E-07      :
          :  -> SCF convergence          0.1000000E-05 Eh   :
          :  -> wf. convergence          0.1000000E-03 e    :
          :  Broyden damping             0.4000000          :
          :  net charge                          0          :
          :  unpaired electrons                  0          :
          ...................................................

 iter      E             dE          RMSdq      gap      omega  full diag
   1    -23.1750395 -0.231750E+02  0.986E-05    3.87       0.0  T
   2    -23.1750395 -0.127862E-10  0.560E-05    3.87     461.1  T
   3    -23.1750395 -0.653699E-12  0.317E-05    3.87     815.6  T

   *** convergence criteria satisfied after 3 iterations ***

         #    Occupation            Energy/Eh            Energy/eV
      -------------------------------------------------------------
         1        2.0000           -0.7410988             -20.1663
       ...           ...                  ...                  ...
        14        2.0000           -0.4869841             -13.2515
        15        2.0000           -0.4763265             -12.9615
        16        2.0000           -0.4673677             -12.7177
        17        2.0000           -0.4558721             -12.4049
        18        2.0000           -0.4465558             -12.1514
        19        2.0000           -0.4176463             -11.3647
        20        2.0000           -0.4113544             -11.1935 (HOMO)
        21                         -0.2693109              -7.3283 (LUMO)
        22                         -0.1618989              -4.4055
        23                          0.0154017               0.4191
        24                          0.1038556               2.8261
        25                          0.1151831               3.1343
       ...                                ...                  ...
        36                          0.6997147              19.0402
      -------------------------------------------------------------
                  HL-Gap            0.1420435 Eh            3.8652 eV
             Fermi-level           -0.3403326 Eh           -9.2609 eV

 SCC (total)                   0 d,  0 h,  0 min,  0.006 sec
 SCC setup                      ...        0 min,  0.001 sec ( 14.028%)
 Dispersion                     ...        0 min,  0.000 sec (  2.322%)
 classical contributions        ...        0 min,  0.000 sec (  5.236%)
 integral evaluation            ...        0 min,  0.000 sec (  6.782%)
 iterations                     ...        0 min,  0.003 sec ( 46.836%)
 molecular gradient             ...        0 min,  0.001 sec ( 23.191%)
 printout                       ...        0 min,  0.000 sec (  1.278%)

         :::::::::::::::::::::::::::::::::::::::::::::::::::::
         ::                     SUMMARY                     ::
         :::::::::::::::::::::::::::::::::::::::::::::::::::::
         :: total energy             -22.894661053869 Eh    ::
         :: gradient norm              0.000304514792 Eh/a0 ::
         :: HOMO-LUMO gap              3.865200475780 eV    ::
         ::.................................................::
         :: SCC energy               -23.175027740441 Eh    ::
         :: -> isotropic ES            0.044927384345 Eh    ::
         :: -> anisotropic ES          0.001815031350 Eh    ::
         :: -> anisotropic XC          0.006346827443 Eh    ::
         :: -> dispersion             -0.008682822596 Eh    ::
         :: repulsion energy           0.280366686572 Eh    ::
         :: add. restraining           0.000000000000 Eh    ::
         :: total charge              -0.000000000000 e     ::
         :::::::::::::::::::::::::::::::::::::::::::::::::::::

           -------------------------------------------------
          |                Property Printout                |
           -------------------------------------------------

    * Orbital Energies and Occupations

         #    Occupation            Energy/Eh            Energy/eV
      -------------------------------------------------------------
         1        2.0000           -0.7410988             -20.1663
       ...           ...                  ...                  ...
         8        2.0000           -0.5841067             -15.8944
         9        2.0000           -0.5580464             -15.1852
        10        2.0000           -0.5384283             -14.6514
        11        2.0000           -0.5159632             -14.0401
        12        2.0000           -0.5103392             -13.8870
        13        2.0000           -0.4943723             -13.4526
        14        2.0000           -0.4869841             -13.2515
        15        2.0000           -0.4763265             -12.9615
        16        2.0000           -0.4673677             -12.7177
        17        2.0000           -0.4558721             -12.4049
        18        2.0000           -0.4465558             -12.1514
        19        2.0000           -0.4176463             -11.3647
        20        2.0000           -0.4113544             -11.1935 (HOMO)
        21                         -0.2693109              -7.3283 (LUMO)
        22                         -0.1618989              -4.4055
        23                          0.0154017               0.4191
        24                          0.1038556               2.8261
        25                          0.1151831               3.1343
        26                          0.1324337               3.6037
        27                          0.1595122               4.3405
        28                          0.1819447               4.9510
        29                          0.1927497               5.2450
        30                          0.2050674               5.5802
        31                          0.2195088               5.9731
       ...                                ...                  ...
        36                          0.6997147              19.0402
      -------------------------------------------------------------
                  HL-Gap            0.1420435 Eh            3.8652 eV
             Fermi-level           -0.3403326 Eh           -9.2609 eV

     #   Z          covCN         q      C6AA      α(0)
     1   8 O        0.856    -0.411    21.905     6.275
     2   6 C        2.733     0.349    21.067     7.515
     3   8 O        1.704    -0.264    18.376     5.788
     4   6 C        3.658     0.035    20.268     6.461
     5   6 C        2.937    -0.008    28.212     8.711
     6   6 C        2.844    -0.082    30.043     8.983
     7   6 C        3.759    -0.111    22.665     6.787
     8   1 H        0.925     0.066     2.127     2.281
     9   1 H        0.924     0.064     2.154     2.295
    10   1 H        0.924     0.061     2.190     2.314
    11   1 H        0.926     0.063     2.169     2.303
    12   1 H        0.926     0.056     2.247     2.344
    13   1 H        0.925     0.063     2.163     2.300
    14   1 H        0.925     0.051     2.311     2.377
    15   1 H        0.925     0.068     2.108     2.271

 Mol. C6AA /au·bohr⁶  :       2052.364540
 Mol. C8AA /au·bohr⁸  :      45513.513753
 Mol. α(0) /au        :         69.005085


Wiberg/Mayer (AO) data.
largest (>0.10) Wiberg bond orders for each atom

 ---------------------------------------------------------------------------
     #   Z sym  total        # sym  WBO       # sym  WBO       # sym  WBO
 ---------------------------------------------------------------------------
     1   8 O    2.034 --     2 C    1.732     3 O    0.169
     2   6 C    3.917 --     1 O    1.732     3 O    1.115     5 C    0.995
     3   8 O    2.299 --     2 C    1.115     4 C    0.961     1 O    0.169
     4   6 C    3.928 --     8 H    0.982    10 H    0.976     9 H    0.976
                             3 O    0.961
     5   6 C    3.987 --     6 C    1.878     7 C    1.030     2 C    0.995
     6   6 C    3.989 --     5 C    1.878    12 H    0.974    11 H    0.973
     7   6 C    3.994 --     5 C    1.030    14 H    0.985    15 H    0.968
                            13 H    0.965
     8   1 H    0.995 --     4 C    0.982
     9   1 H    0.996 --     4 C    0.976
    10   1 H    0.996 --     4 C    0.976
    11   1 H    0.996 --     6 C    0.973
    12   1 H    0.997 --     6 C    0.974
    13   1 H    0.996 --     7 C    0.965
    14   1 H    0.997 --     7 C    0.985
    15   1 H    0.995 --     7 C    0.968
 ---------------------------------------------------------------------------

Topologies differ in total number of bonds
Writing topology from bond orders to xtbtopo.mol

molecular dipole:
                 x           y           z       tot (Debye)
 q only:       -0.106       0.517      -0.440
   full:       -0.073       0.579      -0.495       1.946
molecular quadrupole (traceless):
                xx          xy          yy          xz          yz          zz
 q only:        7.565       1.530      -4.273      -1.790       1.494      -3.291
  q+dip:        7.103       1.359      -4.270      -1.659       1.909      -2.832
   full:        7.133       1.537      -4.300      -1.759       3.027      -2.833

           -------------------------------------------------
          |                Geometry Summary                 |
           -------------------------------------------------

      molecular mass/u    :      100.1160153
   center of mass at/Å    :        0.1570442      -0.0780868       0.0540432
  moments of inertia/u·Å² :        0.9868525E+02   0.2547678E+03   0.3467321E+03
rotational constants/cm⁻¹ :        0.1708222E+00   0.6616862E-01   0.4861861E-01

 * 12 selected distances

     #   Z          #   Z                                           value/Å
     1   8 O        2   6 C                                       1.2068447
     2   6 C        3   8 O                                       1.3429565
     3   8 O        4   6 C                                       1.4189479 (max)
     5   6 C        6   6 C                                       1.3286093
     4   6 C        8   1 H                                       1.0870776
     4   6 C        9   1 H                                       1.0922304
     4   6 C       10   1 H                                       1.0923665
     6   6 C       11   1 H                                       1.0755268 (min)
     6   6 C       12   1 H                                       1.0773527
     7   6 C       13   1 H                                       1.0892471
     7   6 C       14   1 H                                       1.0860242
     7   6 C       15   1 H                                       1.0883653

 * 3 distinct bonds (by element types)

   Z      Z             #   av. dist./Å        max./Å        min./Å
   1 H    6 C           8     1.0860238     1.0923665     1.0755268
   6 C    6 C           1     1.3286093     1.3286093     1.3286093
   6 C    8 O           3     1.3229164     1.4189479     1.2068447


optimized geometry written to: xtbopt.xyz


           -------------------------------------------------
          | TOTAL ENERGY              -22.894661053869 Eh   |
          | GRADIENT NORM               0.000304514792 Eh/α |
          | HOMO-LUMO GAP               3.865200475780 eV   |
           -------------------------------------------------

------------------------------------------------------------------------
 * finished run on 2025/12/01 at 14:19:54.253     
------------------------------------------------------------------------
 total:
 * wall-time:     0 d,  0 h,  0 min,  0.370 sec
 *  cpu-time:     0 d,  0 h,  0 min,  8.061 sec
 * ratio c/w:    21.792 speedup
 SCF:
 * wall-time:     0 d,  0 h,  0 min,  0.019 sec
 *  cpu-time:     0 d,  0 h,  0 min,  0.428 sec
 * ratio c/w:    21.997 speedup
 ANC optimizer:
 * wall-time:     0 d,  0 h,  0 min,  0.327 sec
 *  cpu-time:     0 d,  0 h,  0 min,  7.414 sec
 * ratio c/w:    22.647 speedup

normal termination of xtb
