      -----------------------------------------------------------      
     |                   =====================                   |     
     |                           x T B                           |     
     |                   =====================                   |     
     |                         S. Grimme                         |     
     |          Mulliken Center for Theoretical Chemistry        |     
     |                    University of Bonn                     |     
      -----------------------------------------------------------      

   * xtb version 6.7.1 (edcfbbe) compiled by 'albert@albert-system' on 2024-07-22

   xtb is free software: you can redistribute it and/or modify it under
   the terms of the GNU Lesser General Public License as published by
   the Free Software Foundation, either version 3 of the License, or
   (at your option) any later version.
   
   xtb is distributed in the hope that it will be useful,
   but WITHOUT ANY WARRANTY; without even the implied warranty of
   MERCHANTABILITY or FITNESS FOR A PARTICULAR PURPOSE.  See the
   GNU Lesser General Public License for more details.
   
   Cite this work as:
   * C. Bannwarth, E. Caldeweyher, S. Ehlert, A. Hansen, P. Pracht,
     J. Seibert, S. Spicher, S. Grimme, WIREs Comput. Mol. Sci., 2020, 11,
     e01493. DOI: 10.1002/wcms.1493
   
   for GFN2-xTB:
   * C. Bannwarth, S. Ehlert and S. Grimme., J. Chem. Theory Comput., 2019,
     15, 1652-1671. DOI: 10.1021/acs.jctc.8b01176
   for GFN1-xTB:
   * S. Grimme, C. Bannwarth, P. Shushkov, J. Chem. Theory Comput., 2017,
     13, 1989-2009. DOI: 10.1021/acs.jctc.7b00118
   for GFN0-xTB:
   * P. Pracht, E. Caldeweyher, S. Ehlert, S. Grimme, ChemRxiv, 2019, preprint.
     DOI: 10.26434/chemrxiv.8326202.v1
   for GFN-FF:
   * S. Spicher and S. Grimme, Angew. Chem. Int. Ed., 2020, 59, 15665-15673.
     DOI: 10.1002/anie.202004239
   
   for ALPB and GBSA implicit solvation:
   * S. Ehlert, M. Stahn, S. Spicher, S. Grimme, J. Chem. Theory Comput.,
     2021, 17, 4250-4261. DOI: 10.1021/acs.jctc.1c00471
   
   for ddCOSMO and CPCM-X implicit solvation:
   * M. Stahn, S. Ehlert, S. Grimme, J. Phys. Chem. A,
     2023, XX, XXXX-XXXX. DOI: 10.1021/acs.jpca.3c04382
   
   for DFT-D4:
   * E. Caldeweyher, C. Bannwarth and S. Grimme, J. Chem. Phys., 2017,
     147, 034112. DOI: 10.1063/1.4993215
   * E. Caldeweyher, S. Ehlert, A. Hansen, H. Neugebauer, S. Spicher,
     C. Bannwarth and S. Grimme, J. Chem. Phys., 2019, 150, 154122.
     DOI: 10.1063/1.5090222
   * E. Caldeweyher, J.-M. Mewes, S. Ehlert and S. Grimme, Phys. Chem. Chem. Phys.
     2020, 22, 8499-8512. DOI: 10.1039/D0CP00502A
   
   for sTDA-xTB:
   * S. Grimme and C. Bannwarth, J. Chem. Phys., 2016, 145, 054103.
     DOI: 10.1063/1.4959605
   
   in the mass-spec context:
   * V. Asgeirsson, C. Bauer and S. Grimme, Chem. Sci., 2017, 8, 4879.
     DOI: 10.1039/c7sc00601b
   * J. Koopman and S. Grimme, ACS Omega 2019, 4, 12, 15120-15133.
     DOI: 10.1021/acsomega.9b02011
   
   for metadynamics refer to:
   * S. Grimme, J. Chem. Theory Comput., 2019, 155, 2847-2862
     DOI: 10.1021/acs.jctc.9b00143
   
   for SPH calculations refer to:
   * S. Spicher and S. Grimme, J. Chem. Theory Comput., 2021, 17, 1701-1714
     DOI: 10.1021/acs.jctc.0c01306
   
   for ONIOM refer to:
   * C. Plett, A. Katbashev, S. Ehlert, S. Grimme, M. Bursch,
     Phys. Chem. Chem. Phys., 2023, 25, 17860-17868. DOI: 10.1039/D3CP02178E
   
   for DIPRO refer to:
   * J. Kohn, N. Gildemeister, S. Grimme, D. Fazzi, A. Hansen,
     J. Chem. Phys., 2023, just accepted.
   
   for PTB refer to:
   * S. Grimme, M. Mueller, A. Hansen, J. Chem. Phys., 2023, 158, 124111.
     DOI: 10.1063/5.0137838
   
   with help from (in alphabetical order)
   P. Atkinson, C. Bannwarth, F. Bohle, G. Brandenburg, E. Caldeweyher
   M. Checinski, S. Dohm, S. Ehlert, S. Ehrlich, I. Gerasimov, C. Hölzer
   A. Katbashev, J. Kohn, J. Koopman, C. Lavigne, S. Lehtola, F. März, M. Müller,
   F. Musil, H. Neugebauer, J. Pisarek, C. Plett, P. Pracht, F. Pultar,
   J. Seibert, P. Shushkov, S. Spicher, M. Stahn, M. Steiner, T. Strunk,
   J. Stückrath, T. Rose, and J. Unsleber
   
 * started run on 2025/12/01 at 14:19:54.551     
   ID    Z sym.   atoms
    1    8 O      1, 3
    2    6 C      2, 4-7
    3    1 H      8-15

           -------------------------------------------------
          |                Calculation Setup                |
           -------------------------------------------------

          program call               : xtb pipeline_data/3_conformer_xyz/acrylates/rdkit/VVQNEPGJFQJSBK-UHFFFAOYSA-N_conf170.xyz --opt --gfn 2-xTB --iterations 250
          coordinate file            : pipeline_data/3_conformer_xyz/acrylates/rdkit/VVQNEPGJFQJSBK-UHFFFAOYSA-N_conf170.xyz
          omp threads                :                    24

########################################################################
[WARNING] Please study the warnings concerning your input carefully
-1- readin_getIntValue: could not parse '2-xTB'
########################################################################

           -------------------------------------------------
          |                 G F N 2 - x T B                 |
           -------------------------------------------------

        Reference                      10.1021/acs.jctc.8b01176
      * Hamiltonian:
        H0-scaling (s, p, d)           1.850000    2.230000    2.230000
        zeta-weighting                 0.500000
      * Dispersion:
        s8                             2.700000
        a1                             0.520000
        a2                             5.000000
        s9                             5.000000
      * Repulsion:
        kExp                           1.500000    1.000000
        rExp                           1.000000
      * Coulomb:
        alpha                          2.000000
        third order                    shell-resolved
        anisotropic                    true
        a3                             3.000000
        a5                             4.000000
        cn-shift                       1.200000
        cn-exp                         4.000000
        max-rad                        5.000000

q/qsh data taken from xtbrestart
CAMM data taken from xtbrestart

          ...................................................
          :                      SETUP                      :
          :.................................................:
          :  # basis functions                  36          :
          :  # atomic orbitals                  36          :
          :  # shells                           22          :
          :  # electrons                        40          :
          :  max. iterations                   250          :
          :  Hamiltonian                  GFN2-xTB          :
          :  restarted?                       true          :
          :  GBSA solvation                  false          :
          :  PC potential                    false          :
          :  electronic temp.          300.0000000     K    :
          :  accuracy                    1.0000000          :
          :  -> integral cutoff          0.2500000E+02      :
          :  -> integral neglect         0.1000000E-07      :
          :  -> SCF convergence          0.1000000E-05 Eh   :
          :  -> wf. convergence          0.1000000E-03 e    :
          :  Broyden damping             0.4000000          :
          :  net charge                          0          :
          :  unpaired electrons                  0          :
          ...................................................

 iter      E             dE          RMSdq      gap      omega  full diag
   1    -23.1258310 -0.231258E+02  0.476E+00    3.67       0.0  T
   2    -23.1302858 -0.445480E-02  0.281E+00    3.44       1.0  T
   3    -23.1079960  0.222898E-01  0.160E+00    3.68       1.0  T
   4    -23.1349687 -0.269727E-01  0.205E-01    3.51       1.0  T
   5    -23.1350669 -0.982066E-04  0.114E-01    3.52       1.0  T
   6    -23.1350745 -0.758936E-05  0.233E-02    3.51       1.1  T
   7    -23.1350764 -0.186026E-05  0.127E-02    3.52       2.0  T
   8    -23.1350768 -0.479478E-06  0.590E-03    3.51       4.4  T
   9    -23.1350769 -0.836993E-07  0.166E-03    3.52      15.6  T
  10    -23.1350769 -0.443091E-08  0.236E-04    3.52     109.5  T
  11    -23.1350769 -0.496705E-10  0.121E-04    3.52     213.5  T

   *** convergence criteria satisfied after 11 iterations ***

         #    Occupation            Energy/Eh            Energy/eV
      -------------------------------------------------------------
         1        2.0000           -0.7333439             -19.9553
       ...           ...                  ...                  ...
        14        2.0000           -0.4904135             -13.3448
        15        2.0000           -0.4743586             -12.9080
        16        2.0000           -0.4678632             -12.7312
        17        2.0000           -0.4521354             -12.3032
        18        2.0000           -0.4398377             -11.9686
        19        2.0000           -0.4211784             -11.4608
        20        2.0000           -0.4124387             -11.2230 (HOMO)
        21                         -0.2832493              -7.7076 (LUMO)
        22                         -0.1704875              -4.6392
        23                         -0.0034769              -0.0946
        24                          0.0957822               2.6064
        25                          0.1046178               2.8468
       ...                                ...                  ...
        36                          0.6308460              17.1662
      -------------------------------------------------------------
                  HL-Gap            0.1291893 Eh            3.5154 eV
             Fermi-level           -0.3478440 Eh           -9.4653 eV

 SCC (total)                   0 d,  0 h,  0 min,  0.014 sec
 SCC setup                      ...        0 min,  0.000 sec (  2.135%)
 Dispersion                     ...        0 min,  0.000 sec (  1.285%)
 classical contributions        ...        0 min,  0.000 sec (  2.173%)
 integral evaluation            ...        0 min,  0.001 sec (  4.326%)
 iterations                     ...        0 min,  0.011 sec ( 76.904%)
 molecular gradient             ...        0 min,  0.002 sec ( 12.162%)
 printout                       ...        0 min,  0.000 sec (  0.822%)

         :::::::::::::::::::::::::::::::::::::::::::::::::::::
         ::                     SUMMARY                     ::
         :::::::::::::::::::::::::::::::::::::::::::::::::::::
         :: total energy             -22.882311746617 Eh    ::
         :: gradient norm              0.123363883511 Eh/a0 ::
         :: HOMO-LUMO gap              3.515420782499 eV    ::
         ::.................................................::
         :: SCC energy               -23.135062523541 Eh    ::
         :: -> isotropic ES            0.047413537706 Eh    ::
         :: -> anisotropic ES          0.001079597858 Eh    ::
         :: -> anisotropic XC          0.007052770761 Eh    ::
         :: -> dispersion             -0.008582106449 Eh    ::
         :: repulsion energy           0.252750776925 Eh    ::
         :: add. restraining           0.000000000000 Eh    ::
         :: total charge               0.000000000000 e     ::
         :::::::::::::::::::::::::::::::::::::::::::::::::::::

      ----------------------------------------------------------- 
     |                   =====================                   |
     |                        A N C O P T                        |
     |                   =====================                   |
     |               Approximate Normal Coordinate               |
     |                Rational Function Optimizer                |
      ----------------------------------------------------------- 
      ----------------------------------------------------------- 
     |                   =====================                   |
     |                        A N C O P T                        |
     |                   =====================                   |
     |               Approximate Normal Coordinate               |
     |                Rational Function Optimizer                |
      ----------------------------------------------------------- 

          ...................................................
          :                      SETUP                      :
          :.................................................:
          :   optimization level            normal          :
          :   max. optcycles                   200          :
          :   ANC micro-cycles                  20          :
          :   degrees of freedom                39          :
          :.................................................:
          :   RF solver                   davidson          :
          :   write xtbopt.log                true          :
          :   linear?                        false          :
          :   energy convergence         0.5000000E-05 Eh   :
          :   grad. convergence          0.1000000E-02 Eh/α :
          :   maxmium RF displ.          1.0000000          :
          :   Hlow (freq-cutoff)         0.1000000E-01      :
          :   Hmax (freq-cutoff)         5.0000000          :
          :   S6 in model hess.         20.0000000          :
          ...................................................

generating ANC from exact Hessian ...
Using Lindh-Hessian (1995)
 Shifting diagonal of input Hessian by   6.778137291600686E-003
 Lowest  eigenvalues of input Hessian
    0.000000    0.000000    0.000000    0.000000    0.000000    0.000000
    0.010000    0.010439    0.013089    0.016137    0.018927    0.023113
    0.024616    0.033129    0.037618    0.053980    0.074116    0.076965
 Highest eigenvalues
    1.152005    1.275648    1.473644    1.730937    1.974545    2.086730
 

........................................................................
.............................. CYCLE    1 ..............................
........................................................................

 iter      E             dE          RMSdq      gap      omega  full diag
   1    -23.1350769 -0.231351E+02  0.276E-05    3.52       0.0  T
   2    -23.1350769 -0.618172E-12  0.171E-05    3.52    1510.2  T
   3    -23.1350769  0.447642E-12  0.130E-05    3.52    1987.8  T
     SCC iter.                  ...        0 min,  0.001 sec
     gradient                   ...        0 min,  0.001 sec
 * total energy  :   -22.8823117 Eh     change       -0.2713207E-10 Eh
   gradient norm :     0.1233645 Eh/α   predicted     0.0000000E+00 (-100.00%)
   displ. norm   :     0.2608521 α      lambda       -0.1479088E-01
   maximum displ.:     0.1335422 α      in ANC's #7, #10, #3, ...

........................................................................
.............................. CYCLE    2 ..............................
........................................................................

 iter      E             dE          RMSdq      gap      omega  full diag
   1    -23.1627229 -0.231627E+02  0.275E-01    3.70       0.0  T
   2    -23.1629941 -0.271200E-03  0.176E-01    3.75       1.0  T
   3    -23.1629970 -0.287709E-05  0.105E-01    3.75       1.0  T
   4    -23.1630215 -0.244884E-04  0.478E-02    3.76       1.0  T
   5    -23.1630450 -0.234694E-04  0.832E-03    3.76       3.1  T
   6    -23.1630454 -0.419609E-06  0.459E-03    3.76       5.6  T
   7    -23.1630454 -0.349336E-07  0.130E-03    3.76      19.9  T
   8    -23.1630454 -0.192776E-08  0.567E-04    3.76      45.5  T
   9    -23.1630454 -0.482501E-09  0.139E-04    3.76     185.2  T
     SCC iter.                  ...        0 min,  0.004 sec
     gradient                   ...        0 min,  0.001 sec
 * total energy  :   -22.8925302 Eh     change       -0.1021843E-01 Eh
   gradient norm :     0.0477279 Eh/α   predicted    -0.7898650E-02 ( -22.70%)
   displ. norm   :     0.2589926 α      lambda       -0.4182430E-02
   maximum displ.:     0.1597558 α      in ANC's #3, #7, #10, ...

........................................................................
.............................. CYCLE    3 ..............................
........................................................................

 iter      E             dE          RMSdq      gap      omega  full diag
   1    -23.1765251 -0.231765E+02  0.186E-01    3.87       0.0  T
   2    -23.1766277 -0.102555E-03  0.114E-01    3.91       1.0  T
   3    -23.1766206  0.705244E-05  0.700E-02    3.90       1.0  T
   4    -23.1766372 -0.166273E-04  0.300E-02    3.91       1.0  T
   5    -23.1766459 -0.869751E-05  0.450E-03    3.91       5.7  T
   6    -23.1766461 -0.112199E-06  0.223E-03    3.91      11.6  T
   7    -23.1766461 -0.117040E-07  0.587E-04    3.91      44.0  T
   8    -23.1766461 -0.375913E-09  0.292E-04    3.91      88.5  T
     SCC iter.                  ...        0 min,  0.004 sec
     gradient                   ...        0 min,  0.001 sec
 * total energy  :   -22.8948412 Eh     change       -0.2311036E-02 Eh
   gradient norm :     0.0123704 Eh/α   predicted    -0.2231488E-02 (  -3.44%)
   displ. norm   :     0.1716344 α      lambda       -0.5160749E-03
   maximum displ.:     0.1554056 α      in ANC's #3, #7, #10, ...

........................................................................
.............................. CYCLE    4 ..............................
........................................................................

 iter      E             dE          RMSdq      gap      omega  full diag
   1    -23.1757752 -0.231758E+02  0.533E-02    3.90       0.0  T
   2    -23.1757769 -0.170989E-05  0.324E-02    3.91       1.0  T
   3    -23.1757752  0.174406E-05  0.160E-02    3.90       1.6  T
   4    -23.1757772 -0.199303E-05  0.423E-03    3.91       6.1  T
   5    -23.1757773 -0.193275E-06  0.102E-03    3.91      25.3  T
   6    -23.1757774 -0.424964E-08  0.592E-04    3.91      43.6  T
   7    -23.1757774 -0.560444E-09  0.139E-04    3.91     185.8  T
     SCC iter.                  ...        0 min,  0.003 sec
     gradient                   ...        0 min,  0.001 sec
 * total energy  :   -22.8952044 Eh     change       -0.3631960E-03 Eh
   gradient norm :     0.0055673 Eh/α   predicted    -0.2656371E-03 ( -26.86%)
   displ. norm   :     0.1537931 α      lambda       -0.2352019E-03
   maximum displ.:     0.1443536 α      in ANC's #3, #7, #4, ...

........................................................................
.............................. CYCLE    5 ..............................
........................................................................

 iter      E             dE          RMSdq      gap      omega  full diag
   1    -23.1750816 -0.231751E+02  0.446E-02    3.90       0.0  T
   2    -23.1750819 -0.322732E-06  0.273E-02    3.91       1.0  T
   3    -23.1750796  0.238591E-05  0.156E-02    3.90       1.7  T
   4    -23.1750823 -0.276226E-05  0.165E-03    3.90      15.7  T
   5    -23.1750823 -0.125958E-07  0.712E-04    3.90      36.2  T
   6    -23.1750823 -0.615248E-09  0.292E-04    3.90      88.4  T
     SCC iter.                  ...        0 min,  0.003 sec
     gradient                   ...        0 min,  0.001 sec
 * total energy  :   -22.8953512 Eh     change       -0.1468012E-03 Eh
   gradient norm :     0.0028654 Eh/α   predicted    -0.1203823E-03 ( -18.00%)
   displ. norm   :     0.0724345 α      lambda       -0.6476014E-04
   maximum displ.:     0.0652248 α      in ANC's #3, #4, #9, ...

........................................................................
.............................. CYCLE    6 ..............................
........................................................................

 iter      E             dE          RMSdq      gap      omega  full diag
   1    -23.1753048 -0.231753E+02  0.325E-02    3.90       0.0  T
   2    -23.1753049 -0.923737E-07  0.200E-02    3.90       1.3  T
   3    -23.1753037  0.125229E-05  0.106E-02    3.90       2.4  T
   4    -23.1753051 -0.141551E-05  0.987E-04    3.90      26.2  T
   5    -23.1753051 -0.324160E-08  0.482E-04    3.90      53.5  T
   6    -23.1753051 -0.365546E-09  0.136E-04    3.90     189.2  T
     SCC iter.                  ...        0 min,  0.003 sec
     gradient                   ...        0 min,  0.002 sec
 * total energy  :   -22.8953834 Eh     change       -0.3219840E-04 Eh
   gradient norm :     0.0023095 Eh/α   predicted    -0.3255205E-04 (   1.10%)
   displ. norm   :     0.0312200 α      lambda       -0.2122367E-04
   maximum displ.:     0.0268165 α      in ANC's #3, #4, #11, ...

........................................................................
.............................. CYCLE    7 ..............................
........................................................................

 iter      E             dE          RMSdq      gap      omega  full diag
   1    -23.1757050 -0.231757E+02  0.181E-02    3.90       0.0  T
   2    -23.1757050 -0.372299E-07  0.109E-02    3.90       2.4  T
   3    -23.1757048  0.284773E-06  0.516E-03    3.90       5.0  T
   4    -23.1757051 -0.322207E-06  0.620E-04    3.90      41.7  T
   5    -23.1757051 -0.180957E-08  0.276E-04    3.90      93.7  T
     SCC iter.                  ...        0 min,  0.002 sec
     gradient                   ...        0 min,  0.001 sec
 * total energy  :   -22.8953964 Eh     change       -0.1296556E-04 Eh
   gradient norm :     0.0012702 Eh/α   predicted    -0.1062194E-04 ( -18.08%)
   displ. norm   :     0.0348191 α      lambda       -0.6249294E-05
   maximum displ.:     0.0235952 α      in ANC's #3, #4, #1, ...

........................................................................
.............................. CYCLE    8 ..............................
........................................................................

 iter      E             dE          RMSdq      gap      omega  full diag
   1    -23.1759743 -0.231760E+02  0.140E-02    3.90       0.0  T
   2    -23.1759743 -0.305998E-07  0.834E-03    3.90       3.1  T
   3    -23.1759743  0.374094E-07  0.211E-03    3.90      12.3  T
   4    -23.1759743 -0.441712E-07  0.667E-04    3.90      38.7  T
   5    -23.1759743 -0.369607E-08  0.257E-04    3.90     100.4  T
     SCC iter.                  ...        0 min,  0.002 sec
     gradient                   ...        0 min,  0.001 sec
 * total energy  :   -22.8954023 Eh     change       -0.5919478E-05 Eh
   gradient norm :     0.0007658 Eh/α   predicted    -0.3126797E-05 ( -47.18%)
   displ. norm   :     0.0403703 α      lambda       -0.4757129E-05
   maximum displ.:     0.0282845 α      in ANC's #4, #1, #3, ...

........................................................................
.............................. CYCLE    9 ..............................
........................................................................

 iter      E             dE          RMSdq      gap      omega  full diag
   1    -23.1759443 -0.231759E+02  0.132E-02    3.90       0.0  T
   2    -23.1759443 -0.340781E-07  0.789E-03    3.90       3.3  T
   3    -23.1759443  0.389268E-07  0.207E-03    3.90      12.4  T
   4    -23.1759443 -0.436411E-07  0.739E-04    3.90      35.0  T
   5    -23.1759443 -0.522931E-08  0.233E-04    3.90     111.0  T
     SCC iter.                  ...        0 min,  0.002 sec
     gradient                   ...        0 min,  0.001 sec
 * total energy  :   -22.8954063 Eh     change       -0.3993173E-05 Eh
   gradient norm :     0.0007564 Eh/α   predicted    -0.2380024E-05 ( -40.40%)
   displ. norm   :     0.0343984 α      lambda       -0.3242675E-05
   maximum displ.:     0.0284654 α      in ANC's #4, #1, #5, ...

   *** GEOMETRY OPTIMIZATION CONVERGED AFTER 9 ITERATIONS ***

------------------------------------------------------------------------
 total energy gain   :        -0.0130945 Eh       -8.2169 kcal/mol
 total RMSD          :         0.2205809 a0        0.1167 Å
 total power (kW/mol):        -3.8199673 (step) -765.4237 (real)
------------------------------------------------------------------------

 ANCopt (total)                0 d,  0 h,  0 min,  0.045 sec
 optimizer setup                ...        0 min,  0.000 sec (  0.236%)
 model hessian                  ...        0 min,  0.002 sec (  4.691%)
 ANC generation                 ...        0 min,  0.000 sec (  0.612%)
 coordinate transformation      ...        0 min,  0.000 sec (  0.144%)
 single point calculation       ...        0 min,  0.040 sec ( 88.935%)
 optimization log               ...        0 min,  0.001 sec (  1.591%)
 hessian update                 ...        0 min,  0.000 sec (  0.667%)
 rational function              ...        0 min,  0.001 sec (  2.175%)

================
 final structure:
================
15
 xtb: 6.7.1 (edcfbbe)
O            0.89822985409154       -1.65471280616494       -0.33555164730522
C            0.40335881651277       -0.57342127822803       -0.13080910611616
O            1.11341969404159        0.56594555741996       -0.12596548101685
C            2.50147423447859        0.43331924949626       -0.38013808466793
C           -1.03914301760081       -0.33433702093798        0.14252110777728
C           -1.85728250085459       -1.38195617654326        0.15857434520142
C           -1.47107391485299        1.07570740054432        0.38391409314145
H            2.97313088978497       -0.18022589829888        0.39034187919284
H            2.91054130608150        1.44040851680636       -0.36946969819135
H            2.66717740811496       -0.03908835259121       -1.35074448064974
H           -2.91159943829909       -1.28099338081311        0.35021519183052
H           -1.47659990868164       -2.37324722546597       -0.01998294299412
H           -2.54619931728088        1.12439573182754        0.53431541060656
H           -0.96840322708953        1.47586584013381        1.26305481446882
H           -1.19702987844639        1.70233984281516       -0.46229540127752
 
 Bond Distances (Angstroems)
 ---------------------------
O1-C2=1.2067         C2-O1=1.2067         C2-O3=1.3425         C2-C5=1.4875         O3-C2=1.3425         O3-C4=1.4174         
C4-O3=1.4174         C4-H8=1.0920         C4-H9=1.0871         C4-H10=1.0921        C5-C2=1.4875         C5-C6=1.3293         
C5-C7=1.4943         C6-C5=1.3293         C6-H11=1.0763        C6-H12=1.0768        C7-C5=1.4943         C7-H13=1.0867        
C7-H14=1.0889        C7-H15=1.0880        H8-C4=1.0920         H9-C4=1.0871         H10-C4=1.0921        H11-C6=1.0763        
H12-C6=1.0768        H13-C7=1.0867        H14-C7=1.0889        H15-C7=1.0880        
 C  H  Rav=1.0860 sigma=0.0058  Rmin=1.0763  Rmax=1.0921     8
 C  C  Rav=1.4371 sigma=0.0762  Rmin=1.3293  Rmax=1.4943     3
 O  C  Rav=1.3222 sigma=0.0872  Rmin=1.2067  Rmax=1.4174     3
 
 selected bond angles (degree)
 --------------------
O3-C2-O1=122.97                C5-C2-O1=124.95                C5-C2-O3=112.08                C4-O3-C2=115.97                
H8-C4-O3=110.43                H9-C4-O3=106.27                H9-C4-H8=110.55                H10-C4-O3=110.39               
H10-C4-H8=108.57               H10-C4-H9=110.63               C6-C5-C2=118.19                C7-C5-C2=117.49                
C7-C5-C6=124.32                H11-C6-C5=122.08               H12-C6-C5=120.39               H12-C6-H11=117.53              
H13-C7-C5=110.52               H14-C7-C5=110.11               H14-C7-H13=109.18              H15-C7-C5=110.18               
H15-C7-H13=109.33              H15-C7-H14=107.46              
 
 selected dihedral angles (degree)
 ---------------------------------
C4-O3-C2-O1=  0.08            C4-O3-C2-C5=180.09            H8-C4-O3-C2=298.24            H9-C4-O3-C2=178.32            
H10-C4-O3-C2= 58.31           C6-C5-C2-O1=359.64            C6-C5-C2-O3=179.63            C7-C5-C2-O1=179.54            
C7-C5-C2-O3=359.53            H11-C6-C5-C2=179.97           H11-C6-C5-C7=  0.07           H12-C6-C5-C2=  0.16           
H12-C6-C5-C7=180.26           H13-C7-C5-C2=177.91           H13-C7-C5-C6=357.81           H14-C7-C5-C2=298.61           
H14-C7-C5-C6=118.51           H15-C7-C5-C2= 56.97           H15-C7-C5-C6=236.86           
           -------------------------------------------------
          |                Final Singlepoint                |
           -------------------------------------------------

          ...................................................
          :                      SETUP                      :
          :.................................................:
          :  # basis functions                  36          :
          :  # atomic orbitals                  36          :
          :  # shells                           22          :
          :  # electrons                        40          :
          :  max. iterations                   250          :
          :  Hamiltonian                  GFN2-xTB          :
          :  restarted?                      false          :
          :  GBSA solvation                  false          :
          :  PC potential                    false          :
          :  electronic temp.          300.0000000     K    :
          :  accuracy                    1.0000000          :
          :  -> integral cutoff          0.2500000E+02      :
          :  -> integral neglect         0.1000000E-07      :
          :  -> SCF convergence          0.1000000E-05 Eh   :
          :  -> wf. convergence          0.1000000E-03 e    :
          :  Broyden damping             0.4000000          :
          :  net charge                          0          :
          :  unpaired electrons                  0          :
          ...................................................

 iter      E             dE          RMSdq      gap      omega  full diag
   1    -23.1759443 -0.231759E+02  0.117E-04    3.90       0.0  T
   2    -23.1759443 -0.201332E-10  0.725E-05    3.90     356.2  T
   3    -23.1759443 -0.490274E-12  0.481E-05    3.90     536.3  T

   *** convergence criteria satisfied after 3 iterations ***

         #    Occupation            Energy/Eh            Energy/eV
      -------------------------------------------------------------
         1        2.0000           -0.7415163             -20.1777
       ...           ...                  ...                  ...
        14        2.0000           -0.4897893             -13.3278
        15        2.0000           -0.4785231             -13.0213
        16        2.0000           -0.4723915             -12.8544
        17        2.0000           -0.4526810             -12.3181
        18        2.0000           -0.4461869             -12.1414
        19        2.0000           -0.4181100             -11.3774
        20        2.0000           -0.4116605             -11.2019 (HOMO)
        21                         -0.2682682              -7.2999 (LUMO)
        22                         -0.1617139              -4.4005
        23                          0.0201427               0.5481
        24                          0.0985423               2.6815
        25                          0.1229960               3.3469
       ...                                ...                  ...
        36                          0.6989154              19.0185
      -------------------------------------------------------------
                  HL-Gap            0.1433924 Eh            3.9019 eV
             Fermi-level           -0.3399643 Eh           -9.2509 eV

 SCC (total)                   0 d,  0 h,  0 min,  0.004 sec
 SCC setup                      ...        0 min,  0.000 sec (  2.189%)
 Dispersion                     ...        0 min,  0.000 sec (  1.922%)
 classical contributions        ...        0 min,  0.000 sec (  0.859%)
 integral evaluation            ...        0 min,  0.000 sec (  8.751%)
 iterations                     ...        0 min,  0.001 sec ( 37.105%)
 molecular gradient             ...        0 min,  0.002 sec ( 46.315%)
 printout                       ...        0 min,  0.000 sec (  2.215%)

         :::::::::::::::::::::::::::::::::::::::::::::::::::::
         ::                     SUMMARY                     ::
         :::::::::::::::::::::::::::::::::::::::::::::::::::::
         :: total energy             -22.895406285198 Eh    ::
         :: gradient norm              0.000754412717 Eh/a0 ::
         :: HOMO-LUMO gap              3.901904768991 eV    ::
         ::.................................................::
         :: SCC energy               -23.175929025849 Eh    ::
         :: -> isotropic ES            0.045059429375 Eh    ::
         :: -> anisotropic ES          0.001476015004 Eh    ::
         :: -> anisotropic XC          0.006327002501 Eh    ::
         :: -> dispersion             -0.008717488265 Eh    ::
         :: repulsion energy           0.280522740650 Eh    ::
         :: add. restraining           0.000000000000 Eh    ::
         :: total charge              -0.000000000000 e     ::
         :::::::::::::::::::::::::::::::::::::::::::::::::::::

           -------------------------------------------------
          |                Property Printout                |
           -------------------------------------------------

    * Orbital Energies and Occupations

         #    Occupation            Energy/Eh            Energy/eV
      -------------------------------------------------------------
         1        2.0000           -0.7415163             -20.1777
       ...           ...                  ...                  ...
         8        2.0000           -0.5843885             -15.9020
         9        2.0000           -0.5572348             -15.1631
        10        2.0000           -0.5391913             -14.6721
        11        2.0000           -0.5149022             -14.0112
        12        2.0000           -0.5118553             -13.9283
        13        2.0000           -0.4913642             -13.3707
        14        2.0000           -0.4897893             -13.3278
        15        2.0000           -0.4785231             -13.0213
        16        2.0000           -0.4723915             -12.8544
        17        2.0000           -0.4526810             -12.3181
        18        2.0000           -0.4461869             -12.1414
        19        2.0000           -0.4181100             -11.3774
        20        2.0000           -0.4116605             -11.2019 (HOMO)
        21                         -0.2682682              -7.2999 (LUMO)
        22                         -0.1617139              -4.4005
        23                          0.0201427               0.5481
        24                          0.0985423               2.6815
        25                          0.1229960               3.3469
        26                          0.1333819               3.6295
        27                          0.1689119               4.5963
        28                          0.1745391               4.7495
        29                          0.1883524               5.1253
        30                          0.1931036               5.2546
        31                          0.2170266               5.9056
       ...                                ...                  ...
        36                          0.6989154              19.0185
      -------------------------------------------------------------
                  HL-Gap            0.1433924 Eh            3.9019 eV
             Fermi-level           -0.3399643 Eh           -9.2509 eV

     #   Z          covCN         q      C6AA      α(0)
     1   8 O        0.856    -0.414    21.972     6.285
     2   6 C        2.737     0.349    21.077     7.517
     3   8 O        1.705    -0.259    18.298     5.775
     4   6 C        3.658     0.034    20.279     6.463
     5   6 C        2.938    -0.009    28.249     8.717
     6   6 C        2.850    -0.078    29.939     8.968
     7   6 C        3.757    -0.112    22.695     6.792
     8   1 H        0.924     0.061     2.189     2.314
     9   1 H        0.925     0.065     2.136     2.285
    10   1 H        0.924     0.062     2.179     2.309
    11   1 H        0.926     0.057     2.233     2.337
    12   1 H        0.926     0.071     2.070     2.250
    13   1 H        0.925     0.052     2.297     2.370
    14   1 H        0.925     0.060     2.194     2.316
    15   1 H        0.925     0.061     2.188     2.313

 Mol. C6AA /au·bohr⁶  :       2052.624555
 Mol. C8AA /au·bohr⁸  :      45516.358986
 Mol. α(0) /au        :         69.010403


Wiberg/Mayer (AO) data.
largest (>0.10) Wiberg bond orders for each atom

 ---------------------------------------------------------------------------
     #   Z sym  total        # sym  WBO       # sym  WBO       # sym  WBO
 ---------------------------------------------------------------------------
     1   8 O    2.033 --     2 C    1.728     3 O    0.170
     2   6 C    3.918 --     1 O    1.728     3 O    1.117     5 C    0.995
     3   8 O    2.304 --     2 C    1.117     4 C    0.963     1 O    0.170
     4   6 C    3.929 --     9 H    0.982    10 H    0.976     8 H    0.976
                             3 O    0.963
     5   6 C    3.987 --     6 C    1.876     7 C    1.030     2 C    0.995
     6   6 C    3.987 --     5 C    1.876    11 H    0.975    12 H    0.971
     7   6 C    3.995 --     5 C    1.030    13 H    0.984    15 H    0.969
                            14 H    0.968
     8   1 H    0.996 --     4 C    0.976
     9   1 H    0.995 --     4 C    0.982
    10   1 H    0.996 --     4 C    0.976
    11   1 H    0.996 --     6 C    0.975
    12   1 H    0.995 --     6 C    0.971
    13   1 H    0.997 --     7 C    0.984
    14   1 H    0.996 --     7 C    0.968
    15   1 H    0.996 --     7 C    0.969
 ---------------------------------------------------------------------------

Topologies differ in total number of bonds
Writing topology from bond orders to xtbtopo.mol

molecular dipole:
                 x           y           z       tot (Debye)
 q only:       -0.216       0.820       0.127
   full:       -0.192       0.902       0.134       2.369
molecular quadrupole (traceless):
                xx          xy          yy          xz          yz          zz
 q only:        6.533       3.872      -4.799      -1.024      -0.976      -1.734
  q+dip:        6.528       4.390      -5.410      -0.845      -1.194      -1.117
   full:        6.344       4.252      -6.288      -0.642      -1.402      -0.056

           -------------------------------------------------
          |                Geometry Summary                 |
           -------------------------------------------------

      molecular mass/u    :      100.1160153
   center of mass at/Å    :        0.1404786      -0.2488310      -0.0494954
  moments of inertia/u·Å² :        0.1047409E+03   0.2443492E+03   0.3428125E+03
rotational constants/cm⁻¹ :        0.1609460E+00   0.6898993E-01   0.4917450E-01

 * 12 selected distances

     #   Z          #   Z                                           value/Å
     1   8 O        2   6 C                                       1.2066518
     2   6 C        3   8 O                                       1.3425226
     3   8 O        4   6 C                                       1.4173529 (max)
     5   6 C        6   6 C                                       1.3293292
     4   6 C        8   1 H                                       1.0920335
     4   6 C        9   1 H                                       1.0870505
     4   6 C       10   1 H                                       1.0921096
     6   6 C       11   1 H                                       1.0763383 (min)
     6   6 C       12   1 H                                       1.0767823
     7   6 C       13   1 H                                       1.0866858
     7   6 C       14   1 H                                       1.0888954
     7   6 C       15   1 H                                       1.0880437

 * 3 distinct bonds (by element types)

   Z      Z             #   av. dist./Å        max./Å        min./Å
   1 H    6 C           8     1.0859924     1.0921096     1.0763383
   6 C    6 C           1     1.3293292     1.3293292     1.3293292
   6 C    8 O           3     1.3221758     1.4173529     1.2066518


optimized geometry written to: xtbopt.xyz


           -------------------------------------------------
          | TOTAL ENERGY              -22.895406285198 Eh   |
          | GRADIENT NORM               0.000754412717 Eh/α |
          | HOMO-LUMO GAP               3.901904768991 eV   |
           -------------------------------------------------

------------------------------------------------------------------------
 * finished run on 2025/12/01 at 14:19:54.624     
------------------------------------------------------------------------
 total:
 * wall-time:     0 d,  0 h,  0 min,  0.073 sec
 *  cpu-time:     0 d,  0 h,  0 min,  1.553 sec
 * ratio c/w:    21.235 speedup
 SCF:
 * wall-time:     0 d,  0 h,  0 min,  0.014 sec
 *  cpu-time:     0 d,  0 h,  0 min,  0.294 sec
 * ratio c/w:    20.761 speedup
 ANC optimizer:
 * wall-time:     0 d,  0 h,  0 min,  0.050 sec
 *  cpu-time:     0 d,  0 h,  0 min,  1.089 sec
 * ratio c/w:    21.987 speedup

normal termination of xtb
