      -----------------------------------------------------------      
     |                   =====================                   |     
     |                           x T B                           |     
     |                   =====================                   |     
     |                         S. Grimme                         |     
     |          Mulliken Center for Theoretical Chemistry        |     
     |                    University of Bonn                     |     
      -----------------------------------------------------------      

   * xtb version 6.7.1 (edcfbbe) compiled by 'albert@albert-system' on 2024-07-22

   xtb is free software: you can redistribute it and/or modify it under
   the terms of the GNU Lesser General Public License as published by
   the Free Software Foundation, either version 3 of the License, or
   (at your option) any later version.
   
   xtb is distributed in the hope that it will be useful,
   but WITHOUT ANY WARRANTY; without even the implied warranty of
   MERCHANTABILITY or FITNESS FOR A PARTICULAR PURPOSE.  See the
   GNU Lesser General Public License for more details.
   
   Cite this work as:
   * C. Bannwarth, E. Caldeweyher, S. Ehlert, A. Hansen, P. Pracht,
     J. Seibert, S. Spicher, S. Grimme, WIREs Comput. Mol. Sci., 2020, 11,
     e01493. DOI: 10.1002/wcms.1493
   
   for GFN2-xTB:
   * C. Bannwarth, S. Ehlert and S. Grimme., J. Chem. Theory Comput., 2019,
     15, 1652-1671. DOI: 10.1021/acs.jctc.8b01176
   for GFN1-xTB:
   * S. Grimme, C. Bannwarth, P. Shushkov, J. Chem. Theory Comput., 2017,
     13, 1989-2009. DOI: 10.1021/acs.jctc.7b00118
   for GFN0-xTB:
   * P. Pracht, E. Caldeweyher, S. Ehlert, S. Grimme, ChemRxiv, 2019, preprint.
     DOI: 10.26434/chemrxiv.8326202.v1
   for GFN-FF:
   * S. Spicher and S. Grimme, Angew. Chem. Int. Ed., 2020, 59, 15665-15673.
     DOI: 10.1002/anie.202004239
   
   for ALPB and GBSA implicit solvation:
   * S. Ehlert, M. Stahn, S. Spicher, S. Grimme, J. Chem. Theory Comput.,
     2021, 17, 4250-4261. DOI: 10.1021/acs.jctc.1c00471
   
   for ddCOSMO and CPCM-X implicit solvation:
   * M. Stahn, S. Ehlert, S. Grimme, J. Phys. Chem. A,
     2023, XX, XXXX-XXXX. DOI: 10.1021/acs.jpca.3c04382
   
   for DFT-D4:
   * E. Caldeweyher, C. Bannwarth and S. Grimme, J. Chem. Phys., 2017,
     147, 034112. DOI: 10.1063/1.4993215
   * E. Caldeweyher, S. Ehlert, A. Hansen, H. Neugebauer, S. Spicher,
     C. Bannwarth and S. Grimme, J. Chem. Phys., 2019, 150, 154122.
     DOI: 10.1063/1.5090222
   * E. Caldeweyher, J.-M. Mewes, S. Ehlert and S. Grimme, Phys. Chem. Chem. Phys.
     2020, 22, 8499-8512. DOI: 10.1039/D0CP00502A
   
   for sTDA-xTB:
   * S. Grimme and C. Bannwarth, J. Chem. Phys., 2016, 145, 054103.
     DOI: 10.1063/1.4959605
   
   in the mass-spec context:
   * V. Asgeirsson, C. Bauer and S. Grimme, Chem. Sci., 2017, 8, 4879.
     DOI: 10.1039/c7sc00601b
   * J. Koopman and S. Grimme, ACS Omega 2019, 4, 12, 15120-15133.
     DOI: 10.1021/acsomega.9b02011
   
   for metadynamics refer to:
   * S. Grimme, J. Chem. Theory Comput., 2019, 155, 2847-2862
     DOI: 10.1021/acs.jctc.9b00143
   
   for SPH calculations refer to:
   * S. Spicher and S. Grimme, J. Chem. Theory Comput., 2021, 17, 1701-1714
     DOI: 10.1021/acs.jctc.0c01306
   
   for ONIOM refer to:
   * C. Plett, A. Katbashev, S. Ehlert, S. Grimme, M. Bursch,
     Phys. Chem. Chem. Phys., 2023, 25, 17860-17868. DOI: 10.1039/D3CP02178E
   
   for DIPRO refer to:
   * J. Kohn, N. Gildemeister, S. Grimme, D. Fazzi, A. Hansen,
     J. Chem. Phys., 2023, just accepted.
   
   for PTB refer to:
   * S. Grimme, M. Mueller, A. Hansen, J. Chem. Phys., 2023, 158, 124111.
     DOI: 10.1063/5.0137838
   
   with help from (in alphabetical order)
   P. Atkinson, C. Bannwarth, F. Bohle, G. Brandenburg, E. Caldeweyher
   M. Checinski, S. Dohm, S. Ehlert, S. Ehrlich, I. Gerasimov, C. Hölzer
   A. Katbashev, J. Kohn, J. Koopman, C. Lavigne, S. Lehtola, F. März, M. Müller,
   F. Musil, H. Neugebauer, J. Pisarek, C. Plett, P. Pracht, F. Pultar,
   J. Seibert, P. Shushkov, S. Spicher, M. Stahn, M. Steiner, T. Strunk,
   J. Stückrath, T. Rose, and J. Unsleber
   
 * started run on 2025/12/01 at 14:19:53.720     
   ID    Z sym.   atoms
    1    8 O      1, 3
    2    6 C      2, 4-7
    3    1 H      8-15

           -------------------------------------------------
          |                Calculation Setup                |
           -------------------------------------------------

          program call               : xtb pipeline_data/3_conformer_xyz/acrylates/rdkit/VVQNEPGJFQJSBK-UHFFFAOYSA-N_conf181.xyz --opt --gfn 2-xTB --iterations 250
          coordinate file            : pipeline_data/3_conformer_xyz/acrylates/rdkit/VVQNEPGJFQJSBK-UHFFFAOYSA-N_conf181.xyz
          omp threads                :                    24

########################################################################
[WARNING] Please study the warnings concerning your input carefully
-1- readin_getIntValue: could not parse '2-xTB'
########################################################################

           -------------------------------------------------
          |                 G F N 2 - x T B                 |
           -------------------------------------------------

        Reference                      10.1021/acs.jctc.8b01176
      * Hamiltonian:
        H0-scaling (s, p, d)           1.850000    2.230000    2.230000
        zeta-weighting                 0.500000
      * Dispersion:
        s8                             2.700000
        a1                             0.520000
        a2                             5.000000
        s9                             5.000000
      * Repulsion:
        kExp                           1.500000    1.000000
        rExp                           1.000000
      * Coulomb:
        alpha                          2.000000
        third order                    shell-resolved
        anisotropic                    true
        a3                             3.000000
        a5                             4.000000
        cn-shift                       1.200000
        cn-exp                         4.000000
        max-rad                        5.000000


          ...................................................
          :                      SETUP                      :
          :.................................................:
          :  # basis functions                  36          :
          :  # atomic orbitals                  36          :
          :  # shells                           22          :
          :  # electrons                        40          :
          :  max. iterations                   250          :
          :  Hamiltonian                  GFN2-xTB          :
          :  restarted?                      false          :
          :  GBSA solvation                  false          :
          :  PC potential                    false          :
          :  electronic temp.          300.0000000     K    :
          :  accuracy                    1.0000000          :
          :  -> integral cutoff          0.2500000E+02      :
          :  -> integral neglect         0.1000000E-07      :
          :  -> SCF convergence          0.1000000E-05 Eh   :
          :  -> wf. convergence          0.1000000E-03 e    :
          :  Broyden damping             0.4000000          :
          :  net charge                          0          :
          :  unpaired electrons                  0          :
          ...................................................

 iter      E             dE          RMSdq      gap      omega  full diag
   1    -23.0687017 -0.230687E+02  0.493E+00    4.01       0.0  T
   2    -23.1206742 -0.519726E-01  0.254E+00    3.13       1.0  T
   3    -23.1217656 -0.109135E-02  0.148E+00    3.70       1.0  T
   4    -23.1278116 -0.604599E-02  0.221E-01    3.45       1.0  T
   5    -23.1281445 -0.332922E-03  0.820E-02    3.50       1.0  T
   6    -23.1281477 -0.322728E-05  0.324E-02    3.49       1.0  T
   7    -23.1281483 -0.620152E-06  0.185E-02    3.49       1.4  T
   8    -23.1281518 -0.348355E-05  0.514E-03    3.49       5.0  T
   9    -23.1281519 -0.690267E-07  0.169E-03    3.49      15.3  T
  10    -23.1281519 -0.522334E-08  0.768E-04    3.49      33.6  T
  11    -23.1281519 -0.111896E-08  0.144E-04    3.49     178.9  T

   *** convergence criteria satisfied after 11 iterations ***

         #    Occupation            Energy/Eh            Energy/eV
      -------------------------------------------------------------
         1        2.0000           -0.7293277             -19.8460
       ...           ...                  ...                  ...
        14        2.0000           -0.4872852             -13.2597
        15        2.0000           -0.4713164             -12.8252
        16        2.0000           -0.4648429             -12.6490
        17        2.0000           -0.4533666             -12.3367
        18        2.0000           -0.4381887             -11.9237
        19        2.0000           -0.4233216             -11.5192
        20        2.0000           -0.4120301             -11.2119 (HOMO)
        21                         -0.2837206              -7.7204 (LUMO)
        22                         -0.1711535              -4.6573
        23                         -0.0262248              -0.7136
        24                          0.0905710               2.4646
        25                          0.1017524               2.7688
       ...                                ...                  ...
        36                          0.6328177              17.2198
      -------------------------------------------------------------
                  HL-Gap            0.1283095 Eh            3.4915 eV
             Fermi-level           -0.3478753 Eh           -9.4662 eV

 SCC (total)                   0 d,  0 h,  0 min,  0.013 sec
 SCC setup                      ...        0 min,  0.000 sec (  2.268%)
 Dispersion                     ...        0 min,  0.000 sec (  1.527%)
 classical contributions        ...        0 min,  0.000 sec (  0.497%)
 integral evaluation            ...        0 min,  0.001 sec (  4.507%)
 iterations                     ...        0 min,  0.011 sec ( 82.986%)
 molecular gradient             ...        0 min,  0.001 sec (  7.081%)
 printout                       ...        0 min,  0.000 sec (  0.875%)

         :::::::::::::::::::::::::::::::::::::::::::::::::::::
         ::                     SUMMARY                     ::
         :::::::::::::::::::::::::::::::::::::::::::::::::::::
         :: total energy             -22.879783558128 Eh    ::
         :: gradient norm              0.122625335624 Eh/a0 ::
         :: HOMO-LUMO gap              3.491480180476 eV    ::
         ::.................................................::
         :: SCC energy               -23.128142779533 Eh    ::
         :: -> isotropic ES            0.047964735551 Eh    ::
         :: -> anisotropic ES          0.001353688373 Eh    ::
         :: -> anisotropic XC          0.007065586116 Eh    ::
         :: -> dispersion             -0.008508213685 Eh    ::
         :: repulsion energy           0.248359221405 Eh    ::
         :: add. restraining           0.000000000000 Eh    ::
         :: total charge              -0.000000000000 e     ::
         :::::::::::::::::::::::::::::::::::::::::::::::::::::

      ----------------------------------------------------------- 
     |                   =====================                   |
     |                        A N C O P T                        |
     |                   =====================                   |
     |               Approximate Normal Coordinate               |
     |                Rational Function Optimizer                |
      ----------------------------------------------------------- 
      ----------------------------------------------------------- 
     |                   =====================                   |
     |                        A N C O P T                        |
     |                   =====================                   |
     |               Approximate Normal Coordinate               |
     |                Rational Function Optimizer                |
      ----------------------------------------------------------- 

          ...................................................
          :                      SETUP                      :
          :.................................................:
          :   optimization level            normal          :
          :   max. optcycles                   200          :
          :   ANC micro-cycles                  20          :
          :   degrees of freedom                39          :
          :.................................................:
          :   RF solver                   davidson          :
          :   write xtbopt.log                true          :
          :   linear?                        false          :
          :   energy convergence         0.5000000E-05 Eh   :
          :   grad. convergence          0.1000000E-02 Eh/α :
          :   maxmium RF displ.          1.0000000          :
          :   Hlow (freq-cutoff)         0.1000000E-01      :
          :   Hmax (freq-cutoff)         5.0000000          :
          :   S6 in model hess.         20.0000000          :
          ...................................................

generating ANC from exact Hessian ...
Using Lindh-Hessian (1995)
 Shifting diagonal of input Hessian by   7.117465187378762E-003
 Lowest  eigenvalues of input Hessian
    0.000000    0.000000    0.000000    0.000000    0.000000    0.000000
    0.010000    0.010599    0.013640    0.016175    0.019543    0.024122
    0.025429    0.032855    0.034600    0.047146    0.073135    0.074792
 Highest eigenvalues
    1.113311    1.240211    1.462957    1.784557    1.876305    2.118433
 

........................................................................
.............................. CYCLE    1 ..............................
........................................................................

 iter      E             dE          RMSdq      gap      omega  full diag
   1    -23.1281519 -0.231282E+02  0.729E-05    3.49       0.0  T
   2    -23.1281519 -0.293454E-11  0.448E-05    3.49     576.6  T
   3    -23.1281519  0.275335E-11  0.223E-05    3.49    1156.5  T
     SCC iter.                  ...        0 min,  0.002 sec
     gradient                   ...        0 min,  0.001 sec
 * total energy  :   -22.8797836 Eh     change       -0.4566303E-10 Eh
   gradient norm :     0.1226256 Eh/α   predicted     0.0000000E+00 (-100.00%)
   displ. norm   :     0.3289741 α      lambda       -0.1609229E-01
   maximum displ.:     0.2567604 α      in ANC's #7, #10, #22, ...

........................................................................
.............................. CYCLE    2 ..............................
........................................................................

 iter      E             dE          RMSdq      gap      omega  full diag
   1    -23.1593951 -0.231594E+02  0.312E-01    3.65       0.0  T
   2    -23.1596803 -0.285140E-03  0.191E-01    3.70       1.0  T
   3    -23.1596734  0.690460E-05  0.881E-02    3.71       1.0  T
   4    -23.1596847 -0.113700E-04  0.399E-02    3.71       1.0  T
   5    -23.1597012 -0.164513E-04  0.109E-02    3.71       2.4  T
   6    -23.1597022 -0.101231E-05  0.444E-03    3.71       5.8  T
   7    -23.1597022 -0.539084E-07  0.110E-03    3.71      23.4  T
   8    -23.1597022 -0.227421E-08  0.487E-04    3.71      53.0  T
   9    -23.1597022 -0.298773E-09  0.883E-05    3.71     292.3  T
     SCC iter.                  ...        0 min,  0.005 sec
     gradient                   ...        0 min,  0.001 sec
 * total energy  :   -22.8911077 Eh     change       -0.1132417E-01 Eh
   gradient norm :     0.0487889 Eh/α   predicted    -0.8916938E-02 ( -21.26%)
   displ. norm   :     0.3254942 α      lambda       -0.5309858E-02
   maximum displ.:     0.2813016 α      in ANC's #7, #10, #9, ...

........................................................................
.............................. CYCLE    3 ..............................
........................................................................

 iter      E             dE          RMSdq      gap      omega  full diag
   1    -23.1756207 -0.231756E+02  0.235E-01    3.81       0.0  T
   2    -23.1757422 -0.121592E-03  0.142E-01    3.85       1.0  T
   3    -23.1757383  0.393329E-05  0.554E-02    3.85       1.0  T
   4    -23.1757437 -0.537118E-05  0.240E-02    3.85       1.1  T
   5    -23.1757494 -0.566805E-05  0.771E-03    3.85       3.3  T
   6    -23.1757499 -0.527318E-06  0.267E-03    3.85       9.7  T
   7    -23.1757499 -0.226835E-07  0.705E-04    3.85      36.6  T
   8    -23.1757499 -0.103093E-08  0.325E-04    3.85      79.3  T
     SCC iter.                  ...        0 min,  0.005 sec
     gradient                   ...        0 min,  0.001 sec
 * total energy  :   -22.8940547 Eh     change       -0.2946960E-02 Eh
   gradient norm :     0.0153517 Eh/α   predicted    -0.2936204E-02 (  -0.37%)
   displ. norm   :     0.1295652 α      lambda       -0.4970781E-03
   maximum displ.:     0.1178295 α      in ANC's #7, #3, #4, ...

........................................................................
.............................. CYCLE    4 ..............................
........................................................................

 iter      E             dE          RMSdq      gap      omega  full diag
   1    -23.1746478 -0.231746E+02  0.614E-02    3.85       0.0  T
   2    -23.1746547 -0.695501E-05  0.379E-02    3.85       1.0  T
   3    -23.1746544  0.306787E-06  0.144E-02    3.85       1.8  T
   4    -23.1746542  0.184625E-06  0.780E-03    3.85       3.3  T
   5    -23.1746550 -0.728290E-06  0.113E-03    3.85      22.9  T
   6    -23.1746550 -0.619345E-08  0.519E-04    3.85      49.8  T
   7    -23.1746550 -0.340588E-09  0.168E-04    3.85     153.6  T
     SCC iter.                  ...        0 min,  0.005 sec
     gradient                   ...        0 min,  0.001 sec
 * total energy  :   -22.8943803 Eh     change       -0.3255699E-03 Eh
   gradient norm :     0.0070545 Eh/α   predicted    -0.2527126E-03 ( -22.38%)
   displ. norm   :     0.0990474 α      lambda       -0.1743905E-03
   maximum displ.:     0.0752413 α      in ANC's #7, #3, #4, ...

........................................................................
.............................. CYCLE    5 ..............................
........................................................................

 iter      E             dE          RMSdq      gap      omega  full diag
   1    -23.1741694 -0.231742E+02  0.368E-02    3.85       0.0  T
   2    -23.1741730 -0.354897E-05  0.212E-02    3.85       1.2  T
   3    -23.1741729  0.884453E-07  0.108E-02    3.85       2.4  T
   4    -23.1741728  0.804559E-07  0.569E-03    3.85       4.5  T
   5    -23.1741732 -0.393306E-06  0.952E-04    3.85      27.1  T
   6    -23.1741732 -0.485425E-08  0.453E-04    3.85      57.0  T
     SCC iter.                  ...        0 min,  0.005 sec
     gradient                   ...        0 min,  0.001 sec
 * total energy  :   -22.8944811 Eh     change       -0.1008175E-03 Eh
   gradient norm :     0.0027474 Eh/α   predicted    -0.8805136E-04 ( -12.66%)
   displ. norm   :     0.0529732 α      lambda       -0.5230326E-04
   maximum displ.:     0.0258171 α      in ANC's #3, #7, #4, ...

........................................................................
.............................. CYCLE    6 ..............................
........................................................................

 iter      E             dE          RMSdq      gap      omega  full diag
   1    -23.1744127 -0.231744E+02  0.312E-02    3.85       0.0  T
   2    -23.1744132 -0.452022E-06  0.185E-02    3.85       1.4  T
   3    -23.1744121  0.101876E-05  0.117E-02    3.85       2.2  T
   4    -23.1744134 -0.126361E-05  0.194E-03    3.85      13.3  T
   5    -23.1744134 -0.314503E-07  0.591E-04    3.85      43.7  T
   6    -23.1744134 -0.735721E-09  0.299E-04    3.85      86.5  T
     SCC iter.                  ...        0 min,  0.004 sec
     gradient                   ...        0 min,  0.001 sec
 * total energy  :   -22.8945090 Eh     change       -0.2792115E-04 Eh
   gradient norm :     0.0023489 Eh/α   predicted    -0.2622577E-04 (  -6.07%)
   displ. norm   :     0.0403588 α      lambda       -0.2276331E-04
   maximum displ.:     0.0272003 α      in ANC's #4, #1, #3, ...

........................................................................
.............................. CYCLE    7 ..............................
........................................................................

 iter      E             dE          RMSdq      gap      omega  full diag
   1    -23.1747086 -0.231747E+02  0.202E-02    3.85       0.0  T
   2    -23.1747086 -0.582517E-07  0.119E-02    3.85       2.2  T
   3    -23.1747081  0.549171E-06  0.836E-03    3.85       3.1  T
   4    -23.1747088 -0.674783E-06  0.603E-04    3.85      42.8  T
   5    -23.1747088 -0.182435E-08  0.321E-04    3.85      80.3  T
     SCC iter.                  ...        0 min,  0.004 sec
     gradient                   ...        0 min,  0.001 sec
 * total energy  :   -22.8945254 Eh     change       -0.1637840E-04 Eh
   gradient norm :     0.0017403 Eh/α   predicted    -0.1139998E-04 ( -30.40%)
   displ. norm   :     0.0924315 α      lambda       -0.2202505E-04
   maximum displ.:     0.0680209 α      in ANC's #4, #1, #6, ...

........................................................................
.............................. CYCLE    8 ..............................
........................................................................

 iter      E             dE          RMSdq      gap      omega  full diag
   1    -23.1749832 -0.231750E+02  0.407E-02    3.85       0.0  T
   2    -23.1749838 -0.524636E-06  0.241E-02    3.86       1.1  T
   3    -23.1749824  0.134107E-05  0.128E-02    3.85       2.0  T
   4    -23.1749840 -0.155669E-05  0.212E-03    3.86      12.2  T
   5    -23.1749840 -0.528278E-07  0.646E-04    3.86      39.9  T
   6    -23.1749840 -0.107712E-08  0.333E-04    3.86      77.5  T
     SCC iter.                  ...        0 min,  0.005 sec
     gradient                   ...        0 min,  0.001 sec
 * total energy  :   -22.8945464 Eh     change       -0.2103869E-04 Eh
   gradient norm :     0.0021117 Eh/α   predicted    -0.1105332E-04 ( -47.46%)
   displ. norm   :     0.0750647 α      lambda       -0.2172126E-04
   maximum displ.:     0.0571207 α      in ANC's #4, #1, #6, ...

........................................................................
.............................. CYCLE    9 ..............................
........................................................................

 iter      E             dE          RMSdq      gap      omega  full diag
   1    -23.1748894 -0.231749E+02  0.343E-02    3.86       0.0  T
   2    -23.1748895 -0.107732E-06  0.202E-02    3.86       1.3  T
   3    -23.1748895  0.367098E-07  0.266E-03    3.86       9.7  T
   4    -23.1748895 -0.595564E-07  0.103E-03    3.86      25.1  T
   5    -23.1748896 -0.792804E-08  0.523E-04    3.86      49.4  T
   6    -23.1748896 -0.666660E-09  0.194E-04    3.86     132.9  T
     SCC iter.                  ...        0 min,  0.005 sec
     gradient                   ...        0 min,  0.001 sec
 * total energy  :   -22.8945651 Eh     change       -0.1871431E-04 Eh
   gradient norm :     0.0023237 Eh/α   predicted    -0.1092264E-04 ( -41.63%)
   displ. norm   :     0.1892675 α      lambda       -0.5548905E-04
   maximum displ.:     0.1401632 α      in ANC's #4, #1, #6, ...

........................................................................
.............................. CYCLE   10 ..............................
........................................................................

 iter      E             dE          RMSdq      gap      omega  full diag
   1    -23.1741926 -0.231742E+02  0.800E-02    3.86       0.0  T
   2    -23.1741931 -0.507452E-06  0.472E-02    3.86       1.0  T
   3    -23.1741931 -0.199828E-07  0.398E-03    3.86       6.5  T
   4    -23.1741932 -0.110606E-06  0.208E-03    3.86      12.4  T
   5    -23.1741932 -0.198949E-07  0.121E-03    3.86      21.3  T
   6    -23.1741932 -0.570561E-08  0.415E-04    3.86      62.2  T
   7    -23.1741932 -0.571145E-09  0.110E-04    3.86     234.8  T
     SCC iter.                  ...        0 min,  0.006 sec
     gradient                   ...        0 min,  0.001 sec
 * total energy  :   -22.8946025 Eh     change       -0.3740341E-04 Eh
   gradient norm :     0.0034930 Eh/α   predicted    -0.2873890E-04 ( -23.17%)
   displ. norm   :     0.1126814 α      lambda       -0.3280487E-04
   maximum displ.:     0.0792785 α      in ANC's #4, #1, #6, ...

........................................................................
.............................. CYCLE   11 ..............................
........................................................................

 iter      E             dE          RMSdq      gap      omega  full diag
   1    -23.1742467 -0.231742E+02  0.493E-02    3.86       0.0  T
   2    -23.1742468 -0.107936E-06  0.292E-02    3.86       1.0  T
   3    -23.1742465  0.284108E-06  0.556E-03    3.86       4.6  T
   4    -23.1742469 -0.358173E-06  0.114E-03    3.86      22.6  T
   5    -23.1742469 -0.266705E-08  0.674E-04    3.86      38.3  T
   6    -23.1742469 -0.110711E-08  0.131E-04    3.86     197.4  T
     SCC iter.                  ...        0 min,  0.005 sec
     gradient                   ...        0 min,  0.001 sec
 * total energy  :   -22.8946261 Eh     change       -0.2352225E-04 Eh
   gradient norm :     0.0030696 Eh/α   predicted    -0.1661212E-04 ( -29.38%)
   displ. norm   :     0.0833529 α      lambda       -0.3006512E-04
   maximum displ.:     0.0540995 α      in ANC's #4, #1, #6, ...

........................................................................
.............................. CYCLE   12 ..............................
........................................................................

 iter      E             dE          RMSdq      gap      omega  full diag
   1    -23.1748908 -0.231749E+02  0.345E-02    3.86       0.0  T
   2    -23.1748911 -0.352417E-06  0.204E-02    3.86       1.3  T
   3    -23.1748910  0.702322E-07  0.416E-03    3.86       6.2  T
   4    -23.1748912 -0.135644E-06  0.871E-04    3.86      29.7  T
   5    -23.1748912 -0.158049E-08  0.454E-04    3.86      56.9  T
     SCC iter.                  ...        0 min,  0.004 sec
     gradient                   ...        0 min,  0.001 sec
 * total energy  :   -22.8946455 Eh     change       -0.1944584E-04 Eh
   gradient norm :     0.0014219 Eh/α   predicted    -0.1513581E-04 ( -22.16%)
   displ. norm   :     0.2562440 α      lambda       -0.2080544E-04
   maximum displ.:     0.1817772 α      in ANC's #4, #1, #6, ...

........................................................................
.............................. CYCLE   13 ..............................
........................................................................

 iter      E             dE          RMSdq      gap      omega  full diag
   1    -23.1730197 -0.231730E+02  0.100E-01    3.87       0.0  T
   2    -23.1730222 -0.244115E-05  0.589E-02    3.87       1.0  T
   3    -23.1730202  0.196575E-05  0.149E-02    3.86       1.7  T
   4    -23.1730223 -0.209633E-05  0.541E-03    3.87       4.8  T
   5    -23.1730226 -0.318137E-06  0.152E-03    3.87      17.0  T
   6    -23.1730226 -0.567457E-09  0.476E-04    3.87      54.2  T
   7    -23.1730226 -0.118304E-08  0.142E-04    3.87     181.7  T
     SCC iter.                  ...        0 min,  0.006 sec
     gradient                   ...        0 min,  0.001 sec
 * total energy  :   -22.8946146 Eh     change        0.3093128E-04 Eh
   gradient norm :     0.0058330 Eh/α   predicted    -0.1070651E-04 (-134.61%)
   displ. norm   :     0.1038035 α      lambda       -0.7721118E-04
   maximum displ.:     0.0767641 α      in ANC's #4, #1, #6, ...

........................................................................
.............................. CYCLE   14 ..............................
........................................................................

 iter      E             dE          RMSdq      gap      omega  full diag
   1    -23.1746979 -0.231747E+02  0.461E-02    3.86       0.0  T
   2    -23.1746988 -0.827130E-06  0.268E-02    3.86       1.0  T
   3    -23.1746988  0.216607E-07  0.460E-03    3.87       5.6  T
   4    -23.1746988 -0.441597E-07  0.232E-03    3.86      11.1  T
   5    -23.1746989 -0.562715E-07  0.877E-04    3.86      29.5  T
   6    -23.1746989 -0.157191E-08  0.278E-04    3.86      93.0  T
     SCC iter.                  ...        0 min,  0.005 sec
     gradient                   ...        0 min,  0.001 sec
 * total energy  :   -22.8946562 Eh     change       -0.4159853E-04 Eh
   gradient norm :     0.0016221 Eh/α   predicted    -0.3901996E-04 (  -6.20%)
   displ. norm   :     0.0097153 α      lambda       -0.4866034E-05
   maximum displ.:     0.0044198 α      in ANC's #7, #6, #9, ...

........................................................................
.............................. CYCLE   15 ..............................
........................................................................

 iter      E             dE          RMSdq      gap      omega  full diag
   1    -23.1751254 -0.231751E+02  0.922E-03    3.86       0.0  T
   2    -23.1751255 -0.134346E-06  0.533E-03    3.87       4.8  T
   3    -23.1751255 -0.182112E-10  0.206E-03    3.87      12.5  T
   4    -23.1751255 -0.570974E-08  0.565E-04    3.87      45.7  T
   5    -23.1751255 -0.252775E-08  0.241E-04    3.87     106.9  T
     SCC iter.                  ...        0 min,  0.004 sec
     gradient                   ...        0 min,  0.001 sec
 * total energy  :   -22.8946601 Eh     change       -0.3945608E-05 Eh
   gradient norm :     0.0004017 Eh/α   predicted    -0.2435350E-05 ( -38.28%)
   displ. norm   :     0.0204803 α      lambda       -0.1382969E-05
   maximum displ.:     0.0149361 α      in ANC's #4, #1, #24, ...

   *** GEOMETRY OPTIMIZATION CONVERGED AFTER 15 ITERATIONS ***

------------------------------------------------------------------------
 total energy gain   :        -0.0148766 Eh       -9.3352 kcal/mol
 total RMSD          :         0.3078849 a0        0.1629 Å
 total power (kW/mol):        -2.6038925 (step) -334.5042 (real)
------------------------------------------------------------------------

 ANCopt (total)                0 d,  0 h,  0 min,  0.117 sec
 optimizer setup                ...        0 min,  0.000 sec (  0.090%)
 model hessian                  ...        0 min,  0.002 sec (  2.047%)
 ANC generation                 ...        0 min,  0.001 sec (  0.873%)
 coordinate transformation      ...        0 min,  0.000 sec (  0.085%)
 single point calculation       ...        0 min,  0.105 sec ( 90.284%)
 optimization log               ...        0 min,  0.001 sec (  1.127%)
 hessian update                 ...        0 min,  0.004 sec (  3.418%)
 rational function              ...        0 min,  0.002 sec (  1.527%)

================
 final structure:
================
15
 xtb: 6.7.1 (edcfbbe)
O            0.73069012216628        1.46541909001435        0.56375716846958
C            0.39929980893770        0.34832259127498        0.24914763846763
O            1.27632949841954       -0.65839717801240        0.10730813797145
C            2.63605212712860       -0.32740076033884        0.34268090871901
C           -1.00512100448398       -0.06089631717766       -0.02354779700852
C           -1.29777417111257       -1.26805906482291       -0.49496401971743
C           -2.02253158180429        0.99712916158198        0.26249537105682
H            3.20551928250806       -1.23636935929583        0.16683130964098
H            2.95714950227270        0.46544243168319       -0.33630998989957
H            2.77089772261557        0.01729083115462        1.37022283430319
H           -2.31570853038737       -1.55616698365585       -0.69952638770307
H           -0.53419583888972       -2.00014178537313       -0.68907203862059
H           -2.05490578654437        1.19878122874420        1.33222717573274
H           -3.00830221595659        0.69065515780400       -0.07422638180587
H           -1.73739793486950        1.92439195641926       -0.23063692960635
 
 Bond Distances (Angstroems)
 ---------------------------
O1-C2=1.2069         C2-O1=1.2069         C2-O3=1.3427         C2-C5=1.4880         O3-C2=1.3427         O3-C4=1.4191         
C4-O3=1.4191         C4-H8=1.0869         C4-H9=1.0921         C4-H10=1.0922        C5-C2=1.4880         C5-C6=1.3286         
C5-C7=1.4954         C6-C5=1.3286         C6-H11=1.0775        C6-H12=1.0755        C7-C5=1.4954         C7-H13=1.0891        
C7-H14=1.0858        C7-H15=1.0883        H8-C4=1.0869         H9-C4=1.0921         H10-C4=1.0922        H11-C6=1.0775        
H12-C6=1.0755        H13-C7=1.0891        H14-C7=1.0858        H15-C7=1.0883        
 C  H  Rav=1.0859 sigma=0.0058  Rmin=1.0755  Rmax=1.0922     8
 C  C  Rav=1.4374 sigma=0.0770  Rmin=1.3286  Rmax=1.4954     3
 O  C  Rav=1.3229 sigma=0.0877  Rmin=1.2069  Rmax=1.4191     3
 
 selected bond angles (degree)
 --------------------
O3-C2-O1=122.83                C5-C2-O1=124.16                C5-C2-O3=113.01                C4-O3-C2=115.69                
H8-C4-O3=106.27                H9-C4-O3=110.36                H9-C4-H8=110.64                H10-C4-O3=110.36               
H10-C4-H8=110.58               H10-C4-H9=108.63               C6-C5-C2=121.52                C7-C5-C2=114.36                
C7-C5-C6=124.11                H11-C6-C5=121.23               H12-C6-C5=121.74               H12-C6-H11=117.03              
H13-C7-C5=109.82               H14-C7-C5=111.02               H14-C7-H13=109.26              H15-C7-C5=109.75               
H15-C7-H13=107.16              H15-C7-H14=109.75              
 
 selected dihedral angles (degree)
 ---------------------------------
C4-O3-C2-O1=359.57            C4-O3-C2-C5=179.46            H8-C4-O3-C2=181.18            H9-C4-O3-C2=301.18            
H10-C4-O3-C2= 61.26           C6-C5-C2-O1=173.18            C6-C5-C2-O3=353.29            C7-C5-C2-O1=353.85            
C7-C5-C2-O3=173.96            H11-C6-C5-C2=180.58           H11-C6-C5-C7=359.85           H12-C6-C5-C2=  0.61           
H12-C6-C5-C7=179.88           H13-C7-C5-C2=293.58           H13-C7-C5-C6=114.26           H14-C7-C5-C2=172.64           
H14-C7-C5-C6=353.32           H15-C7-C5-C2= 51.14           H15-C7-C5-C6=231.82           
           -------------------------------------------------
          |                Final Singlepoint                |
           -------------------------------------------------

          ...................................................
          :                      SETUP                      :
          :.................................................:
          :  # basis functions                  36          :
          :  # atomic orbitals                  36          :
          :  # shells                           22          :
          :  # electrons                        40          :
          :  max. iterations                   250          :
          :  Hamiltonian                  GFN2-xTB          :
          :  restarted?                      false          :
          :  GBSA solvation                  false          :
          :  PC potential                    false          :
          :  electronic temp.          300.0000000     K    :
          :  accuracy                    1.0000000          :
          :  -> integral cutoff          0.2500000E+02      :
          :  -> integral neglect         0.1000000E-07      :
          :  -> SCF convergence          0.1000000E-05 Eh   :
          :  -> wf. convergence          0.1000000E-03 e    :
          :  Broyden damping             0.4000000          :
          :  net charge                          0          :
          :  unpaired electrons                  0          :
          ...................................................

 iter      E             dE          RMSdq      gap      omega  full diag
   1    -23.1751255 -0.231751E+02  0.136E-04    3.87       0.0  T
   2    -23.1751255 -0.137099E-10  0.937E-05    3.87     275.6  T
   3    -23.1751255 -0.298428E-10  0.611E-05    3.87     422.8  T

   *** convergence criteria satisfied after 3 iterations ***

         #    Occupation            Energy/Eh            Energy/eV
      -------------------------------------------------------------
         1        2.0000           -0.7411523             -20.1678
       ...           ...                  ...                  ...
        14        2.0000           -0.4870394             -13.2530
        15        2.0000           -0.4764367             -12.9645
        16        2.0000           -0.4672647             -12.7149
        17        2.0000           -0.4559212             -12.4062
        18        2.0000           -0.4466430             -12.1538
        19        2.0000           -0.4176536             -11.3649
        20        2.0000           -0.4112846             -11.1916 (HOMO)
        21                         -0.2692291              -7.3261 (LUMO)
        22                         -0.1620577              -4.4098
        23                          0.0154539               0.4205
        24                          0.1037991               2.8245
        25                          0.1149963               3.1292
       ...                                ...                  ...
        36                          0.6993349              19.0299
      -------------------------------------------------------------
                  HL-Gap            0.1420555 Eh            3.8655 eV
             Fermi-level           -0.3402569 Eh           -9.2589 eV

 SCC (total)                   0 d,  0 h,  0 min,  0.005 sec
 SCC setup                      ...        0 min,  0.001 sec ( 11.123%)
 Dispersion                     ...        0 min,  0.000 sec (  2.397%)
 classical contributions        ...        0 min,  0.000 sec (  3.523%)
 integral evaluation            ...        0 min,  0.000 sec (  6.712%)
 iterations                     ...        0 min,  0.003 sec ( 47.003%)
 molecular gradient             ...        0 min,  0.001 sec ( 24.348%)
 printout                       ...        0 min,  0.000 sec (  4.482%)

         :::::::::::::::::::::::::::::::::::::::::::::::::::::
         ::                     SUMMARY                     ::
         :::::::::::::::::::::::::::::::::::::::::::::::::::::
         :: total energy             -22.894660112770 Eh    ::
         :: gradient norm              0.000401928725 Eh/a0 ::
         :: HOMO-LUMO gap              3.865527606339 eV    ::
         ::.................................................::
         :: SCC energy               -23.175113692180 Eh    ::
         :: -> isotropic ES            0.044931528446 Eh    ::
         :: -> anisotropic ES          0.001825050511 Eh    ::
         :: -> anisotropic XC          0.006346854592 Eh    ::
         :: -> dispersion             -0.008682835250 Eh    ::
         :: repulsion energy           0.280453579410 Eh    ::
         :: add. restraining           0.000000000000 Eh    ::
         :: total charge              -0.000000000000 e     ::
         :::::::::::::::::::::::::::::::::::::::::::::::::::::

           -------------------------------------------------
          |                Property Printout                |
           -------------------------------------------------

    * Orbital Energies and Occupations

         #    Occupation            Energy/Eh            Energy/eV
      -------------------------------------------------------------
         1        2.0000           -0.7411523             -20.1678
       ...           ...                  ...                  ...
         8        2.0000           -0.5841214             -15.8948
         9        2.0000           -0.5580667             -15.1858
        10        2.0000           -0.5384077             -14.6508
        11        2.0000           -0.5158673             -14.0375
        12        2.0000           -0.5103844             -13.8883
        13        2.0000           -0.4943827             -13.4528
        14        2.0000           -0.4870394             -13.2530
        15        2.0000           -0.4764367             -12.9645
        16        2.0000           -0.4672647             -12.7149
        17        2.0000           -0.4559212             -12.4062
        18        2.0000           -0.4466430             -12.1538
        19        2.0000           -0.4176536             -11.3649
        20        2.0000           -0.4112846             -11.1916 (HOMO)
        21                         -0.2692291              -7.3261 (LUMO)
        22                         -0.1620577              -4.4098
        23                          0.0154539               0.4205
        24                          0.1037991               2.8245
        25                          0.1149963               3.1292
        26                          0.1325573               3.6071
        27                          0.1596377               4.3440
        28                          0.1822474               4.9592
        29                          0.1928900               5.2488
        30                          0.2051229               5.5817
        31                          0.2197708               5.9803
       ...                                ...                  ...
        36                          0.6993349              19.0299
      -------------------------------------------------------------
                  HL-Gap            0.1420555 Eh            3.8655 eV
             Fermi-level           -0.3402569 Eh           -9.2589 eV

     #   Z          covCN         q      C6AA      α(0)
     1   8 O        0.856    -0.411    21.907     6.275
     2   6 C        2.733     0.349    21.067     7.515
     3   8 O        1.704    -0.264    18.374     5.787
     4   6 C        3.658     0.035    20.266     6.461
     5   6 C        2.937    -0.008    28.212     8.711
     6   6 C        2.844    -0.082    30.042     8.983
     7   6 C        3.759    -0.111    22.667     6.787
     8   1 H        0.925     0.066     2.126     2.280
     9   1 H        0.924     0.062     2.171     2.304
    10   1 H        0.924     0.062     2.175     2.306
    11   1 H        0.926     0.056     2.248     2.344
    12   1 H        0.926     0.062     2.170     2.304
    13   1 H        0.925     0.063     2.166     2.302
    14   1 H        0.925     0.051     2.311     2.377
    15   1 H        0.925     0.068     2.104     2.268

 Mol. C6AA /au·bohr⁶  :       2052.366796
 Mol. C8AA /au·bohr⁸  :      45513.405643
 Mol. α(0) /au        :         69.004958


Wiberg/Mayer (AO) data.
largest (>0.10) Wiberg bond orders for each atom

 ---------------------------------------------------------------------------
     #   Z sym  total        # sym  WBO       # sym  WBO       # sym  WBO
 ---------------------------------------------------------------------------
     1   8 O    2.034 --     2 C    1.732     3 O    0.169
     2   6 C    3.917 --     1 O    1.732     3 O    1.115     5 C    0.994
     3   8 O    2.299 --     2 C    1.115     4 C    0.961     1 O    0.169
     4   6 C    3.928 --     8 H    0.982     9 H    0.977    10 H    0.976
                             3 O    0.961
     5   6 C    3.987 --     6 C    1.878     7 C    1.029     2 C    0.994
     6   6 C    3.989 --     5 C    1.878    11 H    0.974    12 H    0.973
     7   6 C    3.994 --     5 C    1.029    14 H    0.985    15 H    0.968
                            13 H    0.965
     8   1 H    0.995 --     4 C    0.982
     9   1 H    0.996 --     4 C    0.977
    10   1 H    0.996 --     4 C    0.976
    11   1 H    0.997 --     6 C    0.974
    12   1 H    0.996 --     6 C    0.973
    13   1 H    0.996 --     7 C    0.965
    14   1 H    0.997 --     7 C    0.985
    15   1 H    0.995 --     7 C    0.968
 ---------------------------------------------------------------------------

Topologies differ in total number of bonds
Writing topology from bond orders to xtbtopo.mol

molecular dipole:
                 x           y           z       tot (Debye)
 q only:       -0.115      -0.655      -0.174
   full:       -0.085      -0.738      -0.187       1.947
molecular quadrupole (traceless):
                xx          xy          yy          xz          yz          zz
 q only:        7.447      -2.715      -5.030       0.302      -0.979      -2.417
  q+dip:        7.012      -2.497      -5.307       0.223      -1.007      -1.705
   full:        7.049      -2.657      -6.213       0.061      -1.676      -0.836

           -------------------------------------------------
          |                Geometry Summary                 |
           -------------------------------------------------

      molecular mass/u    :      100.1160153
   center of mass at/Å    :        0.1587532       0.0866757       0.1559808
  moments of inertia/u·Å² :        0.9869495E+02   0.2548177E+03   0.3466376E+03
rotational constants/cm⁻¹ :        0.1708054E+00   0.6615565E-01   0.4863186E-01

 * 12 selected distances

     #   Z          #   Z                                           value/Å
     1   8 O        2   6 C                                       1.2069397
     2   6 C        3   8 O                                       1.3426781
     3   8 O        4   6 C                                       1.4190860 (max)
     5   6 C        6   6 C                                       1.3285787
     4   6 C        8   1 H                                       1.0869407
     4   6 C        9   1 H                                       1.0921230
     4   6 C       10   1 H                                       1.0921714
     6   6 C       11   1 H                                       1.0775168
     6   6 C       12   1 H                                       1.0754883 (min)
     7   6 C       13   1 H                                       1.0890537
     7   6 C       14   1 H                                       1.0858415
     7   6 C       15   1 H                                       1.0882542

 * 3 distinct bonds (by element types)

   Z      Z             #   av. dist./Å        max./Å        min./Å
   1 H    6 C           8     1.0859237     1.0921714     1.0754883
   6 C    6 C           1     1.3285787     1.3285787     1.3285787
   6 C    8 O           3     1.3229013     1.4190860     1.2069397


optimized geometry written to: xtbopt.xyz


           -------------------------------------------------
          | TOTAL ENERGY              -22.894660112770 Eh   |
          | GRADIENT NORM               0.000401928725 Eh/α |
          | HOMO-LUMO GAP               3.865527606339 eV   |
           -------------------------------------------------
########################################################################
[WARNING] Runtime exception occurred
-2- restart_readRestart: Dimension missmatch in restart file.
-1- restart_readRestart: Number of electron missmatch in restart file.
########################################################################

------------------------------------------------------------------------
 * finished run on 2025/12/01 at 14:19:53.876     
------------------------------------------------------------------------
 total:
 * wall-time:     0 d,  0 h,  0 min,  0.156 sec
 *  cpu-time:     0 d,  0 h,  0 min,  3.284 sec
 * ratio c/w:    21.108 speedup
 SCF:
 * wall-time:     0 d,  0 h,  0 min,  0.014 sec
 *  cpu-time:     0 d,  0 h,  0 min,  0.317 sec
 * ratio c/w:    23.241 speedup
 ANC optimizer:
 * wall-time:     0 d,  0 h,  0 min,  0.123 sec
 *  cpu-time:     0 d,  0 h,  0 min,  2.806 sec
 * ratio c/w:    22.799 speedup

normal termination of xtb
