      -----------------------------------------------------------      
     |                   =====================                   |     
     |                           x T B                           |     
     |                   =====================                   |     
     |                         S. Grimme                         |     
     |          Mulliken Center for Theoretical Chemistry        |     
     |                    University of Bonn                     |     
      -----------------------------------------------------------      

   * xtb version 6.7.1 (edcfbbe) compiled by 'albert@albert-system' on 2024-07-22

   xtb is free software: you can redistribute it and/or modify it under
   the terms of the GNU Lesser General Public License as published by
   the Free Software Foundation, either version 3 of the License, or
   (at your option) any later version.
   
   xtb is distributed in the hope that it will be useful,
   but WITHOUT ANY WARRANTY; without even the implied warranty of
   MERCHANTABILITY or FITNESS FOR A PARTICULAR PURPOSE.  See the
   GNU Lesser General Public License for more details.
   
   Cite this work as:
   * C. Bannwarth, E. Caldeweyher, S. Ehlert, A. Hansen, P. Pracht,
     J. Seibert, S. Spicher, S. Grimme, WIREs Comput. Mol. Sci., 2020, 11,
     e01493. DOI: 10.1002/wcms.1493
   
   for GFN2-xTB:
   * C. Bannwarth, S. Ehlert and S. Grimme., J. Chem. Theory Comput., 2019,
     15, 1652-1671. DOI: 10.1021/acs.jctc.8b01176
   for GFN1-xTB:
   * S. Grimme, C. Bannwarth, P. Shushkov, J. Chem. Theory Comput., 2017,
     13, 1989-2009. DOI: 10.1021/acs.jctc.7b00118
   for GFN0-xTB:
   * P. Pracht, E. Caldeweyher, S. Ehlert, S. Grimme, ChemRxiv, 2019, preprint.
     DOI: 10.26434/chemrxiv.8326202.v1
   for GFN-FF:
   * S. Spicher and S. Grimme, Angew. Chem. Int. Ed., 2020, 59, 15665-15673.
     DOI: 10.1002/anie.202004239
   
   for ALPB and GBSA implicit solvation:
   * S. Ehlert, M. Stahn, S. Spicher, S. Grimme, J. Chem. Theory Comput.,
     2021, 17, 4250-4261. DOI: 10.1021/acs.jctc.1c00471
   
   for ddCOSMO and CPCM-X implicit solvation:
   * M. Stahn, S. Ehlert, S. Grimme, J. Phys. Chem. A,
     2023, XX, XXXX-XXXX. DOI: 10.1021/acs.jpca.3c04382
   
   for DFT-D4:
   * E. Caldeweyher, C. Bannwarth and S. Grimme, J. Chem. Phys., 2017,
     147, 034112. DOI: 10.1063/1.4993215
   * E. Caldeweyher, S. Ehlert, A. Hansen, H. Neugebauer, S. Spicher,
     C. Bannwarth and S. Grimme, J. Chem. Phys., 2019, 150, 154122.
     DOI: 10.1063/1.5090222
   * E. Caldeweyher, J.-M. Mewes, S. Ehlert and S. Grimme, Phys. Chem. Chem. Phys.
     2020, 22, 8499-8512. DOI: 10.1039/D0CP00502A
   
   for sTDA-xTB:
   * S. Grimme and C. Bannwarth, J. Chem. Phys., 2016, 145, 054103.
     DOI: 10.1063/1.4959605
   
   in the mass-spec context:
   * V. Asgeirsson, C. Bauer and S. Grimme, Chem. Sci., 2017, 8, 4879.
     DOI: 10.1039/c7sc00601b
   * J. Koopman and S. Grimme, ACS Omega 2019, 4, 12, 15120-15133.
     DOI: 10.1021/acsomega.9b02011
   
   for metadynamics refer to:
   * S. Grimme, J. Chem. Theory Comput., 2019, 155, 2847-2862
     DOI: 10.1021/acs.jctc.9b00143
   
   for SPH calculations refer to:
   * S. Spicher and S. Grimme, J. Chem. Theory Comput., 2021, 17, 1701-1714
     DOI: 10.1021/acs.jctc.0c01306
   
   for ONIOM refer to:
   * C. Plett, A. Katbashev, S. Ehlert, S. Grimme, M. Bursch,
     Phys. Chem. Chem. Phys., 2023, 25, 17860-17868. DOI: 10.1039/D3CP02178E
   
   for DIPRO refer to:
   * J. Kohn, N. Gildemeister, S. Grimme, D. Fazzi, A. Hansen,
     J. Chem. Phys., 2023, just accepted.
   
   for PTB refer to:
   * S. Grimme, M. Mueller, A. Hansen, J. Chem. Phys., 2023, 158, 124111.
     DOI: 10.1063/5.0137838
   
   with help from (in alphabetical order)
   P. Atkinson, C. Bannwarth, F. Bohle, G. Brandenburg, E. Caldeweyher
   M. Checinski, S. Dohm, S. Ehlert, S. Ehrlich, I. Gerasimov, C. Hölzer
   A. Katbashev, J. Kohn, J. Koopman, C. Lavigne, S. Lehtola, F. März, M. Müller,
   F. Musil, H. Neugebauer, J. Pisarek, C. Plett, P. Pracht, F. Pultar,
   J. Seibert, P. Shushkov, S. Spicher, M. Stahn, M. Steiner, T. Strunk,
   J. Stückrath, T. Rose, and J. Unsleber
   
 * started run on 2025/12/01 at 14:20:00.336     
   ID    Z sym.   atoms
    1    6 C      1-3, 6, 7, 9, 12, 13, 15, 17-19, 22, 23, 25, 27-29
    2    8 O      4, 5, 10, 14, 16, 20, 24, 26, 30
    3    7 N      8, 11, 21
    4    1 H      31-51

           -------------------------------------------------
          |                Calculation Setup                |
           -------------------------------------------------

          program call               : xtb pipeline_data/3_conformer_xyz/acrylates/rdkit/YIJYFLXQHDOQGW-UHFFFAOYSA-N_conf16.xyz --opt --gfn 2-xTB --iterations 250
          coordinate file            : pipeline_data/3_conformer_xyz/acrylates/rdkit/YIJYFLXQHDOQGW-UHFFFAOYSA-N_conf16.xyz
          omp threads                :                    24

########################################################################
[WARNING] Please study the warnings concerning your input carefully
-1- readin_getIntValue: could not parse '2-xTB'
########################################################################

           -------------------------------------------------
          |                 G F N 2 - x T B                 |
           -------------------------------------------------

        Reference                      10.1021/acs.jctc.8b01176
      * Hamiltonian:
        H0-scaling (s, p, d)           1.850000    2.230000    2.230000
        zeta-weighting                 0.500000
      * Dispersion:
        s8                             2.700000
        a1                             0.520000
        a2                             5.000000
        s9                             5.000000
      * Repulsion:
        kExp                           1.500000    1.000000
        rExp                           1.000000
      * Coulomb:
        alpha                          2.000000
        third order                    shell-resolved
        anisotropic                    true
        a3                             3.000000
        a5                             4.000000
        cn-shift                       1.200000
        cn-exp                         4.000000
        max-rad                        5.000000

q/qsh data taken from xtbrestart
CAMM data taken from xtbrestart

          ...................................................
          :                      SETUP                      :
          :.................................................:
          :  # basis functions                 141          :
          :  # atomic orbitals                 141          :
          :  # shells                           81          :
          :  # electrons                       162          :
          :  max. iterations                   250          :
          :  Hamiltonian                  GFN2-xTB          :
          :  restarted?                       true          :
          :  GBSA solvation                  false          :
          :  PC potential                    false          :
          :  electronic temp.          300.0000000     K    :
          :  accuracy                    1.0000000          :
          :  -> integral cutoff          0.2500000E+02      :
          :  -> integral neglect         0.1000000E-07      :
          :  -> SCF convergence          0.1000000E-05 Eh   :
          :  -> wf. convergence          0.1000000E-03 e    :
          :  Broyden damping             0.4000000          :
          :  net charge                          0          :
          :  unpaired electrons                  0          :
          ...................................................

 iter      E             dE          RMSdq      gap      omega  full diag
   1    -95.5632053 -0.955632E+02  0.588E+00    3.25       0.0  T
   2    -95.5938156 -0.306103E-01  0.355E+00    3.25       1.0  T
   3    -95.5759756  0.178399E-01  0.793E-01    3.35       1.0  T
   4    -95.5994148 -0.234391E-01  0.222E-01    3.34       1.0  T
   5    -95.6007240 -0.130924E-02  0.120E-01    3.31       1.0  T
   6    -95.6009138 -0.189835E-03  0.602E-02    3.32       1.0  T
   7    -95.6009556 -0.418131E-04  0.958E-03    3.32       1.5  T
   8    -95.6009562 -0.563093E-06  0.551E-03    3.32       2.5  T
   9    -95.6009564 -0.164682E-06  0.324E-03    3.32       4.3  T
  10    -95.6009566 -0.227878E-06  0.104E-03    3.32      13.5  T
  11    -95.6009566 -0.180896E-07  0.485E-04    3.32      28.9  T
  12    -95.6009566 -0.165569E-08  0.131E-04    3.32     106.6  T

   *** convergence criteria satisfied after 12 iterations ***

         #    Occupation            Energy/Eh            Energy/eV
      -------------------------------------------------------------
         1        2.0000           -0.7702306             -20.9590
       ...           ...                  ...                  ...
        75        2.0000           -0.4478986             -12.1879
        76        2.0000           -0.4457014             -12.1282
        77        2.0000           -0.4438558             -12.0779
        78        2.0000           -0.4371623             -11.8958
        79        2.0000           -0.4264357             -11.6039
        80        2.0000           -0.4229703             -11.5096
        81        2.0000           -0.4195401             -11.4163 (HOMO)
        82                         -0.2976132              -8.0985 (LUMO)
        83                         -0.2970266              -8.0825
        84                         -0.2958814              -8.0513
        85                         -0.2791559              -7.5962
        86                         -0.2733138              -7.4372
       ...                                ...                  ...
       141                          0.6152480              16.7418
      -------------------------------------------------------------
                  HL-Gap            0.1219269 Eh            3.3178 eV
             Fermi-level           -0.3585767 Eh           -9.7574 eV

 SCC (total)                   0 d,  0 h,  0 min,  0.065 sec
 SCC setup                      ...        0 min,  0.001 sec (  0.878%)
 Dispersion                     ...        0 min,  0.002 sec (  2.678%)
 classical contributions        ...        0 min,  0.000 sec (  0.306%)
 integral evaluation            ...        0 min,  0.004 sec (  6.009%)
 iterations                     ...        0 min,  0.051 sec ( 78.447%)
 molecular gradient             ...        0 min,  0.007 sec ( 10.813%)
 printout                       ...        0 min,  0.001 sec (  0.786%)

         :::::::::::::::::::::::::::::::::::::::::::::::::::::
         ::                     SUMMARY                     ::
         :::::::::::::::::::::::::::::::::::::::::::::::::::::
         :: total energy             -94.617330479596 Eh    ::
         :: gradient norm              0.268407045604 Eh/a0 ::
         :: HOMO-LUMO gap              3.317799912068 eV    ::
         ::.................................................::
         :: SCC energy               -95.601380534754 Eh    ::
         :: -> isotropic ES            0.249803710588 Eh    ::
         :: -> anisotropic ES         -0.001624037647 Eh    ::
         :: -> anisotropic XC          0.014228615351 Eh    ::
         :: -> dispersion             -0.048205864046 Eh    ::
         :: repulsion energy           0.984050055158 Eh    ::
         :: add. restraining           0.000000000000 Eh    ::
         :: total charge              -0.000000000000 e     ::
         :::::::::::::::::::::::::::::::::::::::::::::::::::::

      ----------------------------------------------------------- 
     |                   =====================                   |
     |                        A N C O P T                        |
     |                   =====================                   |
     |               Approximate Normal Coordinate               |
     |                Rational Function Optimizer                |
      ----------------------------------------------------------- 
      ----------------------------------------------------------- 
     |                   =====================                   |
     |                        A N C O P T                        |
     |                   =====================                   |
     |               Approximate Normal Coordinate               |
     |                Rational Function Optimizer                |
      ----------------------------------------------------------- 

          ...................................................
          :                      SETUP                      :
          :.................................................:
          :   optimization level            normal          :
          :   max. optcycles                   200          :
          :   ANC micro-cycles                  20          :
          :   degrees of freedom               147          :
          :.................................................:
          :   RF solver                   davidson          :
          :   write xtbopt.log                true          :
          :   linear?                        false          :
          :   energy convergence         0.5000000E-05 Eh   :
          :   grad. convergence          0.1000000E-02 Eh/α :
          :   maxmium RF displ.          1.0000000          :
          :   Hlow (freq-cutoff)         0.1000000E-01      :
          :   Hmax (freq-cutoff)         5.0000000          :
          :   S6 in model hess.         20.0000000          :
          ...................................................

generating ANC from exact Hessian ...
Using Lindh-Hessian (1995)
 Shifting diagonal of input Hessian by   9.849502763419695E-003
 Lowest  eigenvalues of input Hessian
    0.000000    0.000000    0.000000    0.000000    0.000000    0.000000
    0.010000    0.010031    0.010065    0.010429    0.010487    0.010643
    0.010807    0.011173    0.011355    0.012551    0.012712    0.013170
 Highest eigenvalues
    2.150359    2.182418    2.183874    2.270335    2.550040    2.611076
 

........................................................................
.............................. CYCLE    1 ..............................
........................................................................

 iter      E             dE          RMSdq      gap      omega  full diag
   1    -95.6009566 -0.956010E+02  0.605E-05    3.32       0.0  T
   2    -95.6009566 -0.189146E-10  0.370E-05    3.32     378.5  T
   3    -95.6009566  0.270006E-12  0.242E-05    3.32     578.3  T
     SCC iter.                  ...        0 min,  0.012 sec
     gradient                   ...        0 min,  0.007 sec
 * total energy  :   -94.6173305 Eh     change       -0.2722942E-09 Eh
   gradient norm :     0.2684084 Eh/α   predicted     0.0000000E+00 (-100.00%)
   displ. norm   :     0.3505916 α      lambda       -0.5265694E-01
   maximum displ.:     0.1113285 α      in ANC's #54, #35, #58, ...

........................................................................
.............................. CYCLE    2 ..............................
........................................................................

 iter      E             dE          RMSdq      gap      omega  full diag
   1    -95.6666255 -0.956666E+02  0.327E-01    3.49       0.0  T
   2    -95.6687976 -0.217216E-02  0.198E-01    3.53       1.0  T
   3    -95.6689777 -0.180100E-03  0.110E-01    3.53       1.0  T
   4    -95.6689156  0.621618E-04  0.569E-02    3.53       1.0  T
   5    -95.6690238 -0.108264E-03  0.137E-02    3.53       1.0  T
   6    -95.6690294 -0.558601E-05  0.476E-03    3.53       2.9  T
   7    -95.6690296 -0.168530E-06  0.123E-03    3.53      11.3  T
   8    -95.6690296 -0.810057E-08  0.623E-04    3.53      22.5  T
   9    -95.6690296 -0.216176E-08  0.200E-04    3.53      70.2  T
     SCC iter.                  ...        0 min,  0.034 sec
     gradient                   ...        0 min,  0.009 sec
 * total energy  :   -94.6556832 Eh     change       -0.3835273E-01 Eh
   gradient norm :     0.1175054 Eh/α   predicted    -0.2958654E-01 ( -22.86%)
   displ. norm   :     0.3659970 α      lambda       -0.2134990E-01
   maximum displ.:     0.1485630 α      in ANC's #35, #54, #48, ...

........................................................................
.............................. CYCLE    3 ..............................
........................................................................

 iter      E             dE          RMSdq      gap      omega  full diag
   1    -95.7071487 -0.957071E+02  0.301E-01    3.65       0.0  T
   2    -95.7086425 -0.149377E-02  0.175E-01    3.68       1.0  T
   3    -95.7087387 -0.961915E-04  0.953E-02    3.69       1.0  T
   4    -95.7087068  0.318888E-04  0.441E-02    3.69       1.0  T
   5    -95.7087778 -0.710706E-04  0.105E-02    3.69       1.3  T
   6    -95.7087809 -0.301618E-05  0.377E-03    3.69       3.7  T
   7    -95.7087810 -0.114670E-06  0.977E-04    3.69      14.3  T
   8    -95.7087810 -0.520077E-08  0.441E-04    3.69      31.7  T
     SCC iter.                  ...        0 min,  0.034 sec
     gradient                   ...        0 min,  0.009 sec
 * total energy  :   -94.6679820 Eh     change       -0.1229874E-01 Eh
   gradient norm :     0.0316140 Eh/α   predicted    -0.1210761E-01 (  -1.55%)
   displ. norm   :     0.2560458 α      lambda       -0.3025397E-02
   maximum displ.:     0.1061403 α      in ANC's #35, #28, #13, ...

........................................................................
.............................. CYCLE    4 ..............................
........................................................................

 iter      E             dE          RMSdq      gap      omega  full diag
   1    -95.7071259 -0.957071E+02  0.115E-01    3.68       0.0  T
   2    -95.7071856 -0.597151E-04  0.686E-02    3.68       1.0  T
   3    -95.7071720  0.135728E-04  0.307E-02    3.68       1.0  T
   4    -95.7071857 -0.137024E-04  0.136E-02    3.68       1.0  T
   5    -95.7071929 -0.719974E-05  0.260E-03    3.68       5.4  T
   6    -95.7071931 -0.127651E-06  0.123E-03    3.68      11.4  T
   7    -95.7071931 -0.637485E-08  0.365E-04    3.68      38.3  T
   8    -95.7071931 -0.828535E-09  0.138E-04    3.68     101.4  T
     SCC iter.                  ...        0 min,  0.031 sec
     gradient                   ...        0 min,  0.008 sec
 * total energy  :   -94.6700220 Eh     change       -0.2040020E-02 Eh
   gradient norm :     0.0139892 Eh/α   predicted    -0.1611888E-02 ( -20.99%)
   displ. norm   :     0.2399881 α      lambda       -0.1121548E-02
   maximum displ.:     0.1011107 α      in ANC's #28, #13, #35, ...

........................................................................
.............................. CYCLE    5 ..............................
........................................................................

 iter      E             dE          RMSdq      gap      omega  full diag
   1    -95.7093300 -0.957093E+02  0.706E-02    3.68       0.0  T
   2    -95.7093513 -0.213496E-04  0.419E-02    3.68       1.0  T
   3    -95.7093493  0.203895E-05  0.154E-02    3.68       1.0  T
   4    -95.7093512 -0.190232E-05  0.701E-03    3.68       2.0  T
   5    -95.7093531 -0.192515E-05  0.161E-03    3.68       8.7  T
   6    -95.7093532 -0.486507E-07  0.777E-04    3.68      18.0  T
   7    -95.7093532 -0.310538E-08  0.205E-04    3.68      68.3  T
     SCC iter.                  ...        0 min,  0.029 sec
     gradient                   ...        0 min,  0.008 sec
 * total energy  :   -94.6707368 Eh     change       -0.7147946E-03 Eh
   gradient norm :     0.0060786 Eh/α   predicted    -0.5931029E-03 ( -17.02%)
   displ. norm   :     0.1788158 α      lambda       -0.3736280E-03
   maximum displ.:     0.0750089 α      in ANC's #13, #28, #5, ...

........................................................................
.............................. CYCLE    6 ..............................
........................................................................

 iter      E             dE          RMSdq      gap      omega  full diag
   1    -95.7119862 -0.957120E+02  0.466E-02    3.68       0.0  T
   2    -95.7119914 -0.524683E-05  0.282E-02    3.67       1.0  T
   3    -95.7119905  0.946673E-06  0.849E-03    3.67       1.6  T
   4    -95.7119921 -0.159395E-05  0.219E-03    3.67       6.4  T
   5    -95.7119922 -0.123170E-06  0.101E-03    3.67      13.8  T
   6    -95.7119922 -0.178986E-07  0.560E-04    3.67      25.0  T
   7    -95.7119922 -0.383207E-08  0.110E-04    3.67     126.8  T
     SCC iter.                  ...        0 min,  0.029 sec
     gradient                   ...        0 min,  0.008 sec
 * total energy  :   -94.6709685 Eh     change       -0.2317737E-03 Eh
   gradient norm :     0.0064598 Eh/α   predicted    -0.1928379E-03 ( -16.80%)
   displ. norm   :     0.1798576 α      lambda       -0.2467724E-03
   maximum displ.:     0.0754203 α      in ANC's #5, #13, #11, ...

........................................................................
.............................. CYCLE    7 ..............................
........................................................................

 iter      E             dE          RMSdq      gap      omega  full diag
   1    -95.7143291 -0.957143E+02  0.436E-02    3.67       0.0  T
   2    -95.7143319 -0.283529E-05  0.262E-02    3.67       1.0  T
   3    -95.7143312  0.728644E-06  0.646E-03    3.67       2.2  T
   4    -95.7143324 -0.119779E-05  0.148E-03    3.67       9.5  T
   5    -95.7143324 -0.362082E-07  0.868E-04    3.67      16.1  T
   6    -95.7143324 -0.891977E-08  0.478E-04    3.67      29.3  T
     SCC iter.                  ...        0 min,  0.025 sec
     gradient                   ...        0 min,  0.006 sec
 * total energy  :   -94.6711172 Eh     change       -0.1486855E-03 Eh
   gradient norm :     0.0059949 Eh/α   predicted    -0.1273786E-03 ( -14.33%)
   displ. norm   :     0.1538327 α      lambda       -0.1552754E-03
   maximum displ.:     0.0766446 α      in ANC's #5, #11, #13, ...

........................................................................
.............................. CYCLE    8 ..............................
........................................................................

 iter      E             dE          RMSdq      gap      omega  full diag
   1    -95.7150512 -0.957151E+02  0.348E-02    3.67       0.0  T
   2    -95.7150529 -0.175489E-05  0.206E-02    3.68       1.0  T
   3    -95.7150529  0.432024E-08  0.348E-03    3.67       4.0  T
   4    -95.7150531 -0.170052E-06  0.109E-03    3.68      12.8  T
   5    -95.7150531 -0.197648E-07  0.593E-04    3.68      23.6  T
   6    -95.7150531 -0.183977E-08  0.360E-04    3.68      38.9  T
     SCC iter.                  ...        0 min,  0.025 sec
     gradient                   ...        0 min,  0.005 sec
 * total energy  :   -94.6712359 Eh     change       -0.1186973E-03 Eh
   gradient norm :     0.0041540 Eh/α   predicted    -0.7947548E-04 ( -33.04%)
   displ. norm   :     0.2188784 α      lambda       -0.1699791E-03
   maximum displ.:     0.1177187 α      in ANC's #5, #11, #2, ...

........................................................................
.............................. CYCLE    9 ..............................
........................................................................

 iter      E             dE          RMSdq      gap      omega  full diag
   1    -95.7142733 -0.957143E+02  0.483E-02    3.67       0.0  T
   2    -95.7142758 -0.255375E-05  0.286E-02    3.68       1.0  T
   3    -95.7142753  0.472839E-06  0.546E-03    3.68       2.6  T
   4    -95.7142760 -0.700491E-06  0.233E-03    3.68       6.0  T
   5    -95.7142762 -0.167326E-06  0.935E-04    3.68      15.0  T
   6    -95.7142762 -0.103125E-07  0.475E-04    3.68      29.5  T
     SCC iter.                  ...        0 min,  0.023 sec
     gradient                   ...        0 min,  0.006 sec
 * total energy  :   -94.6713501 Eh     change       -0.1141328E-03 Eh
   gradient norm :     0.0034808 Eh/α   predicted    -0.8906229E-04 ( -21.97%)
   displ. norm   :     0.1623493 α      lambda       -0.8219563E-04
   maximum displ.:     0.0924325 α      in ANC's #5, #11, #6, ...

........................................................................
.............................. CYCLE   10 ..............................
........................................................................

 iter      E             dE          RMSdq      gap      omega  full diag
   1    -95.7138253 -0.957138E+02  0.333E-02    3.69       0.0  T
   2    -95.7138262 -0.928155E-06  0.196E-02    3.69       1.0  T
   3    -95.7138261  0.159198E-06  0.322E-03    3.69       4.4  T
   4    -95.7138264 -0.306602E-06  0.104E-03    3.69      13.5  T
   5    -95.7138264 -0.184149E-07  0.607E-04    3.69      23.1  T
   6    -95.7138264 -0.493901E-08  0.304E-04    3.69      46.0  T
     SCC iter.                  ...        0 min,  0.036 sec
     gradient                   ...        0 min,  0.012 sec
 * total energy  :   -94.6714062 Eh     change       -0.5611652E-04 Eh
   gradient norm :     0.0035883 Eh/α   predicted    -0.4218482E-04 ( -24.83%)
   displ. norm   :     0.1697975 α      lambda       -0.7247923E-04
   maximum displ.:     0.0980065 α      in ANC's #5, #11, #6, ...

........................................................................
.............................. CYCLE   11 ..............................
........................................................................

 iter      E             dE          RMSdq      gap      omega  full diag
   1    -95.7131749 -0.957132E+02  0.334E-02    3.69       0.0  T
   2    -95.7131756 -0.650243E-06  0.199E-02    3.69       1.0  T
   3    -95.7131751  0.486100E-06  0.398E-03    3.69       3.5  T
   4    -95.7131757 -0.581601E-06  0.154E-03    3.69       9.1  T
   5    -95.7131758 -0.737078E-07  0.551E-04    3.69      25.4  T
   6    -95.7131758 -0.145153E-08  0.264E-04    3.69      53.1  T
     SCC iter.                  ...        0 min,  0.023 sec
     gradient                   ...        0 min,  0.006 sec
 * total energy  :   -94.6714576 Eh     change       -0.5141644E-04 Eh
   gradient norm :     0.0030058 Eh/α   predicted    -0.3728670E-04 ( -27.48%)
   displ. norm   :     0.1815789 α      lambda       -0.7365797E-04
   maximum displ.:     0.1002054 α      in ANC's #5, #11, #6, ...

........................................................................
.............................. CYCLE   12 ..............................
........................................................................

 iter      E             dE          RMSdq      gap      omega  full diag
   1    -95.7135621 -0.957136E+02  0.323E-02    3.69       0.0  T
   2    -95.7135634 -0.135188E-05  0.189E-02    3.69       1.0  T
   3    -95.7135632  0.239033E-06  0.388E-03    3.69       3.6  T
   4    -95.7135634 -0.245359E-06  0.178E-03    3.69       7.9  T
   5    -95.7135636 -0.125259E-06  0.500E-04    3.69      28.0  T
   6    -95.7135636 -0.274649E-08  0.255E-04    3.69      55.0  T
     SCC iter.                  ...        0 min,  0.023 sec
     gradient                   ...        0 min,  0.006 sec
 * total energy  :   -94.6715124 Eh     change       -0.5479722E-04 Eh
   gradient norm :     0.0029456 Eh/α   predicted    -0.3804447E-04 ( -30.57%)
   displ. norm   :     0.2260864 α      lambda       -0.7446265E-04
   maximum displ.:     0.1255836 α      in ANC's #5, #11, #6, ...

........................................................................
.............................. CYCLE   13 ..............................
........................................................................

 iter      E             dE          RMSdq      gap      omega  full diag
   1    -95.7136118 -0.957136E+02  0.369E-02    3.69       0.0  T
   2    -95.7136131 -0.129069E-05  0.218E-02    3.69       1.0  T
   3    -95.7136125  0.560587E-06  0.479E-03    3.69       2.9  T
   4    -95.7136131 -0.633155E-06  0.194E-03    3.69       7.2  T
   5    -95.7136133 -0.138835E-06  0.592E-04    3.69      23.6  T
   6    -95.7136133 -0.334423E-08  0.317E-04    3.69      44.2  T
     SCC iter.                  ...        0 min,  0.025 sec
     gradient                   ...        0 min,  0.006 sec
 * total energy  :   -94.6715666 Eh     change       -0.5418700E-04 Eh
   gradient norm :     0.0030358 Eh/α   predicted    -0.3913918E-04 ( -27.77%)
   displ. norm   :     0.2412346 α      lambda       -0.6668683E-04
   maximum displ.:     0.1307395 α      in ANC's #5, #6, #11, ...

........................................................................
.............................. CYCLE   14 ..............................
........................................................................

 iter      E             dE          RMSdq      gap      omega  full diag
   1    -95.7139405 -0.957139E+02  0.381E-02    3.69       0.0  T
   2    -95.7139413 -0.737585E-06  0.225E-02    3.69       1.0  T
   3    -95.7139407  0.523759E-06  0.426E-03    3.69       3.3  T
   4    -95.7139414 -0.643629E-06  0.150E-03    3.69       9.3  T
   5    -95.7139414 -0.708413E-07  0.607E-04    3.69      23.1  T
   6    -95.7139414 -0.381343E-08  0.285E-04    3.69      49.1  T
     SCC iter.                  ...        0 min,  0.025 sec
     gradient                   ...        0 min,  0.008 sec
 * total energy  :   -94.6716134 Eh     change       -0.4684597E-04 Eh
   gradient norm :     0.0031168 Eh/α   predicted    -0.3528556E-04 ( -24.68%)
   displ. norm   :     0.2138863 α      lambda       -0.4970779E-04
   maximum displ.:     0.1159694 α      in ANC's #5, #6, #2, ...

........................................................................
.............................. CYCLE   15 ..............................
........................................................................

 iter      E             dE          RMSdq      gap      omega  full diag
   1    -95.7141060 -0.957141E+02  0.338E-02    3.69       0.0  T
   2    -95.7141065 -0.520870E-06  0.200E-02    3.69       1.0  T
   3    -95.7141062  0.262475E-06  0.324E-03    3.69       4.3  T
   4    -95.7141066 -0.355302E-06  0.128E-03    3.69      10.9  T
   5    -95.7141066 -0.455593E-07  0.538E-04    3.69      26.0  T
   6    -95.7141066 -0.256358E-08  0.248E-04    3.69      56.6  T
     SCC iter.                  ...        0 min,  0.030 sec
     gradient                   ...        0 min,  0.010 sec
 * total energy  :   -94.6716496 Eh     change       -0.3618730E-04 Eh
   gradient norm :     0.0026327 Eh/α   predicted    -0.2599401E-04 ( -28.17%)
   displ. norm   :     0.1939100 α      lambda       -0.4097514E-04
   maximum displ.:     0.1044967 α      in ANC's #5, #6, #2, ...

........................................................................
.............................. CYCLE   16 ..............................
........................................................................

 iter      E             dE          RMSdq      gap      omega  full diag
   1    -95.7142995 -0.957143E+02  0.331E-02    3.69       0.0  T
   2    -95.7143001 -0.600833E-06  0.195E-02    3.70       1.0  T
   3    -95.7143000  0.150626E-06  0.284E-03    3.70       4.9  T
   4    -95.7143002 -0.215069E-06  0.137E-03    3.70      10.2  T
   5    -95.7143002 -0.558510E-07  0.505E-04    3.70      27.7  T
   6    -95.7143002 -0.165878E-08  0.249E-04    3.70      56.2  T
     SCC iter.                  ...        0 min,  0.040 sec
     gradient                   ...        0 min,  0.009 sec
 * total energy  :   -94.6716799 Eh     change       -0.3031466E-04 Eh
   gradient norm :     0.0020097 Eh/α   predicted    -0.2126092E-04 ( -29.87%)
   displ. norm   :     0.1817153 α      lambda       -0.3668520E-04
   maximum displ.:     0.0927418 α      in ANC's #5, #6, #2, ...

........................................................................
.............................. CYCLE   17 ..............................
........................................................................

 iter      E             dE          RMSdq      gap      omega  full diag
   1    -95.7143667 -0.957144E+02  0.353E-02    3.69       0.0  T
   2    -95.7143672 -0.518401E-06  0.208E-02    3.70       1.0  T
   3    -95.7143670  0.171476E-06  0.291E-03    3.70       4.8  T
   4    -95.7143673 -0.247616E-06  0.135E-03    3.70      10.4  T
   5    -95.7143673 -0.532151E-07  0.517E-04    3.70      27.1  T
   6    -95.7143673 -0.141853E-08  0.235E-04    3.70      59.5  T
     SCC iter.                  ...        0 min,  0.022 sec
     gradient                   ...        0 min,  0.006 sec
 * total energy  :   -94.6717076 Eh     change       -0.2765082E-04 Eh
   gradient norm :     0.0021514 Eh/α   predicted    -0.1895024E-04 ( -31.47%)
   displ. norm   :     0.2058494 α      lambda       -0.4091155E-04
   maximum displ.:     0.1013283 α      in ANC's #6, #2, #5, ...

........................................................................
.............................. CYCLE   18 ..............................
........................................................................

 iter      E             dE          RMSdq      gap      omega  full diag
   1    -95.7142116 -0.957142E+02  0.452E-02    3.69       0.0  T
   2    -95.7142121 -0.480655E-06  0.266E-02    3.69       1.0  T
   3    -95.7142118  0.240882E-06  0.335E-03    3.69       4.2  T
   4    -95.7142122 -0.388911E-06  0.138E-03    3.69      10.2  T
   5    -95.7142123 -0.445159E-07  0.612E-04    3.69      22.9  T
   6    -95.7142123 -0.135604E-08  0.202E-04    3.69      69.3  T
     SCC iter.                  ...        0 min,  0.023 sec
     gradient                   ...        0 min,  0.006 sec
 * total energy  :   -94.6717383 Eh     change       -0.3070278E-04 Eh
   gradient norm :     0.0027418 Eh/α   predicted    -0.2132757E-04 ( -30.54%)
   displ. norm   :     0.2317854 α      lambda       -0.4622993E-04
   maximum displ.:     0.1136726 α      in ANC's #6, #2, #5, ...

........................................................................
.............................. CYCLE   19 ..............................
........................................................................

 iter      E             dE          RMSdq      gap      omega  full diag
   1    -95.7138002 -0.957138E+02  0.556E-02    3.69       0.0  T
   2    -95.7138007 -0.493298E-06  0.328E-02    3.69       1.0  T
   3    -95.7138004  0.267417E-06  0.371E-03    3.69       3.8  T
   4    -95.7138009 -0.525119E-06  0.138E-03    3.69      10.2  T
   5    -95.7138010 -0.236881E-07  0.672E-04    3.69      20.8  T
   6    -95.7138010 -0.176887E-08  0.171E-04    3.69      81.7  T
     SCC iter.                  ...        0 min,  0.024 sec
     gradient                   ...        0 min,  0.006 sec
 * total energy  :   -94.6717708 Eh     change       -0.3256550E-04 Eh
   gradient norm :     0.0031241 Eh/α   predicted    -0.2435738E-04 ( -25.20%)
   displ. norm   :     0.1812306 α      lambda       -0.3851883E-04
   maximum displ.:     0.0873424 α      in ANC's #6, #2, #17, ...

........................................................................
.............................. CYCLE   20 ..............................
........................................................................

 iter      E             dE          RMSdq      gap      omega  full diag
   1    -95.7138545 -0.957139E+02  0.480E-02    3.69       0.0  T
   2    -95.7138549 -0.429132E-06  0.283E-02    3.69       1.0  T
   3    -95.7138550 -0.123182E-06  0.194E-03    3.69       7.2  T
   4    -95.7138551 -0.798007E-07  0.110E-03    3.69      12.7  T
   5    -95.7138551 -0.677129E-08  0.675E-04    3.69      20.8  T
   6    -95.7138551 -0.680392E-08  0.197E-04    3.69      71.2  T
     SCC iter.                  ...        0 min,  0.025 sec
     gradient                   ...        0 min,  0.006 sec
 * total energy  :   -94.6717968 Eh     change       -0.2590991E-04 Eh
   gradient norm :     0.0026727 Eh/α   predicted    -0.1989404E-04 ( -23.22%)
   displ. norm   :     0.0961184 α      lambda       -0.2318433E-04
   maximum displ.:     0.0454061 α      in ANC's #2, #6, #17, ...
 * RMSD in coord.:     0.4263033 α      energy gain  -0.5446627E-01 Eh

generating ANC from exact Hessian ...
Using Lindh-Hessian (1995)
 Shifting diagonal of input Hessian by   9.848115534701751E-003
 Lowest  eigenvalues of input Hessian
    0.000000    0.000000    0.000000    0.000000    0.000000    0.000000
    0.010000    0.010035    0.010079    0.010452    0.010543    0.010724
    0.010884    0.011297    0.011580    0.012571    0.012696    0.013418
 Highest eigenvalues
    2.386379    2.390663    2.396833    2.397440    2.581757    2.585402
 

........................................................................
.............................. CYCLE   21 ..............................
........................................................................

 iter      E             dE          RMSdq      gap      omega  full diag
   1    -95.7140973 -0.957141E+02  0.270E-02    3.69       0.0  T
   2    -95.7140977 -0.319376E-06  0.159E-02    3.69       1.0  T
   3    -95.7140976  0.853126E-07  0.224E-03    3.69       6.2  T
   4    -95.7140977 -0.166759E-06  0.827E-04    3.69      16.9  T
   5    -95.7140977 -0.143539E-07  0.486E-04    3.69      28.8  T
     SCC iter.                  ...        0 min,  0.020 sec
     gradient                   ...        0 min,  0.006 sec
 * total energy  :   -94.6718125 Eh     change       -0.1574379E-04 Eh
   gradient norm :     0.0014743 Eh/α   predicted     0.0000000E+00 (-100.00%)
   displ. norm   :     0.0233715 α      lambda       -0.6260361E-05
   maximum displ.:     0.0087445 α      in ANC's #10, #4, #20, ...

........................................................................
.............................. CYCLE   22 ..............................
........................................................................

 iter      E             dE          RMSdq      gap      omega  full diag
   1    -95.7143789 -0.957144E+02  0.818E-03    3.69       0.0  T
   2    -95.7143790 -0.786016E-07  0.489E-03    3.69       2.9  T
   3    -95.7143789  0.672467E-07  0.152E-03    3.69       9.2  T
   4    -95.7143790 -0.786204E-07  0.469E-04    3.69      29.8  T
   5    -95.7143790 -0.803688E-08  0.140E-04    3.69     100.1  T
     SCC iter.                  ...        0 min,  0.019 sec
     gradient                   ...        0 min,  0.006 sec
 * total energy  :   -94.6718198 Eh     change       -0.7274793E-05 Eh
   gradient norm :     0.0006786 Eh/α   predicted    -0.3301827E-05 ( -54.61%)
   displ. norm   :     0.0636233 α      lambda       -0.1061741E-04
   maximum displ.:     0.0254353 α      in ANC's #4, #10, #2, ...

........................................................................
.............................. CYCLE   23 ..............................
........................................................................

 iter      E             dE          RMSdq      gap      omega  full diag
   1    -95.7145238 -0.957145E+02  0.209E-02    3.69       0.0  T
   2    -95.7145240 -0.256883E-06  0.123E-02    3.69       1.1  T
   3    -95.7145239  0.147277E-06  0.232E-03    3.69       6.0  T
   4    -95.7145240 -0.184821E-06  0.798E-04    3.69      17.6  T
   5    -95.7145241 -0.210960E-07  0.319E-04    3.69      43.8  T
     SCC iter.                  ...        0 min,  0.019 sec
     gradient                   ...        0 min,  0.006 sec
 * total energy  :   -94.6718276 Eh     change       -0.7814627E-05 Eh
   gradient norm :     0.0013939 Eh/α   predicted    -0.5318865E-05 ( -31.94%)
   displ. norm   :     0.0511571 α      lambda       -0.6641102E-05
   maximum displ.:     0.0216662 α      in ANC's #4, #2, #6, ...

........................................................................
.............................. CYCLE   24 ..............................
........................................................................

 iter      E             dE          RMSdq      gap      omega  full diag
   1    -95.7143410 -0.957143E+02  0.169E-02    3.69       0.0  T
   2    -95.7143410 -0.729144E-07  0.100E-02    3.69       1.4  T
   3    -95.7143410 -0.466090E-08  0.791E-04    3.69      17.7  T
   4    -95.7143411 -0.136610E-07  0.463E-04    3.69      30.3  T
     SCC iter.                  ...        0 min,  0.015 sec
     gradient                   ...        0 min,  0.006 sec
 * total energy  :   -94.6718326 Eh     change       -0.4973951E-05 Eh
   gradient norm :     0.0013528 Eh/α   predicted    -0.3325312E-05 ( -33.15%)
   displ. norm   :     0.0402924 α      lambda       -0.4697201E-05
   maximum displ.:     0.0184657 α      in ANC's #4, #2, #6, ...

........................................................................
.............................. CYCLE   25 ..............................
........................................................................

 iter      E             dE          RMSdq      gap      omega  full diag
   1    -95.7143764 -0.957144E+02  0.124E-02    3.69       0.0  T
   2    -95.7143765 -0.483841E-07  0.733E-03    3.69       1.9  T
   3    -95.7143765  0.181336E-07  0.942E-04    3.69      14.9  T
   4    -95.7143765 -0.305965E-07  0.413E-04    3.69      33.9  T
     SCC iter.                  ...        0 min,  0.015 sec
     gradient                   ...        0 min,  0.006 sec
 * total energy  :   -94.6718377 Eh     change       -0.5098124E-05 Eh
   gradient norm :     0.0008277 Eh/α   predicted    -0.2356582E-05 ( -53.78%)
   displ. norm   :     0.0856357 α      lambda       -0.7734698E-05
   maximum displ.:     0.0398594 α      in ANC's #4, #2, #6, ...

........................................................................
.............................. CYCLE   26 ..............................
........................................................................

 iter      E             dE          RMSdq      gap      omega  full diag
   1    -95.7144921 -0.957145E+02  0.255E-02    3.69       0.0  T
   2    -95.7144922 -0.189676E-06  0.150E-02    3.69       1.0  T
   3    -95.7144922  0.172625E-07  0.143E-03    3.69       9.8  T
   4    -95.7144923 -0.628250E-07  0.742E-04    3.69      18.9  T
   5    -95.7144923 -0.138511E-07  0.367E-04    3.69      38.2  T
     SCC iter.                  ...        0 min,  0.018 sec
     gradient                   ...        0 min,  0.006 sec
 * total energy  :   -94.6718448 Eh     change       -0.7093957E-05 Eh
   gradient norm :     0.0010513 Eh/α   predicted    -0.3881441E-05 ( -45.29%)
   displ. norm   :     0.0827423 α      lambda       -0.5075875E-05
   maximum displ.:     0.0382179 α      in ANC's #4, #2, #6, ...

........................................................................
.............................. CYCLE   27 ..............................
........................................................................

 iter      E             dE          RMSdq      gap      omega  full diag
   1    -95.7143236 -0.957143E+02  0.245E-02    3.69       0.0  T
   2    -95.7143237 -0.853501E-07  0.144E-02    3.69       1.0  T
   3    -95.7143236  0.312261E-07  0.144E-03    3.69       9.7  T
   4    -95.7143237 -0.765388E-07  0.584E-04    3.69      24.0  T
   5    -95.7143237 -0.413948E-08  0.298E-04    3.69      47.0  T
     SCC iter.                  ...        0 min,  0.019 sec
     gradient                   ...        0 min,  0.006 sec
 * total energy  :   -94.6718498 Eh     change       -0.5035549E-05 Eh
   gradient norm :     0.0012692 Eh/α   predicted    -0.2549582E-05 ( -49.37%)
   displ. norm   :     0.1149655 α      lambda       -0.6935421E-05
   maximum displ.:     0.0533936 α      in ANC's #4, #2, #6, ...

........................................................................
.............................. CYCLE   28 ..............................
........................................................................

 iter      E             dE          RMSdq      gap      omega  full diag
   1    -95.7141087 -0.957141E+02  0.323E-02    3.69       0.0  T
   2    -95.7141089 -0.194202E-06  0.191E-02    3.69       1.0  T
   3    -95.7141088  0.717404E-07  0.208E-03    3.69       6.7  T
   4    -95.7141089 -0.147697E-06  0.858E-04    3.69      16.3  T
   5    -95.7141089 -0.139434E-07  0.425E-04    3.69      33.0  T
     SCC iter.                  ...        0 min,  0.017 sec
     gradient                   ...        0 min,  0.009 sec
 * total energy  :   -94.6718574 Eh     change       -0.7633209E-05 Eh
   gradient norm :     0.0012817 Eh/α   predicted    -0.3489720E-05 ( -54.28%)
   displ. norm   :     0.1552320 α      lambda       -0.9238961E-05
   maximum displ.:     0.0719568 α      in ANC's #4, #2, #6, ...

........................................................................
.............................. CYCLE   29 ..............................
........................................................................

 iter      E             dE          RMSdq      gap      omega  full diag
   1    -95.7141677 -0.957142E+02  0.423E-02    3.69       0.0  T
   2    -95.7141681 -0.331279E-06  0.249E-02    3.69       1.0  T
   3    -95.7141681 -0.455193E-07  0.186E-03    3.69       7.5  T
   4    -95.7141682 -0.836262E-07  0.895E-04    3.69      15.6  T
   5    -95.7141682 -0.483227E-08  0.572E-04    3.69      24.5  T
     SCC iter.                  ...        0 min,  0.016 sec
     gradient                   ...        0 min,  0.006 sec
 * total energy  :   -94.6718671 Eh     change       -0.9630650E-05 Eh
   gradient norm :     0.0011988 Eh/α   predicted    -0.4673977E-05 ( -51.47%)
   displ. norm   :     0.1767795 α      lambda       -0.9181119E-05
   maximum displ.:     0.0823353 α      in ANC's #2, #4, #6, ...

........................................................................
.............................. CYCLE   30 ..............................
........................................................................

 iter      E             dE          RMSdq      gap      omega  full diag
   1    -95.7141301 -0.957141E+02  0.492E-02    3.69       0.0  T
   2    -95.7141305 -0.395825E-06  0.290E-02    3.69       1.0  T
   3    -95.7141306 -0.610861E-07  0.202E-03    3.69       6.9  T
   4    -95.7141307 -0.104879E-06  0.937E-04    3.69      14.9  T
   5    -95.7141307 -0.110462E-08  0.634E-04    3.69      22.1  T
     SCC iter.                  ...        0 min,  0.020 sec
     gradient                   ...        0 min,  0.008 sec
 * total energy  :   -94.6718763 Eh     change       -0.9246010E-05 Eh
   gradient norm :     0.0014055 Eh/α   predicted    -0.4659152E-05 ( -49.61%)
   displ. norm   :     0.1718179 α      lambda       -0.8482008E-05
   maximum displ.:     0.0811828 α      in ANC's #2, #4, #6, ...

........................................................................
.............................. CYCLE   31 ..............................
........................................................................

 iter      E             dE          RMSdq      gap      omega  full diag
   1    -95.7140497 -0.957140E+02  0.466E-02    3.69       0.0  T
   2    -95.7140499 -0.282007E-06  0.275E-02    3.69       1.0  T
   3    -95.7140500 -0.785852E-07  0.160E-03    3.69       8.7  T
   4    -95.7140501 -0.574097E-07  0.840E-04    3.69      16.7  T
   5    -95.7140501 -0.221334E-09  0.565E-04    3.69      24.8  T
     SCC iter.                  ...        0 min,  0.051 sec
     gradient                   ...        0 min,  0.009 sec
 * total energy  :   -94.6718864 Eh     change       -0.1006494E-04 Eh
   gradient norm :     0.0011997 Eh/α   predicted    -0.4299296E-05 ( -57.28%)
   displ. norm   :     0.2327604 α      lambda       -0.1128420E-04
   maximum displ.:     0.1109479 α      in ANC's #2, #4, #6, ...

........................................................................
.............................. CYCLE   32 ..............................
........................................................................

 iter      E             dE          RMSdq      gap      omega  full diag
   1    -95.7140340 -0.957140E+02  0.640E-02    3.69       0.0  T
   2    -95.7140345 -0.501947E-06  0.377E-02    3.69       1.0  T
   3    -95.7140347 -0.170670E-06  0.190E-03    3.69       7.4  T
   4    -95.7140348 -0.676795E-07  0.103E-03    3.69      13.6  T
   5    -95.7140348  0.316490E-09  0.600E-04    3.69      23.3  T
   6    -95.7140348 -0.672888E-08  0.228E-04    3.69      61.4  T
     SCC iter.                  ...        0 min,  0.021 sec
     gradient                   ...        0 min,  0.007 sec
 * total energy  :   -94.6718987 Eh     change       -0.1238479E-04 Eh
   gradient norm :     0.0009523 Eh/α   predicted    -0.5781858E-05 ( -53.31%)
   displ. norm   :     0.2011944 α      lambda       -0.8285592E-05
   maximum displ.:     0.0967445 α      in ANC's #2, #4, #1, ...

........................................................................
.............................. CYCLE   33 ..............................
........................................................................

 iter      E             dE          RMSdq      gap      omega  full diag
   1    -95.7140134 -0.957140E+02  0.555E-02    3.69       0.0  T
   2    -95.7140137 -0.357474E-06  0.327E-02    3.69       1.0  T
   3    -95.7140139 -0.130236E-06  0.148E-03    3.69       9.5  T
   4    -95.7140139 -0.281687E-07  0.915E-04    3.69      15.3  T
   5    -95.7140139 -0.453126E-08  0.530E-04    3.69      26.4  T
     SCC iter.                  ...        0 min,  0.016 sec
     gradient                   ...        0 min,  0.006 sec
 * total energy  :   -94.6719077 Eh     change       -0.8923957E-05 Eh
   gradient norm :     0.0009738 Eh/α   predicted    -0.4222169E-05 ( -52.69%)
   displ. norm   :     0.1679793 α      lambda       -0.7456806E-05
   maximum displ.:     0.0807997 α      in ANC's #2, #4, #1, ...

........................................................................
.............................. CYCLE   34 ..............................
........................................................................

 iter      E             dE          RMSdq      gap      omega  full diag
   1    -95.7143267 -0.957143E+02  0.457E-02    3.69       0.0  T
   2    -95.7143270 -0.263001E-06  0.269E-02    3.69       1.0  T
   3    -95.7143270 -0.224059E-07  0.176E-03    3.69       7.9  T
   4    -95.7143271 -0.832634E-07  0.939E-04    3.69      14.9  T
   5    -95.7143271 -0.129737E-07  0.482E-04    3.69      29.0  T
     SCC iter.                  ...        0 min,  0.016 sec
     gradient                   ...        0 min,  0.007 sec
 * total energy  :   -94.6719150 Eh     change       -0.7366796E-05 Eh
   gradient norm :     0.0009759 Eh/α   predicted    -0.3779399E-05 ( -48.70%)
   displ. norm   :     0.1741826 α      lambda        0.8504979E-06
   maximum displ.:     0.0837916 α      in ANC's #2, #4, #1, ...

........................................................................
.............................. CYCLE   35 ..............................
........................................................................

 iter      E             dE          RMSdq      gap      omega  full diag
   1    -95.7142196 -0.957142E+02  0.475E-02    3.69       0.0  T
   2    -95.7142199 -0.283126E-06  0.280E-02    3.69       1.0  T
   3    -95.7142198  0.506259E-07  0.220E-03    3.69       6.4  T
   4    -95.7142200 -0.163413E-06  0.103E-03    3.69      13.5  T
   5    -95.7142200 -0.193491E-07  0.484E-04    3.69      28.9  T
   6    -95.7142200 -0.122091E-08  0.161E-04    3.69      86.7  T
     SCC iter.                  ...        0 min,  0.020 sec
     gradient                   ...        0 min,  0.006 sec
 * total energy  :   -94.6719149 Eh     change        0.1745523E-06 Eh
   gradient norm :     0.0015665 Eh/α   predicted     0.4286597E-06 ( 145.58%)
   displ. norm   :     0.0454136 α      lambda       -0.8499102E-05
   maximum displ.:     0.0205602 α      in ANC's #2, #4, #10, ...

........................................................................
.............................. CYCLE   36 ..............................
........................................................................

 iter      E             dE          RMSdq      gap      omega  full diag
   1    -95.7142049 -0.957142E+02  0.137E-02    3.69       0.0  T
   2    -95.7142050 -0.521713E-07  0.814E-03    3.69       1.7  T
   3    -95.7142049  0.399115E-07  0.116E-03    3.69      12.1  T
   4    -95.7142050 -0.499779E-07  0.433E-04    3.69      32.3  T
   5    -95.7142050 -0.530360E-08  0.182E-04    3.69      77.1  T
     SCC iter.                  ...        0 min,  0.024 sec
     gradient                   ...        0 min,  0.008 sec
 * total energy  :   -94.6719208 Eh     change       -0.5960156E-05 Eh
   gradient norm :     0.0010521 Eh/α   predicted    -0.4258209E-05 ( -28.56%)
   displ. norm   :     0.0501489 α      lambda       -0.4640534E-05
   maximum displ.:     0.0187184 α      in ANC's #2, #6, #4, ...

........................................................................
.............................. CYCLE   37 ..............................
........................................................................

 iter      E             dE          RMSdq      gap      omega  full diag
   1    -95.7147646 -0.957148E+02  0.171E-02    3.69       0.0  T
   2    -95.7147647 -0.581549E-07  0.101E-02    3.69       1.4  T
   3    -95.7147646  0.225919E-07  0.978E-04    3.69      14.3  T
   4    -95.7147647 -0.349644E-07  0.411E-04    3.69      34.1  T
     SCC iter.                  ...        0 min,  0.025 sec
     gradient                   ...        0 min,  0.008 sec
 * total energy  :   -94.6719247 Eh     change       -0.3883076E-05 Eh
   gradient norm :     0.0008006 Eh/α   predicted    -0.2325350E-05 ( -40.12%)
   displ. norm   :     0.1127395 α      lambda       -0.7132017E-05
   maximum displ.:     0.0548449 α      in ANC's #4, #2, #6, ...

   *** GEOMETRY OPTIMIZATION CONVERGED AFTER 37 ITERATIONS ***

------------------------------------------------------------------------
 total energy gain   :        -0.0545942 Eh      -34.2584 kcal/mol
 total RMSD          :         0.5468758 a0        0.2894 Å
 total power (kW/mol):        -3.8739763 (step) -104.7958 (real)
------------------------------------------------------------------------

 ANCopt (total)                0 d,  0 h,  0 min,  1.368 sec
 optimizer setup                ...        0 min,  0.000 sec (  0.010%)
 model hessian                  ...        0 min,  0.035 sec (  2.564%)
 ANC generation                 ...        0 min,  0.007 sec (  0.492%)
 coordinate transformation      ...        0 min,  0.001 sec (  0.079%)
 single point calculation       ...        0 min,  1.256 sec ( 91.857%)
 optimization log               ...        0 min,  0.038 sec (  2.781%)
 hessian update                 ...        0 min,  0.012 sec (  0.852%)
 rational function              ...        0 min,  0.009 sec (  0.690%)

================
 final structure:
================
51
 xtb: 6.7.1 (edcfbbe)
C           -6.15757687068946       -4.18185765007712        0.83141634061761
C           -6.32321826531989       -2.89149046997516        1.08247250443019
C           -5.31418312972419       -1.85506251432597        0.78383764613470
O           -5.43776353846528       -0.69156301541578        1.07132504264102
O           -4.23428981047635       -2.34850312005326        0.14745249617935
C           -3.21921609292812       -1.42292069671907       -0.20042941842771
C           -2.43932890322623       -0.95476728730181        1.03654238964458
N           -1.14854732137550       -0.38965133071416        0.66786942252703
C           -1.14274755933528        0.89962440048271        0.16994235086106
O           -2.14781525681928        1.54229229819306        0.02588780863678
N            0.10773320769784        1.39315691275473       -0.16010315025164
C            0.17771262743936        2.75826034268989       -0.66065523989047
C            0.34295177520649        3.74993389071819        0.48910840380393
O            0.40533430355648        5.05176860409696       -0.07130162085334
C            0.63584752735208        6.05046163591232        0.79984411616370
O            0.78674983350295        5.86695932949435        1.98189995692737
C            0.68695311560401        7.37719651028881        0.15285994461665
C            0.50321948334856        7.57624035629192       -1.14412936706618
C            1.29565877619532        0.70220687182411       -0.02152284552696
O            2.36073510671633        1.17812573620532       -0.31575800124822
N            1.16671610180358       -0.58166971615839        0.47522285262174
C            2.38036139314273       -1.37356938978823        0.61486864345215
C            2.65299413720432       -2.17799903671211       -0.65405296750308
O            3.83998736773385       -2.92742244232403       -0.44690620271791
C            4.29007477404690       -3.62022680323026       -1.50937774171080
O            3.73889654789284       -3.61774801855214       -2.58067626788850
C            5.52227389975189       -4.35879991735445       -1.16869912475932
C            6.14502782006549       -5.10423418590047       -2.07002644859567
C           -0.02915819275394       -1.18712007053844        0.81476132356324
O           -0.08454549432237       -2.31851772519021        1.22056241942481
H           -5.25353749629023       -4.55087820616574        0.37837226869368
H           -6.91737126183130       -4.90604437240723        1.07212856964272
H           -7.22037087965851       -2.50251383326794        1.54162728565885
H           -2.55911904072416       -1.96660966232707       -0.88035744793070
H           -3.66043021417226       -0.55714200385399       -0.70558304106750
H           -2.24626470299990       -1.81032469221940        1.68703443469769
H           -3.01615348822595       -0.19297801357544        1.56458059744330
H            1.03389034581479        2.83057053404486       -1.33318087882215
H           -0.74835750851871        2.97103385097738       -1.19701434935143
H            1.26376139381841        3.54700504865266        1.04908498760237
H           -0.50737104099477        3.68824528566287        1.17878501523904
H            0.88693398228541        8.18735829018368        0.83929115143933
H            0.30494451993346        6.75567404225951       -1.81248036674173
H            0.54703155718123        8.56194037044034       -1.57585989474160
H            3.21037590055409       -0.69100175795016        0.80299875111151
H            2.24886666654276       -2.05409963615105        1.45751866097800
H            2.78590438441606       -1.51361064602594       -1.51631108395628
H            1.82211565726885       -2.86245173171881       -0.86339205638237
H            5.86542357628600       -4.24649198259975       -0.15196088384415
H            7.04332194066193       -5.65195180708148       -1.84381200506410
H            5.75556934583107       -5.17882957550938       -3.07241598041451
 
 Bond Distances (Angstroems)
 ---------------------------
C1-C2=1.3250         C1-H31=1.0764        C1-H32=1.0769        C2-C1=1.3250         C2-C3=1.4770         C2-H33=1.0803        
C3-C2=1.4770         C3-O4=1.2048         C3-O5=1.3471         O4-C3=1.2048         O5-C3=1.3471         O5-C6=1.4171         
C6-O5=1.4171         C6-C7=1.5354         C6-H34=1.0925        C6-H35=1.0952        C7-C6=1.5354         C7-N8=1.4565         
C7-H36=1.0920        C7-H37=1.0917        N8-C7=1.4565         N8-C9=1.3821         N8-C29=1.3822        C9-N8=1.3821         
C9-O10=1.2016        C9-N11=1.3843        O10-C9=1.2016        N11-C9=1.3843        N11-C12=1.4557       N11-C19=1.3812       
C12-N11=1.4557       C12-C13=1.5273       C12-H38=1.0911       C12-H39=1.0911       C13-C12=1.5273       C13-O14=1.4187       
C13-H40=1.0967       C13-H41=1.0966       O14-C13=1.4187       O14-C15=1.3451       C15-O14=1.3451       C15-O16=1.2057       
C15-C17=1.4770       O16-C15=1.2057       C17-C15=1.4770       C17-C18=1.3250       C17-H42=1.0805       C18-C17=1.3250       
C18-H43=1.0767       C18-H44=1.0770       C19-N11=1.3812       C19-O20=1.2031       C19-N21=1.3827       O20-C19=1.2031       
N21-C19=1.3827       N21-C22=1.4559       N21-C29=1.3827       C22-N21=1.4559       C22-C23=1.5270       C22-H45=1.0910       
C22-H46=1.0911       C23-C22=1.5270       C23-O24=1.4190       C23-H47=1.0966       C23-H48=1.0967       O24-C23=1.4190       
O24-C25=1.3459       C25-O24=1.3459       C25-O26=1.2048       C25-C27=1.4764       O26-C25=1.2048       C27-C25=1.4764       
C27-C28=1.3251       C27-H49=1.0789       C28-C27=1.3251       C28-H50=1.0762       C28-H51=1.0780       C29-N8=1.3822        
C29-N21=1.3827       C29-O30=1.2032       O30-C29=1.2032       H31-C1=1.0764        H32-C1=1.0769        H33-C2=1.0803        
H34-C6=1.0925        H35-C6=1.0952        H36-C7=1.0920        H37-C7=1.0917        H38-C12=1.0911       H39-C12=1.0911       
H40-C13=1.0967       H41-C13=1.0966       H42-C17=1.0805       H43-C18=1.0767       H44-C18=1.0770       H45-C22=1.0910       
H46-C22=1.0911       H47-C23=1.0966       H48-C23=1.0967       H49-C27=1.0789       H50-C28=1.0762       H51-C28=1.0780       
 C  H  Rav=1.0868 sigma=0.0080  Rmin=1.0762  Rmax=1.0967    21
 C  C  Rav=1.4439 sigma=0.0868  Rmin=1.3250  Rmax=1.5354     9
 N  C  Rav=1.4070 sigma=0.0346  Rmin=1.3812  Rmax=1.4565     9
 O  C  Rav=1.2930 sigma=0.0927  Rmin=1.2016  Rmax=1.4190    12
 
 selected bond angles (degree)
 --------------------
H31-C1-C2=121.24               H32-C1-C2=121.63               H32-C1-H31=117.14              C3-C2-C1=124.03                
H33-C2-C1=122.35               H33-C2-C3=113.62               O4-C3-C2=124.01                O5-C3-C2=112.71                
O5-C3-O4=123.28                C6-O5-C3=116.81                C7-C6-O5=111.42                H34-C6-O5=105.10               
H34-C6-C7=110.26               H35-C6-O5=109.94               H35-C6-C7=109.58               H35-C6-H34=110.47              
N8-C7-C6=111.38                H36-C7-C6=109.32               H36-C7-N8=107.34               H37-C7-C6=109.51               
H37-C7-N8=108.66               H37-C7-H36=110.61              C9-N8-C7=117.18                C29-N8-C7=117.84               
C29-N8-C9=124.97               O10-C9-N8=122.59               N11-C9-N8=114.98               N11-C9-O10=122.43              
 
 selected dihedral angles (degree)
 ---------------------------------
C3-C2-C1-H31=359.66           C3-C2-C1-H32=179.54           H33-C2-C1-H31=180.37          H33-C2-C1-H32=  0.25          
O4-C3-C2-C1=183.78            O4-C3-C2-H33=  3.13           O5-C3-C2-C1=  3.99            O5-C3-C2-H33=183.34           
C6-O5-C3-C2=179.03            C6-O5-C3-O4=359.24            C7-C6-O5-C3= 72.50            H34-C6-O5-C3=191.92           
H35-C6-O5-C3=310.81           N8-C7-C6-O5=160.52            N8-C7-C6-H34= 44.22           N8-C7-C6-H35=282.42           
H36-C7-C6-O5= 42.07           H36-C7-C6-H34=285.76          H36-C7-C6-H35=163.96          H37-C7-C6-O5=280.74           
H37-C7-C6-H34=164.43          H37-C7-C6-H35= 42.63          C9-N8-C7-C6= 78.14            C9-N8-C7-H36=197.77           
C9-N8-C7-H37=317.42           C29-N8-C7-C6=259.45           C29-N8-C7-H36= 19.08          C29-N8-C7-H37=138.73          
O10-C9-N8-C7=359.29           O10-C9-N8-C29=177.88          N11-C9-N8-C7=179.73           N11-C9-N8-C29=358.33          
           -------------------------------------------------
          |                Final Singlepoint                |
           -------------------------------------------------

          ...................................................
          :                      SETUP                      :
          :.................................................:
          :  # basis functions                 141          :
          :  # atomic orbitals                 141          :
          :  # shells                           81          :
          :  # electrons                       162          :
          :  max. iterations                   250          :
          :  Hamiltonian                  GFN2-xTB          :
          :  restarted?                      false          :
          :  GBSA solvation                  false          :
          :  PC potential                    false          :
          :  electronic temp.          300.0000000     K    :
          :  accuracy                    1.0000000          :
          :  -> integral cutoff          0.2500000E+02      :
          :  -> integral neglect         0.1000000E-07      :
          :  -> SCF convergence          0.1000000E-05 Eh   :
          :  -> wf. convergence          0.1000000E-03 e    :
          :  Broyden damping             0.4000000          :
          :  net charge                          0          :
          :  unpaired electrons                  0          :
          ...................................................

 iter      E             dE          RMSdq      gap      omega  full diag
   1    -95.7147647 -0.957148E+02  0.186E-04    3.69       0.0  T
   2    -95.7147647 -0.105345E-09  0.126E-04    3.69     110.8  T
   3    -95.7147647 -0.108400E-09  0.874E-05    3.69     160.1  T

   *** convergence criteria satisfied after 3 iterations ***

         #    Occupation            Energy/Eh            Energy/eV
      -------------------------------------------------------------
         1        2.0000           -0.7615538             -20.7229
       ...           ...                  ...                  ...
        75        2.0000           -0.4482576             -12.1977
        76        2.0000           -0.4464419             -12.1483
        77        2.0000           -0.4452140             -12.1149
        78        2.0000           -0.4447440             -12.1021
        79        2.0000           -0.4252016             -11.5703
        80        2.0000           -0.4233214             -11.5192
        81        2.0000           -0.4223309             -11.4922 (HOMO)
        82                         -0.2867431              -7.8027 (LUMO)
        83                         -0.2847258              -7.7478
        84                         -0.2844554              -7.7404
        85                         -0.2690937              -7.3224
        86                         -0.2684748              -7.3056
       ...                                ...                  ...
       141                          0.6989913              19.0205
      -------------------------------------------------------------
                  HL-Gap            0.1355879 Eh            3.6895 eV
             Fermi-level           -0.3545370 Eh           -9.6474 eV

 SCC (total)                   0 d,  0 h,  0 min,  0.034 sec
 SCC setup                      ...        0 min,  0.002 sec (  5.908%)
 Dispersion                     ...        0 min,  0.001 sec (  2.017%)
 classical contributions        ...        0 min,  0.000 sec (  0.343%)
 integral evaluation            ...        0 min,  0.002 sec (  6.537%)
 iterations                     ...        0 min,  0.019 sec ( 56.687%)
 molecular gradient             ...        0 min,  0.008 sec ( 24.400%)
 printout                       ...        0 min,  0.001 sec (  4.019%)

         :::::::::::::::::::::::::::::::::::::::::::::::::::::
         ::                     SUMMARY                     ::
         :::::::::::::::::::::::::::::::::::::::::::::::::::::
         :: total energy             -94.671924711522 Eh    ::
         :: gradient norm              0.000799998467 Eh/a0 ::
         :: HOMO-LUMO gap              3.689533614631 eV    ::
         ::.................................................::
         :: SCC energy               -95.715135129938 Eh    ::
         :: -> isotropic ES            0.226973723741 Eh    ::
         :: -> anisotropic ES          0.001606789785 Eh    ::
         :: -> anisotropic XC          0.014161780643 Eh    ::
         :: -> dispersion             -0.048504044983 Eh    ::
         :: repulsion energy           1.043210418415 Eh    ::
         :: add. restraining           0.000000000000 Eh    ::
         :: total charge              -0.000000000000 e     ::
         :::::::::::::::::::::::::::::::::::::::::::::::::::::

           -------------------------------------------------
          |                Property Printout                |
           -------------------------------------------------

    * Orbital Energies and Occupations

         #    Occupation            Energy/Eh            Energy/eV
      -------------------------------------------------------------
         1        2.0000           -0.7615538             -20.7229
       ...           ...                  ...                  ...
        69        2.0000           -0.4669866             -12.7074
        70        2.0000           -0.4595666             -12.5054
        71        2.0000           -0.4555903             -12.3972
        72        2.0000           -0.4537159             -12.3462
        73        2.0000           -0.4522230             -12.3056
        74        2.0000           -0.4492275             -12.2241
        75        2.0000           -0.4482576             -12.1977
        76        2.0000           -0.4464419             -12.1483
        77        2.0000           -0.4452140             -12.1149
        78        2.0000           -0.4447440             -12.1021
        79        2.0000           -0.4252016             -11.5703
        80        2.0000           -0.4233214             -11.5192
        81        2.0000           -0.4223309             -11.4922 (HOMO)
        82                         -0.2867431              -7.8027 (LUMO)
        83                         -0.2847258              -7.7478
        84                         -0.2844554              -7.7404
        85                         -0.2690937              -7.3224
        86                         -0.2684748              -7.3056
        87                         -0.1806298              -4.9152
        88                         -0.1743350              -4.7439
        89                         -0.1741769              -4.7396
        90                         -0.1720923              -4.6829
        91                         -0.0952016              -2.5906
        92                         -0.0420958              -1.1455
       ...                                ...                  ...
       141                          0.6989913              19.0205
      -------------------------------------------------------------
                  HL-Gap            0.1355879 Eh            3.6895 eV
             Fermi-level           -0.3545370 Eh           -9.6474 eV

     #   Z          covCN         q      C6AA      α(0)
     1   6 C        2.838    -0.061    29.510     8.902
     2   6 C        2.887    -0.057    29.426     8.893
     3   6 C        2.723     0.354    20.995     7.501
     4   8 O        0.857    -0.400    21.691     6.244
     5   8 O        1.705    -0.259    18.297     5.775
     6   6 C        3.703     0.074    19.486     6.311
     7   6 C        3.753    -0.004    20.704     6.488
     8   7 N        2.746    -0.124    23.695     7.230
     9   6 C        2.714     0.326    21.456     7.582
    10   8 O        0.859    -0.394    21.568     6.227
    11   7 N        2.747    -0.124    23.695     7.230
    12   6 C        3.755    -0.004    20.701     6.488
    13   6 C        3.709     0.080    19.385     6.293
    14   8 O        1.705    -0.259    18.293     5.775
    15   6 C        2.728     0.356    20.954     7.494
    16   8 O        0.857    -0.404    21.767     6.255
    17   6 C        2.887    -0.057    29.403     8.890
    18   6 C        2.838    -0.061    29.514     8.903
    19   6 C        2.714     0.327    21.441     7.580
    20   8 O        0.859    -0.402    21.723     6.249
    21   7 N        2.747    -0.124    23.694     7.229
    22   6 C        3.755    -0.003    20.694     6.486
    23   6 C        3.708     0.080    19.383     6.293
    24   8 O        1.706    -0.261    18.332     5.781
    25   6 C        2.731     0.356    20.952     7.494
    26   8 O        0.856    -0.405    21.786     6.258
    27   6 C        2.887    -0.058    29.431     8.894
    28   6 C        2.842    -0.058    29.423     8.890
    29   6 C        2.713     0.327    21.438     7.579
    30   8 O        0.859    -0.402    21.724     6.249
    31   1 H        0.926     0.076     2.021     2.223
    32   1 H        0.926     0.068     2.112     2.272
    33   1 H        0.926     0.076     2.022     2.224
    34   1 H        0.924     0.065     2.140     2.288
    35   1 H        0.924     0.076     2.021     2.223
    36   1 H        0.924     0.095     1.831     2.116
    37   1 H        0.924     0.100     1.781     2.087
    38   1 H        0.924     0.097     1.814     2.106
    39   1 H        0.924     0.098     1.805     2.101
    40   1 H        0.924     0.066     2.128     2.281
    41   1 H        0.924     0.065     2.137     2.286
    42   1 H        0.926     0.076     2.022     2.223
    43   1 H        0.926     0.074     2.041     2.234
    44   1 H        0.926     0.067     2.115     2.274
    45   1 H        0.924     0.098     1.801     2.099
    46   1 H        0.924     0.097     1.808     2.103
    47   1 H        0.924     0.065     2.140     2.288
    48   1 H        0.924     0.064     2.157     2.297
    49   1 H        0.926     0.069     2.098     2.265
    50   1 H        0.926     0.068     2.108     2.270
    51   1 H        0.926     0.082     1.960     2.189

 Mol. C6AA /au·bohr⁶  :      29463.666955
 Mol. C8AA /au·bohr⁸  :     674051.464190
 Mol. α(0) /au        :        259.912456


Wiberg/Mayer (AO) data.
largest (>0.10) Wiberg bond orders for each atom

 ---------------------------------------------------------------------------
     #   Z sym  total        # sym  WBO       # sym  WBO       # sym  WBO
 ---------------------------------------------------------------------------
     1   6 C    3.981 --     2 C    1.930    32 H    0.974    31 H    0.971
     2   6 C    3.987 --     1 C    1.930     3 C    1.017    33 H    0.962
     3   6 C    3.918 --     4 O    1.739     5 O    1.100     2 C    1.017
     4   8 O    2.044 --     3 C    1.739     5 O    0.167
     5   8 O    2.300 --     3 C    1.100     6 C    0.961     4 O    0.167
     6   6 C    3.935 --     7 C    0.984    34 H    0.971    35 H    0.965
                             5 O    0.961
     7   6 C    3.938 --     6 C    0.984     8 N    0.963    36 H    0.963
                            37 H    0.962
     8   7 N    3.534 --    29 C    1.102     9 C    1.099     7 C    0.963
                            30 O    0.131    10 O    0.130
     9   6 C    3.961 --    10 O    1.686     8 N    1.099    11 N    1.095
    10   8 O    2.043 --     9 C    1.686    11 N    0.131     8 N    0.130
    11   7 N    3.532 --    19 C    1.103     9 C    1.095    12 C    0.966
                            20 O    0.131    10 O    0.131
    12   6 C    3.941 --    13 C    0.993    11 N    0.966    38 H    0.963
                            39 H    0.963
    13   6 C    3.935 --    12 C    0.993    40 H    0.965    41 H    0.965
                            14 O    0.957
    14   8 O    2.297 --    15 C    1.104    13 C    0.957    16 O    0.169
    15   6 C    3.916 --    16 O    1.735    14 O    1.104    17 C    1.016
    16   8 O    2.039 --    15 C    1.735    14 O    0.169
    17   6 C    3.987 --    18 C    1.931    15 C    1.016    42 H    0.962
    18   6 C    3.982 --    17 C    1.931    44 H    0.974    43 H    0.971
    19   6 C    3.961 --    20 O    1.677    11 N    1.103    21 N    1.099
    20   8 O    2.034 --    19 C    1.677    11 N    0.131    21 N    0.130
    21   7 N    3.532 --    29 C    1.099    19 C    1.099    22 C    0.966
                            20 O    0.130    30 O    0.129
    22   6 C    3.941 --    23 C    0.993    21 N    0.966    46 H    0.963
                            45 H    0.963
    23   6 C    3.935 --    22 C    0.993    47 H    0.966    48 H    0.965
                            24 O    0.957
    24   8 O    2.298 --    25 C    1.103    23 C    0.957    26 O    0.170
    25   6 C    3.915 --    26 O    1.735    24 O    1.103    27 C    1.015
    26   8 O    2.041 --    25 C    1.735    24 O    0.170
    27   6 C    3.987 --    28 C    1.928    25 C    1.015    49 H    0.964
    28   6 C    3.979 --    27 C    1.928    50 H    0.975    51 H    0.970
    29   6 C    3.961 --    30 O    1.676     8 N    1.102    21 N    1.099
    30   8 O    2.035 --    29 C    1.676     8 N    0.131    21 N    0.129
    31   1 H    0.994 --     1 C    0.971
    32   1 H    0.995 --     1 C    0.974
    33   1 H    0.994 --     2 C    0.962
    34   1 H    0.996 --     6 C    0.971
    35   1 H    0.994 --     6 C    0.965
    36   1 H    0.990 --     7 C    0.963
    37   1 H    0.989 --     7 C    0.962
    38   1 H    0.990 --    12 C    0.963
    39   1 H    0.990 --    12 C    0.963
    40   1 H    0.996 --    13 C    0.965
    41   1 H    0.996 --    13 C    0.965
    42   1 H    0.994 --    17 C    0.962
    43   1 H    0.995 --    18 C    0.971
    44   1 H    0.995 --    18 C    0.974
    45   1 H    0.990 --    22 C    0.963
    46   1 H    0.990 --    22 C    0.963
    47   1 H    0.996 --    23 C    0.966
    48   1 H    0.996 --    23 C    0.965
    49   1 H    0.995 --    27 C    0.964
    50   1 H    0.994 --    28 C    0.975
    51   1 H    0.993 --    28 C    0.970
 ---------------------------------------------------------------------------

Topologies differ in total number of bonds
Writing topology from bond orders to xtbtopo.mol

molecular dipole:
                 x           y           z       tot (Debye)
 q only:        0.339      -0.867      -0.591
   full:        0.365      -0.917      -0.591       2.924
molecular quadrupole (traceless):
                xx          xy          yy          xz          yz          zz
 q only:        3.769       4.929      14.271       2.620     -22.828     -18.041
  q+dip:        1.936       5.770      12.646       4.673     -23.460     -14.582
   full:        2.533       6.615      11.794       4.892     -23.537     -14.327

           -------------------------------------------------
          |                Geometry Summary                 |
           -------------------------------------------------

      molecular mass/u    :      423.3747559
   center of mass at/Å    :       -0.0232970       0.0740337       0.0449576
  moments of inertia/u·Å² :        0.4822365E+04   0.5548947E+04   0.9865811E+04
rotational constants/cm⁻¹ :        0.3495719E-02   0.3037987E-02   0.1708692E-02

 * 48 selected distances

     #   Z          #   Z                                           value/Å
     1   6 C        2   6 C                                       1.3249581
     3   6 C        4   8 O                                       1.2048454
     3   6 C        5   8 O                                       1.3470856
     5   8 O        6   6 C                                       1.4170743
     6   6 C        7   6 C                                       1.5354124 (max)
     7   6 C        8   7 N                                       1.4565004
     8   7 N        9   6 C                                       1.3820989
     9   6 C       10   8 O                                       1.2016385
     9   6 C       11   7 N                                       1.3842712
    11   7 N       12   6 C                                       1.4556639
    12   6 C       13   6 C                                       1.5273105
    13   6 C       14   8 O                                       1.4187054
    14   8 O       15   6 C                                       1.3451466
    15   6 C       16   8 O                                       1.2056952
    17   6 C       18   6 C                                       1.3249748
    11   7 N       19   6 C                                       1.3812255
    19   6 C       20   8 O                                       1.2031047
    19   6 C       21   7 N                                       1.3826503
    21   7 N       22   6 C                                       1.4558645
    22   6 C       23   6 C                                       1.5269572
    23   6 C       24   8 O                                       1.4189780
    24   8 O       25   6 C                                       1.3458836
    25   6 C       26   8 O                                       1.2047757
    27   6 C       28   6 C                                       1.3250985
     8   7 N       29   6 C                                       1.3822323
    21   7 N       29   6 C                                       1.3827408
    29   6 C       30   8 O                                       1.2032469
     1   6 C       31   1 H                                       1.0764351
     1   6 C       32   1 H                                       1.0768828
     2   6 C       33   1 H                                       1.0802819
     6   6 C       34   1 H                                       1.0925329
     6   6 C       35   1 H                                       1.0951817
     7   6 C       36   1 H                                       1.0919672
     7   6 C       37   1 H                                       1.0917299
    12   6 C       38   1 H                                       1.0911279
    12   6 C       39   1 H                                       1.0911278
    13   6 C       40   1 H                                       1.0966515
    13   6 C       41   1 H                                       1.0965895
    17   6 C       42   1 H                                       1.0805288
    18   6 C       43   1 H                                       1.0767243
    18   6 C       44   1 H                                       1.0769937
    22   6 C       45   1 H                                       1.0909701
    22   6 C       46   1 H                                       1.0910873
    23   6 C       47   1 H                                       1.0966159
    23   6 C       48   1 H                                       1.0966575
    27   6 C       49   1 H                                       1.0789447
    28   6 C       50   1 H                                       1.0761506 (min)
    28   6 C       51   1 H                                       1.0779737

 * 4 distinct bonds (by element types)

   Z      Z             #   av. dist./Å        max./Å        min./Å
   1 H    6 C          21     1.0868169     1.0966575     1.0761506
   6 C    6 C           6     1.4274519     1.5354124     1.3249581
   6 C    7 N           9     1.4070275     1.4565004     1.3812255
   6 C    8 O          12     1.2930150     1.4189780     1.2016385


optimized geometry written to: xtbopt.xyz


           -------------------------------------------------
          | TOTAL ENERGY              -94.671924711522 Eh   |
          | GRADIENT NORM               0.000799998467 Eh/α |
          | HOMO-LUMO GAP               3.689533614631 eV   |
           -------------------------------------------------

------------------------------------------------------------------------
 * finished run on 2025/12/01 at 14:20:01.838     
------------------------------------------------------------------------
 total:
 * wall-time:     0 d,  0 h,  0 min,  1.501 sec
 *  cpu-time:     0 d,  0 h,  0 min, 33.877 sec
 * ratio c/w:    22.570 speedup
 SCF:
 * wall-time:     0 d,  0 h,  0 min,  0.065 sec
 *  cpu-time:     0 d,  0 h,  0 min,  1.473 sec
 * ratio c/w:    22.669 speedup
 ANC optimizer:
 * wall-time:     0 d,  0 h,  0 min,  1.402 sec
 *  cpu-time:     0 d,  0 h,  0 min, 31.962 sec
 * ratio c/w:    22.791 speedup

normal termination of xtb
