      -----------------------------------------------------------      
     |                   =====================                   |     
     |                           x T B                           |     
     |                   =====================                   |     
     |                         S. Grimme                         |     
     |          Mulliken Center for Theoretical Chemistry        |     
     |                    University of Bonn                     |     
      -----------------------------------------------------------      

   * xtb version 6.7.1 (edcfbbe) compiled by 'albert@albert-system' on 2024-07-22

   xtb is free software: you can redistribute it and/or modify it under
   the terms of the GNU Lesser General Public License as published by
   the Free Software Foundation, either version 3 of the License, or
   (at your option) any later version.
   
   xtb is distributed in the hope that it will be useful,
   but WITHOUT ANY WARRANTY; without even the implied warranty of
   MERCHANTABILITY or FITNESS FOR A PARTICULAR PURPOSE.  See the
   GNU Lesser General Public License for more details.
   
   Cite this work as:
   * C. Bannwarth, E. Caldeweyher, S. Ehlert, A. Hansen, P. Pracht,
     J. Seibert, S. Spicher, S. Grimme, WIREs Comput. Mol. Sci., 2020, 11,
     e01493. DOI: 10.1002/wcms.1493
   
   for GFN2-xTB:
   * C. Bannwarth, S. Ehlert and S. Grimme., J. Chem. Theory Comput., 2019,
     15, 1652-1671. DOI: 10.1021/acs.jctc.8b01176
   for GFN1-xTB:
   * S. Grimme, C. Bannwarth, P. Shushkov, J. Chem. Theory Comput., 2017,
     13, 1989-2009. DOI: 10.1021/acs.jctc.7b00118
   for GFN0-xTB:
   * P. Pracht, E. Caldeweyher, S. Ehlert, S. Grimme, ChemRxiv, 2019, preprint.
     DOI: 10.26434/chemrxiv.8326202.v1
   for GFN-FF:
   * S. Spicher and S. Grimme, Angew. Chem. Int. Ed., 2020, 59, 15665-15673.
     DOI: 10.1002/anie.202004239
   
   for ALPB and GBSA implicit solvation:
   * S. Ehlert, M. Stahn, S. Spicher, S. Grimme, J. Chem. Theory Comput.,
     2021, 17, 4250-4261. DOI: 10.1021/acs.jctc.1c00471
   
   for ddCOSMO and CPCM-X implicit solvation:
   * M. Stahn, S. Ehlert, S. Grimme, J. Phys. Chem. A,
     2023, XX, XXXX-XXXX. DOI: 10.1021/acs.jpca.3c04382
   
   for DFT-D4:
   * E. Caldeweyher, C. Bannwarth and S. Grimme, J. Chem. Phys., 2017,
     147, 034112. DOI: 10.1063/1.4993215
   * E. Caldeweyher, S. Ehlert, A. Hansen, H. Neugebauer, S. Spicher,
     C. Bannwarth and S. Grimme, J. Chem. Phys., 2019, 150, 154122.
     DOI: 10.1063/1.5090222
   * E. Caldeweyher, J.-M. Mewes, S. Ehlert and S. Grimme, Phys. Chem. Chem. Phys.
     2020, 22, 8499-8512. DOI: 10.1039/D0CP00502A
   
   for sTDA-xTB:
   * S. Grimme and C. Bannwarth, J. Chem. Phys., 2016, 145, 054103.
     DOI: 10.1063/1.4959605
   
   in the mass-spec context:
   * V. Asgeirsson, C. Bauer and S. Grimme, Chem. Sci., 2017, 8, 4879.
     DOI: 10.1039/c7sc00601b
   * J. Koopman and S. Grimme, ACS Omega 2019, 4, 12, 15120-15133.
     DOI: 10.1021/acsomega.9b02011
   
   for metadynamics refer to:
   * S. Grimme, J. Chem. Theory Comput., 2019, 155, 2847-2862
     DOI: 10.1021/acs.jctc.9b00143
   
   for SPH calculations refer to:
   * S. Spicher and S. Grimme, J. Chem. Theory Comput., 2021, 17, 1701-1714
     DOI: 10.1021/acs.jctc.0c01306
   
   for ONIOM refer to:
   * C. Plett, A. Katbashev, S. Ehlert, S. Grimme, M. Bursch,
     Phys. Chem. Chem. Phys., 2023, 25, 17860-17868. DOI: 10.1039/D3CP02178E
   
   for DIPRO refer to:
   * J. Kohn, N. Gildemeister, S. Grimme, D. Fazzi, A. Hansen,
     J. Chem. Phys., 2023, just accepted.
   
   for PTB refer to:
   * S. Grimme, M. Mueller, A. Hansen, J. Chem. Phys., 2023, 158, 124111.
     DOI: 10.1063/5.0137838
   
   with help from (in alphabetical order)
   P. Atkinson, C. Bannwarth, F. Bohle, G. Brandenburg, E. Caldeweyher
   M. Checinski, S. Dohm, S. Ehlert, S. Ehrlich, I. Gerasimov, C. Hölzer
   A. Katbashev, J. Kohn, J. Koopman, C. Lavigne, S. Lehtola, F. März, M. Müller,
   F. Musil, H. Neugebauer, J. Pisarek, C. Plett, P. Pracht, F. Pultar,
   J. Seibert, P. Shushkov, S. Spicher, M. Stahn, M. Steiner, T. Strunk,
   J. Stückrath, T. Rose, and J. Unsleber
   
 * started run on 2025/12/01 at 14:19:58.623     
   ID    Z sym.   atoms
    1    6 C      1-3, 6, 7, 9, 12, 13, 15, 17-19, 22, 23, 25, 27-29
    2    8 O      4, 5, 10, 14, 16, 20, 24, 26, 30
    3    7 N      8, 11, 21
    4    1 H      31-51

           -------------------------------------------------
          |                Calculation Setup                |
           -------------------------------------------------

          program call               : xtb pipeline_data/3_conformer_xyz/acrylates/rdkit/YIJYFLXQHDOQGW-UHFFFAOYSA-N_conf158.xyz --opt --gfn 2-xTB --iterations 250
          coordinate file            : pipeline_data/3_conformer_xyz/acrylates/rdkit/YIJYFLXQHDOQGW-UHFFFAOYSA-N_conf158.xyz
          omp threads                :                    24

########################################################################
[WARNING] Please study the warnings concerning your input carefully
-1- readin_getIntValue: could not parse '2-xTB'
########################################################################

           -------------------------------------------------
          |                 G F N 2 - x T B                 |
           -------------------------------------------------

        Reference                      10.1021/acs.jctc.8b01176
      * Hamiltonian:
        H0-scaling (s, p, d)           1.850000    2.230000    2.230000
        zeta-weighting                 0.500000
      * Dispersion:
        s8                             2.700000
        a1                             0.520000
        a2                             5.000000
        s9                             5.000000
      * Repulsion:
        kExp                           1.500000    1.000000
        rExp                           1.000000
      * Coulomb:
        alpha                          2.000000
        third order                    shell-resolved
        anisotropic                    true
        a3                             3.000000
        a5                             4.000000
        cn-shift                       1.200000
        cn-exp                         4.000000
        max-rad                        5.000000

q/qsh data taken from xtbrestart
CAMM data taken from xtbrestart

          ...................................................
          :                      SETUP                      :
          :.................................................:
          :  # basis functions                 141          :
          :  # atomic orbitals                 141          :
          :  # shells                           81          :
          :  # electrons                       162          :
          :  max. iterations                   250          :
          :  Hamiltonian                  GFN2-xTB          :
          :  restarted?                       true          :
          :  GBSA solvation                  false          :
          :  PC potential                    false          :
          :  electronic temp.          300.0000000     K    :
          :  accuracy                    1.0000000          :
          :  -> integral cutoff          0.2500000E+02      :
          :  -> integral neglect         0.1000000E-07      :
          :  -> SCF convergence          0.1000000E-05 Eh   :
          :  -> wf. convergence          0.1000000E-03 e    :
          :  Broyden damping             0.4000000          :
          :  net charge                          0          :
          :  unpaired electrons                  0          :
          ...................................................

 iter      E             dE          RMSdq      gap      omega  full diag
   1    -95.5428865 -0.955429E+02  0.579E+00    2.88       0.0  T
   2    -95.5796059 -0.367193E-01  0.353E+00    3.17       1.0  T
   3    -95.5564497  0.231562E-01  0.917E-01    3.15       1.0  T
   4    -95.5869718 -0.305221E-01  0.287E-01    3.32       1.0  T
   5    -95.5889522 -0.198040E-02  0.134E-01    3.29       1.0  T
   6    -95.5891275 -0.175264E-03  0.743E-02    3.30       1.0  T
   7    -95.5891935 -0.659631E-04  0.134E-02    3.31       1.0  T
   8    -95.5891940 -0.530590E-06  0.926E-03    3.31       1.5  T
   9    -95.5891961 -0.206679E-05  0.403E-03    3.31       3.5  T
  10    -95.5891962 -0.174583E-06  0.118E-03    3.31      11.9  T
  11    -95.5891962 -0.112251E-07  0.611E-04    3.31      22.9  T
  12    -95.5891962 -0.274747E-08  0.265E-04    3.31      52.8  T

   *** convergence criteria satisfied after 12 iterations ***

         #    Occupation            Energy/Eh            Energy/eV
      -------------------------------------------------------------
         1        2.0000           -0.7716269             -20.9970
       ...           ...                  ...                  ...
        75        2.0000           -0.4478477             -12.1866
        76        2.0000           -0.4450475             -12.1104
        77        2.0000           -0.4435572             -12.0698
        78        2.0000           -0.4393238             -11.9546
        79        2.0000           -0.4223059             -11.4915
        80        2.0000           -0.4213806             -11.4663
        81        2.0000           -0.4183984             -11.3852 (HOMO)
        82                         -0.2967784              -8.0758 (LUMO)
        83                         -0.2965523              -8.0696
        84                         -0.2932839              -7.9807
        85                         -0.2810262              -7.6471
        86                         -0.2781727              -7.5695
       ...                                ...                  ...
       141                          0.6169168              16.7872
      -------------------------------------------------------------
                  HL-Gap            0.1216200 Eh            3.3094 eV
             Fermi-level           -0.3575884 Eh           -9.7305 eV

 SCC (total)                   0 d,  0 h,  0 min,  0.153 sec
 SCC setup                      ...        0 min,  0.000 sec (  0.206%)
 Dispersion                     ...        0 min,  0.001 sec (  0.429%)
 classical contributions        ...        0 min,  0.000 sec (  0.200%)
 integral evaluation            ...        0 min,  0.002 sec (  1.624%)
 iterations                     ...        0 min,  0.143 sec ( 92.954%)
 molecular gradient             ...        0 min,  0.007 sec (  4.343%)
 printout                       ...        0 min,  0.000 sec (  0.225%)

         :::::::::::::::::::::::::::::::::::::::::::::::::::::
         ::                     SUMMARY                     ::
         :::::::::::::::::::::::::::::::::::::::::::::::::::::
         :: total energy             -94.610866071659 Eh    ::
         :: gradient norm              0.284248482349 Eh/a0 ::
         :: HOMO-LUMO gap              3.309449400316 eV    ::
         ::.................................................::
         :: SCC energy               -95.589605385986 Eh    ::
         :: -> isotropic ES            0.250573450269 Eh    ::
         :: -> anisotropic ES         -0.000030475901 Eh    ::
         :: -> anisotropic XC          0.013992316505 Eh    ::
         :: -> dispersion             -0.048219093579 Eh    ::
         :: repulsion energy           0.978739314327 Eh    ::
         :: add. restraining           0.000000000000 Eh    ::
         :: total charge              -0.000000000000 e     ::
         :::::::::::::::::::::::::::::::::::::::::::::::::::::

      ----------------------------------------------------------- 
     |                   =====================                   |
     |                        A N C O P T                        |
     |                   =====================                   |
     |               Approximate Normal Coordinate               |
     |                Rational Function Optimizer                |
      ----------------------------------------------------------- 
      ----------------------------------------------------------- 
     |                   =====================                   |
     |                        A N C O P T                        |
     |                   =====================                   |
     |               Approximate Normal Coordinate               |
     |                Rational Function Optimizer                |
      ----------------------------------------------------------- 

          ...................................................
          :                      SETUP                      :
          :.................................................:
          :   optimization level            normal          :
          :   max. optcycles                   200          :
          :   ANC micro-cycles                  20          :
          :   degrees of freedom               147          :
          :.................................................:
          :   RF solver                   davidson          :
          :   write xtbopt.log                true          :
          :   linear?                        false          :
          :   energy convergence         0.5000000E-05 Eh   :
          :   grad. convergence          0.1000000E-02 Eh/α :
          :   maxmium RF displ.          1.0000000          :
          :   Hlow (freq-cutoff)         0.1000000E-01      :
          :   Hmax (freq-cutoff)         5.0000000          :
          :   S6 in model hess.         20.0000000          :
          ...................................................

generating ANC from exact Hessian ...
Using Lindh-Hessian (1995)
 Shifting diagonal of input Hessian by   9.851169426507560E-003
 Lowest  eigenvalues of input Hessian
    0.000000    0.000000    0.000000    0.000000    0.000000    0.000000
    0.010000    0.010035    0.010081    0.010407    0.010514    0.010694
    0.010916    0.011231    0.011392    0.012501    0.012925    0.013338
 Highest eigenvalues
    2.146285    2.160217    2.165131    2.241196    2.541157    2.581887
 

........................................................................
.............................. CYCLE    1 ..............................
........................................................................

 iter      E             dE          RMSdq      gap      omega  full diag
   1    -95.5891962 -0.955892E+02  0.110E-04    3.31       0.0  T
   2    -95.5891962 -0.396767E-10  0.848E-05    3.31     165.2  T
   3    -95.5891962 -0.182951E-09  0.453E-05    3.31     309.3  T
     SCC iter.                  ...        0 min,  0.013 sec
     gradient                   ...        0 min,  0.007 sec
 * total energy  :   -94.6108661 Eh     change       -0.1787782E-08 Eh
   gradient norm :     0.2842511 Eh/α   predicted     0.0000000E+00 (-100.00%)
   displ. norm   :     0.3574287 α      lambda       -0.5740827E-01
   maximum displ.:     0.1185263 α      in ANC's #48, #35, #47, ...

........................................................................
.............................. CYCLE    2 ..............................
........................................................................

 iter      E             dE          RMSdq      gap      omega  full diag
   1    -95.6629604 -0.956630E+02  0.338E-01    3.45       0.0  T
   2    -95.6653775 -0.241705E-02  0.200E-01    3.50       1.0  T
   3    -95.6655481 -0.170592E-03  0.112E-01    3.51       1.0  T
   4    -95.6654680  0.800629E-04  0.601E-02    3.52       1.0  T
   5    -95.6655923 -0.124320E-03  0.144E-02    3.52       1.0  T
   6    -95.6655982 -0.588631E-05  0.518E-03    3.52       2.7  T
   7    -95.6655984 -0.187749E-06  0.135E-03    3.52      10.4  T
   8    -95.6655984 -0.798113E-08  0.697E-04    3.52      20.1  T
   9    -95.6655984 -0.143150E-08  0.306E-04    3.52      45.8  T
     SCC iter.                  ...        0 min,  0.052 sec
     gradient                   ...        0 min,  0.018 sec
 * total energy  :   -94.6528404 Eh     change       -0.4197429E-01 Eh
   gradient norm :     0.1233327 Eh/α   predicted    -0.3239338E-01 ( -22.83%)
   displ. norm   :     0.3835690 α      lambda       -0.2346314E-01
   maximum displ.:     0.1502279 α      in ANC's #35, #48, #20, ...

........................................................................
.............................. CYCLE    3 ..............................
........................................................................

 iter      E             dE          RMSdq      gap      omega  full diag
   1    -95.7066222 -0.957066E+02  0.310E-01    3.60       0.0  T
   2    -95.7082853 -0.166307E-02  0.177E-01    3.64       1.0  T
   3    -95.7083841 -0.987794E-04  0.966E-02    3.65       1.0  T
   4    -95.7083497  0.344146E-04  0.421E-02    3.65       1.0  T
   5    -95.7084143 -0.646747E-04  0.107E-02    3.65       1.3  T
   6    -95.7084174 -0.306077E-05  0.391E-03    3.65       3.6  T
   7    -95.7084175 -0.113424E-06  0.912E-04    3.65      15.4  T
   8    -95.7084175 -0.437610E-08  0.452E-04    3.65      31.0  T
     SCC iter.                  ...        0 min,  0.042 sec
     gradient                   ...        0 min,  0.006 sec
 * total energy  :   -94.6664238 Eh     change       -0.1358344E-01 Eh
   gradient norm :     0.0305970 Eh/α   predicted    -0.1346000E-01 (  -0.91%)
   displ. norm   :     0.3012097 α      lambda       -0.3775421E-02
   maximum displ.:     0.1441096 α      in ANC's #20, #35, #22, ...

........................................................................
.............................. CYCLE    4 ..............................
........................................................................

 iter      E             dE          RMSdq      gap      omega  full diag
   1    -95.7059523 -0.957060E+02  0.116E-01    3.65       0.0  T
   2    -95.7059994 -0.470454E-04  0.685E-02    3.64       1.0  T
   3    -95.7059815  0.178319E-04  0.312E-02    3.65       1.0  T
   4    -95.7060015 -0.199773E-04  0.119E-02    3.64       1.2  T
   5    -95.7060069 -0.536398E-05  0.258E-03    3.64       5.4  T
   6    -95.7060070 -0.982107E-07  0.129E-03    3.64      10.8  T
   7    -95.7060070 -0.879751E-08  0.344E-04    3.64      40.8  T
   8    -95.7060070 -0.651937E-09  0.151E-04    3.64      93.0  T
     SCC iter.                  ...        0 min,  0.055 sec
     gradient                   ...        0 min,  0.007 sec
 * total energy  :   -94.6690374 Eh     change       -0.2613588E-02 Eh
   gradient norm :     0.0143536 Eh/α   predicted    -0.2059133E-02 ( -21.21%)
   displ. norm   :     0.3138651 α      lambda       -0.1684996E-02
   maximum displ.:     0.1571912 α      in ANC's #20, #22, #35, ...

........................................................................
.............................. CYCLE    5 ..............................
........................................................................

 iter      E             dE          RMSdq      gap      omega  full diag
   1    -95.7079739 -0.957080E+02  0.807E-02    3.64       0.0  T
   2    -95.7079937 -0.197467E-04  0.475E-02    3.63       1.0  T
   3    -95.7079897  0.398481E-05  0.159E-02    3.64       1.0  T
   4    -95.7079933 -0.357753E-05  0.785E-03    3.63       1.8  T
   5    -95.7079956 -0.235992E-05  0.164E-03    3.63       8.5  T
   6    -95.7079957 -0.172804E-07  0.793E-04    3.63      17.7  T
   7    -95.7079957 -0.526579E-08  0.233E-04    3.63      60.1  T
     SCC iter.                  ...        0 min,  0.024 sec
     gradient                   ...        0 min,  0.007 sec
 * total energy  :   -94.6701344 Eh     change       -0.1097056E-02 Eh
   gradient norm :     0.0078333 Eh/α   predicted    -0.9255293E-03 ( -15.64%)
   displ. norm   :     0.2310247 α      lambda       -0.5991006E-03
   maximum displ.:     0.1017583 α      in ANC's #20, #10, #9, ...

........................................................................
.............................. CYCLE    6 ..............................
........................................................................

 iter      E             dE          RMSdq      gap      omega  full diag
   1    -95.7113858 -0.957114E+02  0.518E-02    3.64       0.0  T
   2    -95.7113918 -0.601348E-05  0.309E-02    3.63       1.0  T
   3    -95.7113908  0.100504E-05  0.885E-03    3.63       1.6  T
   4    -95.7113925 -0.163798E-05  0.276E-03    3.63       5.1  T
   5    -95.7113927 -0.212662E-06  0.129E-03    3.63      10.9  T
   6    -95.7113927 -0.289195E-07  0.633E-04    3.63      22.1  T
   7    -95.7113927 -0.397014E-08  0.157E-04    3.63      88.9  T
     SCC iter.                  ...        0 min,  0.041 sec
     gradient                   ...        0 min,  0.010 sec
 * total energy  :   -94.6705021 Eh     change       -0.3676546E-03 Eh
   gradient norm :     0.0069776 Eh/α   predicted    -0.3158133E-03 ( -14.10%)
   displ. norm   :     0.2046093 α      lambda       -0.3403751E-03
   maximum displ.:     0.0807192 α      in ANC's #9, #10, #20, ...

........................................................................
.............................. CYCLE    7 ..............................
........................................................................

 iter      E             dE          RMSdq      gap      omega  full diag
   1    -95.7136745 -0.957137E+02  0.584E-02    3.63       0.0  T
   2    -95.7136783 -0.383576E-05  0.349E-02    3.62       1.0  T
   3    -95.7136776  0.742890E-06  0.684E-03    3.62       2.0  T
   4    -95.7136789 -0.130873E-05  0.170E-03    3.62       8.2  T
   5    -95.7136789 -0.397822E-07  0.977E-04    3.62      14.3  T
   6    -95.7136789 -0.177563E-08  0.602E-04    3.62      23.3  T
     SCC iter.                  ...        0 min,  0.026 sec
     gradient                   ...        0 min,  0.008 sec
 * total energy  :   -94.6706950 Eh     change       -0.1929319E-03 Eh
   gradient norm :     0.0069742 Eh/α   predicted    -0.1773143E-03 (  -8.09%)
   displ. norm   :     0.1483804 α      lambda       -0.1871674E-03
   maximum displ.:     0.0655005 α      in ANC's #9, #7, #10, ...

........................................................................
.............................. CYCLE    8 ..............................
........................................................................

 iter      E             dE          RMSdq      gap      omega  full diag
   1    -95.7146284 -0.957146E+02  0.386E-02    3.63       0.0  T
   2    -95.7146300 -0.166323E-05  0.227E-02    3.63       1.0  T
   3    -95.7146300  0.170331E-07  0.351E-03    3.63       4.0  T
   4    -95.7146302 -0.154571E-06  0.159E-03    3.63       8.8  T
   5    -95.7146302 -0.675641E-07  0.751E-04    3.63      18.6  T
   6    -95.7146303 -0.523799E-08  0.318E-04    3.63      44.1  T
     SCC iter.                  ...        0 min,  0.021 sec
     gradient                   ...        0 min,  0.007 sec
 * total energy  :   -94.6708354 Eh     change       -0.1403981E-03 Eh
   gradient norm :     0.0042899 Eh/α   predicted    -0.9564556E-04 ( -31.88%)
   displ. norm   :     0.2222978 α      lambda       -0.2014986E-03
   maximum displ.:     0.1023841 α      in ANC's #9, #7, #10, ...

........................................................................
.............................. CYCLE    9 ..............................
........................................................................

 iter      E             dE          RMSdq      gap      omega  full diag
   1    -95.7140170 -0.957140E+02  0.554E-02    3.63       0.0  T
   2    -95.7140192 -0.220502E-05  0.326E-02    3.64       1.0  T
   3    -95.7140192  0.230478E-07  0.421E-03    3.63       3.3  T
   4    -95.7140196 -0.395102E-06  0.160E-03    3.63       8.7  T
   5    -95.7140196 -0.291693E-07  0.971E-04    3.63      14.4  T
   6    -95.7140196 -0.948162E-08  0.498E-04    3.63      28.1  T
     SCC iter.                  ...        0 min,  0.021 sec
     gradient                   ...        0 min,  0.006 sec
 * total energy  :   -94.6709714 Eh     change       -0.1359796E-03 Eh
   gradient norm :     0.0041920 Eh/α   predicted    -0.1057305E-03 ( -22.25%)
   displ. norm   :     0.1925662 α      lambda       -0.1099378E-03
   maximum displ.:     0.0908549 α      in ANC's #9, #7, #2, ...

........................................................................
.............................. CYCLE   10 ..............................
........................................................................

 iter      E             dE          RMSdq      gap      omega  full diag
   1    -95.7127351 -0.957127E+02  0.482E-02    3.63       0.0  T
   2    -95.7127359 -0.763941E-06  0.287E-02    3.63       1.0  T
   3    -95.7127351  0.821767E-06  0.522E-03    3.63       2.7  T
   4    -95.7127362 -0.109691E-05  0.172E-03    3.63       8.1  T
   5    -95.7127362 -0.608284E-07  0.869E-04    3.63      16.1  T
   6    -95.7127363 -0.555669E-08  0.267E-04    3.63      52.5  T
     SCC iter.                  ...        0 min,  0.021 sec
     gradient                   ...        0 min,  0.007 sec
 * total energy  :   -94.6710436 Eh     change       -0.7223513E-04 Eh
   gradient norm :     0.0044219 Eh/α   predicted    -0.5701421E-04 ( -21.07%)
   displ. norm   :     0.1799201 α      lambda       -0.9133676E-04
   maximum displ.:     0.0801786 α      in ANC's #9, #7, #2, ...

........................................................................
.............................. CYCLE   11 ..............................
........................................................................

 iter      E             dE          RMSdq      gap      omega  full diag
   1    -95.7128110 -0.957128E+02  0.384E-02    3.65       0.0  T
   2    -95.7128119 -0.916331E-06  0.227E-02    3.64       1.0  T
   3    -95.7128116  0.227119E-06  0.350E-03    3.64       4.0  T
   4    -95.7128120 -0.359098E-06  0.154E-03    3.64       9.1  T
   5    -95.7128121 -0.653188E-07  0.725E-04    3.64      19.3  T
   6    -95.7128121 -0.526742E-08  0.300E-04    3.64      46.6  T
     SCC iter.                  ...        0 min,  0.021 sec
     gradient                   ...        0 min,  0.007 sec
 * total energy  :   -94.6710998 Eh     change       -0.5613505E-04 Eh
   gradient norm :     0.0040638 Eh/α   predicted    -0.4715200E-04 ( -16.00%)
   displ. norm   :     0.1453411 α      lambda       -0.5782890E-04
   maximum displ.:     0.0640745 α      in ANC's #9, #2, #7, ...

........................................................................
.............................. CYCLE   12 ..............................
........................................................................

 iter      E             dE          RMSdq      gap      omega  full diag
   1    -95.7129381 -0.957129E+02  0.322E-02    3.64       0.0  T
   2    -95.7129390 -0.925516E-06  0.191E-02    3.64       1.0  T
   3    -95.7129389  0.121724E-06  0.294E-03    3.64       4.8  T
   4    -95.7129390 -0.170851E-06  0.152E-03    3.64       9.2  T
   5    -95.7129391 -0.771293E-07  0.546E-04    3.64      25.6  T
   6    -95.7129391 -0.162464E-08  0.242E-04    3.64      57.9  T
     SCC iter.                  ...        0 min,  0.021 sec
     gradient                   ...        0 min,  0.007 sec
 * total energy  :   -94.6711409 Eh     change       -0.4110198E-04 Eh
   gradient norm :     0.0022346 Eh/α   predicted    -0.2953330E-04 ( -28.15%)
   displ. norm   :     0.1351988 α      lambda       -0.4488718E-04
   maximum displ.:     0.0647685 α      in ANC's #2, #9, #7, ...

........................................................................
.............................. CYCLE   13 ..............................
........................................................................

 iter      E             dE          RMSdq      gap      omega  full diag
   1    -95.7138786 -0.957139E+02  0.271E-02    3.65       0.0  T
   2    -95.7138792 -0.602901E-06  0.159E-02    3.65       1.0  T
   3    -95.7138790  0.225230E-06  0.322E-03    3.65       4.4  T
   4    -95.7138793 -0.306424E-06  0.103E-03    3.65      13.6  T
   5    -95.7138793 -0.333084E-07  0.505E-04    3.65      27.7  T
   6    -95.7138793 -0.399473E-08  0.226E-04    3.65      62.0  T
     SCC iter.                  ...        0 min,  0.021 sec
     gradient                   ...        0 min,  0.007 sec
 * total energy  :   -94.6711724 Eh     change       -0.3153892E-04 Eh
   gradient norm :     0.0021242 Eh/α   predicted    -0.2285704E-04 ( -27.53%)
   displ. norm   :     0.1331020 α      lambda       -0.3183974E-04
   maximum displ.:     0.0675147 α      in ANC's #2, #7, #9, ...

........................................................................
.............................. CYCLE   14 ..............................
........................................................................

 iter      E             dE          RMSdq      gap      omega  full diag
   1    -95.7141399 -0.957141E+02  0.270E-02    3.65       0.0  T
   2    -95.7141402 -0.313261E-06  0.159E-02    3.65       1.0  T
   3    -95.7141401  0.111762E-06  0.229E-03    3.65       6.1  T
   4    -95.7141402 -0.168341E-06  0.844E-04    3.65      16.6  T
   5    -95.7141402 -0.193766E-07  0.423E-04    3.65      33.1  T
     SCC iter.                  ...        0 min,  0.017 sec
     gradient                   ...        0 min,  0.006 sec
 * total energy  :   -94.6711961 Eh     change       -0.2372341E-04 Eh
   gradient norm :     0.0025105 Eh/α   predicted    -0.1620687E-04 ( -31.68%)
   displ. norm   :     0.1452163 α      lambda       -0.3355974E-04
   maximum displ.:     0.0786375 α      in ANC's #2, #10, #5, ...

........................................................................
.............................. CYCLE   15 ..............................
........................................................................

 iter      E             dE          RMSdq      gap      omega  full diag
   1    -95.7143303 -0.957143E+02  0.294E-02    3.65       0.0  T
   2    -95.7143306 -0.235848E-06  0.173E-02    3.65       1.0  T
   3    -95.7143305  0.723992E-07  0.199E-03    3.65       7.0  T
   4    -95.7143306 -0.135926E-06  0.807E-04    3.65      17.4  T
   5    -95.7143306 -0.151027E-07  0.423E-04    3.65      33.1  T
     SCC iter.                  ...        0 min,  0.017 sec
     gradient                   ...        0 min,  0.007 sec
 * total energy  :   -94.6712213 Eh     change       -0.2515915E-04 Eh
   gradient norm :     0.0024396 Eh/α   predicted    -0.1713593E-04 ( -31.89%)
   displ. norm   :     0.1578694 α      lambda       -0.3390230E-04
   maximum displ.:     0.0892741 α      in ANC's #2, #5, #10, ...

........................................................................
.............................. CYCLE   16 ..............................
........................................................................

 iter      E             dE          RMSdq      gap      omega  full diag
   1    -95.7141077 -0.957141E+02  0.337E-02    3.66       0.0  T
   2    -95.7141079 -0.264510E-06  0.199E-02    3.66       1.0  T
   3    -95.7141079  0.510286E-07  0.198E-03    3.66       7.1  T
   4    -95.7141080 -0.124126E-06  0.936E-04    3.66      15.0  T
   5    -95.7141080 -0.220063E-07  0.442E-04    3.66      31.7  T
     SCC iter.                  ...        0 min,  0.023 sec
     gradient                   ...        0 min,  0.007 sec
 * total energy  :   -94.6712459 Eh     change       -0.2462929E-04 Eh
   gradient norm :     0.0023166 Eh/α   predicted    -0.1737423E-04 ( -29.46%)
   displ. norm   :     0.1464808 α      lambda       -0.2918505E-04
   maximum displ.:     0.0872194 α      in ANC's #2, #5, #10, ...

........................................................................
.............................. CYCLE   17 ..............................
........................................................................

 iter      E             dE          RMSdq      gap      omega  full diag
   1    -95.7136374 -0.957136E+02  0.326E-02    3.66       0.0  T
   2    -95.7136376 -0.238421E-06  0.192E-02    3.66       1.0  T
   3    -95.7136374  0.270942E-06  0.291E-03    3.66       4.8  T
   4    -95.7136377 -0.350021E-06  0.952E-04    3.66      14.7  T
   5    -95.7136377 -0.231571E-07  0.412E-04    3.66      34.0  T
     SCC iter.                  ...        0 min,  0.017 sec
     gradient                   ...        0 min,  0.006 sec
 * total energy  :   -94.6712664 Eh     change       -0.2049056E-04 Eh
   gradient norm :     0.0020242 Eh/α   predicted    -0.1490917E-04 ( -27.24%)
   displ. norm   :     0.1219688 α      lambda       -0.2469646E-04
   maximum displ.:     0.0761636 α      in ANC's #2, #5, #3, ...

........................................................................
.............................. CYCLE   18 ..............................
........................................................................

 iter      E             dE          RMSdq      gap      omega  full diag
   1    -95.7137844 -0.957138E+02  0.277E-02    3.66       0.0  T
   2    -95.7137845 -0.172199E-06  0.163E-02    3.66       1.0  T
   3    -95.7137845  0.180575E-07  0.154E-03    3.66       9.1  T
   4    -95.7137846 -0.654881E-07  0.789E-04    3.66      17.8  T
   5    -95.7137846 -0.160025E-07  0.353E-04    3.66      39.7  T
     SCC iter.                  ...        0 min,  0.017 sec
     gradient                   ...        0 min,  0.008 sec
 * total energy  :   -94.6712844 Eh     change       -0.1799907E-04 Eh
   gradient norm :     0.0020974 Eh/α   predicted    -0.1253609E-04 ( -30.35%)
   displ. norm   :     0.1204111 α      lambda       -0.2323466E-04
   maximum displ.:     0.0770717 α      in ANC's #2, #3, #5, ...

........................................................................
.............................. CYCLE   19 ..............................
........................................................................

 iter      E             dE          RMSdq      gap      omega  full diag
   1    -95.7137258 -0.957137E+02  0.271E-02    3.65       0.0  T
   2    -95.7137259 -0.162540E-06  0.159E-02    3.65       1.0  T
   3    -95.7137257  0.260683E-06  0.275E-03    3.65       5.1  T
   4    -95.7137260 -0.318896E-06  0.711E-04    3.65      19.7  T
   5    -95.7137260 -0.118775E-07  0.327E-04    3.65      42.9  T
     SCC iter.                  ...        0 min,  0.017 sec
     gradient                   ...        0 min,  0.009 sec
 * total energy  :   -94.6713025 Eh     change       -0.1811453E-04 Eh
   gradient norm :     0.0019330 Eh/α   predicted    -0.1178803E-04 ( -34.92%)
   displ. norm   :     0.1968297 α      lambda       -0.2550847E-04
   maximum displ.:     0.1252654 α      in ANC's #2, #3, #5, ...

........................................................................
.............................. CYCLE   20 ..............................
........................................................................

 iter      E             dE          RMSdq      gap      omega  full diag
   1    -95.7138083 -0.957138E+02  0.421E-02    3.65       0.0  T
   2    -95.7138088 -0.465163E-06  0.247E-02    3.65       1.0  T
   3    -95.7138083  0.476619E-06  0.385E-03    3.65       3.6  T
   4    -95.7138089 -0.595194E-06  0.121E-03    3.65      11.6  T
   5    -95.7138090 -0.404671E-07  0.522E-04    3.65      26.8  T
   6    -95.7138090 -0.101913E-08  0.207E-04    3.65      67.5  T
     SCC iter.                  ...        0 min,  0.033 sec
     gradient                   ...        0 min,  0.009 sec
 * total energy  :   -94.6713265 Eh     change       -0.2394524E-04 Eh
   gradient norm :     0.0022099 Eh/α   predicted    -0.1297629E-04 ( -45.81%)
   displ. norm   :     0.0864334 α      lambda       -0.1739855E-04
   maximum displ.:     0.0558092 α      in ANC's #2, #3, #6, ...
 * RMSD in coord.:     0.3739411 α      energy gain  -0.6046041E-01 Eh

generating ANC from exact Hessian ...
Using Lindh-Hessian (1995)
 Shifting diagonal of input Hessian by   9.855289807086569E-003
 Lowest  eigenvalues of input Hessian
    0.000000    0.000000    0.000000    0.000000    0.000000    0.000000
    0.010000    0.010044    0.010079    0.010450    0.010574    0.010725
    0.010937    0.011340    0.011524    0.012452    0.012753    0.013446
 Highest eigenvalues
    2.386791    2.392025    2.398083    2.398399    2.581807    2.586146
 

........................................................................
.............................. CYCLE   21 ..............................
........................................................................

 iter      E             dE          RMSdq      gap      omega  full diag
   1    -95.7140291 -0.957140E+02  0.173E-02    3.65       0.0  T
   2    -95.7140292 -0.968449E-07  0.102E-02    3.65       1.4  T
   3    -95.7140292  0.129289E-08  0.957E-04    3.65      14.6  T
   4    -95.7140292 -0.269633E-07  0.357E-04    3.65      39.2  T
     SCC iter.                  ...        0 min,  0.019 sec
     gradient                   ...        0 min,  0.008 sec
 * total energy  :   -94.6713395 Eh     change       -0.1305806E-04 Eh
   gradient norm :     0.0018788 Eh/α   predicted     0.0000000E+00 (-100.00%)
   displ. norm   :     0.0285586 α      lambda       -0.9744006E-05
   maximum displ.:     0.0161267 α      in ANC's #2, #23, #19, ...

........................................................................
.............................. CYCLE   22 ..............................
........................................................................

 iter      E             dE          RMSdq      gap      omega  full diag
   1    -95.7139926 -0.957140E+02  0.884E-03    3.65       0.0  T
   2    -95.7139927 -0.104420E-06  0.529E-03    3.65       2.6  T
   3    -95.7139927  0.645716E-07  0.157E-03    3.65       8.9  T
   4    -95.7139927 -0.745624E-07  0.564E-04    3.65      24.8  T
   5    -95.7139927 -0.115669E-07  0.175E-04    3.65      80.1  T
     SCC iter.                  ...        0 min,  0.024 sec
     gradient                   ...        0 min,  0.008 sec
 * total energy  :   -94.6713493 Eh     change       -0.9777853E-05 Eh
   gradient norm :     0.0010334 Eh/α   predicted    -0.5366762E-05 ( -45.11%)
   displ. norm   :     0.0623852 α      lambda       -0.1458166E-04
   maximum displ.:     0.0364067 α      in ANC's #2, #23, #19, ...

........................................................................
.............................. CYCLE   23 ..............................
........................................................................

 iter      E             dE          RMSdq      gap      omega  full diag
   1    -95.7139100 -0.957139E+02  0.151E-02    3.65       0.0  T
   2    -95.7139104 -0.339148E-06  0.891E-03    3.65       1.6  T
   3    -95.7139103  0.998952E-07  0.228E-03    3.66       6.1  T
   4    -95.7139104 -0.131487E-06  0.876E-04    3.66      16.0  T
   5    -95.7139104 -0.270501E-07  0.320E-04    3.66      43.7  T
     SCC iter.                  ...        0 min,  0.019 sec
     gradient                   ...        0 min,  0.007 sec
 * total energy  :   -94.6713598 Eh     change       -0.1051756E-04 Eh
   gradient norm :     0.0016667 Eh/α   predicted    -0.7318991E-05 ( -30.41%)
   displ. norm   :     0.0413430 α      lambda       -0.6921136E-05
   maximum displ.:     0.0268063 α      in ANC's #2, #6, #20, ...

........................................................................
.............................. CYCLE   24 ..............................
........................................................................

 iter      E             dE          RMSdq      gap      omega  full diag
   1    -95.7139638 -0.957140E+02  0.921E-03    3.66       0.0  T
   2    -95.7139639 -0.461540E-07  0.544E-03    3.66       2.6  T
   3    -95.7139639 -0.668543E-08  0.497E-04    3.66      28.1  T
   4    -95.7139639 -0.508346E-08  0.245E-04    3.66      57.3  T
     SCC iter.                  ...        0 min,  0.014 sec
     gradient                   ...        0 min,  0.006 sec
 * total energy  :   -94.6713677 Eh     change       -0.7885555E-05 Eh
   gradient norm :     0.0012752 Eh/α   predicted    -0.3469977E-05 ( -56.00%)
   displ. norm   :     0.0894562 α      lambda       -0.1180140E-04
   maximum displ.:     0.0577612 α      in ANC's #2, #1, #6, ...

........................................................................
.............................. CYCLE   25 ..............................
........................................................................

 iter      E             dE          RMSdq      gap      omega  full diag
   1    -95.7141032 -0.957141E+02  0.193E-02    3.66       0.0  T
   2    -95.7141034 -0.124340E-06  0.114E-02    3.66       1.2  T
   3    -95.7141034 -0.309563E-07  0.917E-04    3.66      15.3  T
   4    -95.7141034 -0.168598E-07  0.537E-04    3.66      26.1  T
     SCC iter.                  ...        0 min,  0.014 sec
     gradient                   ...        0 min,  0.007 sec
 * total energy  :   -94.6713787 Eh     change       -0.1097500E-04 Eh
   gradient norm :     0.0011807 Eh/α   predicted    -0.5924366E-05 ( -46.02%)
   displ. norm   :     0.0888772 α      lambda       -0.8719152E-05
   maximum displ.:     0.0579680 α      in ANC's #2, #1, #6, ...

........................................................................
.............................. CYCLE   26 ..............................
........................................................................

 iter      E             dE          RMSdq      gap      omega  full diag
   1    -95.7141732 -0.957142E+02  0.177E-02    3.66       0.0  T
   2    -95.7141733 -0.120423E-06  0.104E-02    3.66       1.3  T
   3    -95.7141733  0.223238E-07  0.142E-03    3.66       9.9  T
   4    -95.7141733 -0.637046E-07  0.643E-04    3.66      21.8  T
   5    -95.7141734 -0.923814E-08  0.328E-04    3.66      42.7  T
     SCC iter.                  ...        0 min,  0.017 sec
     gradient                   ...        0 min,  0.007 sec
 * total energy  :   -94.6713871 Eh     change       -0.8437319E-05 Eh
   gradient norm :     0.0010735 Eh/α   predicted    -0.4375307E-05 ( -48.14%)
   displ. norm   :     0.0760183 α      lambda       -0.6536687E-05
   maximum displ.:     0.0508150 α      in ANC's #2, #1, #9, ...

........................................................................
.............................. CYCLE   27 ..............................
........................................................................

 iter      E             dE          RMSdq      gap      omega  full diag
   1    -95.7141657 -0.957142E+02  0.152E-02    3.65       0.0  T
   2    -95.7141658 -0.833153E-07  0.900E-03    3.65       1.6  T
   3    -95.7141658  0.113859E-07  0.109E-03    3.65      12.8  T
   4    -95.7141658 -0.342796E-07  0.545E-04    3.65      25.7  T
   5    -95.7141659 -0.700699E-08  0.259E-04    3.65      54.1  T
     SCC iter.                  ...        0 min,  0.024 sec
     gradient                   ...        0 min,  0.009 sec
 * total energy  :   -94.6713936 Eh     change       -0.6500491E-05 Eh
   gradient norm :     0.0008885 Eh/α   predicted    -0.3277211E-05 ( -49.59%)
   displ. norm   :     0.0783485 α      lambda       -0.7262411E-05
   maximum displ.:     0.0526555 α      in ANC's #2, #1, #9, ...

........................................................................
.............................. CYCLE   28 ..............................
........................................................................

 iter      E             dE          RMSdq      gap      omega  full diag
   1    -95.7141224 -0.957141E+02  0.166E-02    3.65       0.0  T
   2    -95.7141225 -0.798174E-07  0.982E-03    3.65       1.4  T
   3    -95.7141224  0.181269E-07  0.117E-03    3.65      12.0  T
   4    -95.7141225 -0.403518E-07  0.548E-04    3.65      25.5  T
   5    -95.7141225 -0.678089E-08  0.257E-04    3.65      54.5  T
     SCC iter.                  ...        0 min,  0.018 sec
     gradient                   ...        0 min,  0.007 sec
 * total energy  :   -94.6714009 Eh     change       -0.7312020E-05 Eh
   gradient norm :     0.0008780 Eh/α   predicted    -0.3642728E-05 ( -50.18%)
   displ. norm   :     0.0687754 α      lambda       -0.5275287E-05
   maximum displ.:     0.0465282 α      in ANC's #2, #1, #9, ...

........................................................................
.............................. CYCLE   29 ..............................
........................................................................

 iter      E             dE          RMSdq      gap      omega  full diag
   1    -95.7140833 -0.957141E+02  0.138E-02    3.65       0.0  T
   2    -95.7140834 -0.396392E-07  0.816E-03    3.65       1.7  T
   3    -95.7140834 -0.107739E-07  0.566E-04    3.65      24.8  T
   4    -95.7140834 -0.540236E-08  0.305E-04    3.65      45.9  T
     SCC iter.                  ...        0 min,  0.013 sec
     gradient                   ...        0 min,  0.007 sec
 * total energy  :   -94.6714079 Eh     change       -0.6921068E-05 Eh
   gradient norm :     0.0009107 Eh/α   predicted    -0.2646679E-05 ( -61.76%)
   displ. norm   :     0.1176309 α      lambda       -0.9722517E-05
   maximum displ.:     0.0769755 α      in ANC's #2, #1, #9, ...

........................................................................
.............................. CYCLE   30 ..............................
........................................................................

 iter      E             dE          RMSdq      gap      omega  full diag
   1    -95.7139944 -0.957140E+02  0.247E-02    3.65       0.0  T
   2    -95.7139945 -0.120063E-06  0.146E-02    3.65       1.0  T
   3    -95.7139945  0.478322E-08  0.140E-03    3.65      10.0  T
   4    -95.7139945 -0.536995E-07  0.652E-04    3.65      21.5  T
   5    -95.7139945 -0.528509E-08  0.382E-04    3.65      36.6  T
     SCC iter.                  ...        0 min,  0.017 sec
     gradient                   ...        0 min,  0.007 sec
 * total energy  :   -94.6714200 Eh     change       -0.1210901E-04 Eh
   gradient norm :     0.0008164 Eh/α   predicted    -0.4894822E-05 ( -59.58%)
   displ. norm   :     0.1742538 α      lambda       -0.1196251E-04
   maximum displ.:     0.1139368 α      in ANC's #2, #1, #9, ...

........................................................................
.............................. CYCLE   31 ..............................
........................................................................

 iter      E             dE          RMSdq      gap      omega  full diag
   1    -95.7137739 -0.957138E+02  0.360E-02    3.66       0.0  T
   2    -95.7137741 -0.221792E-06  0.213E-02    3.65       1.0  T
   3    -95.7137742 -0.608891E-07  0.146E-03    3.66       9.6  T
   4    -95.7137742 -0.409391E-07  0.829E-04    3.66      16.9  T
   5    -95.7137742 -0.315990E-08  0.517E-04    3.66      27.1  T
     SCC iter.                  ...        0 min,  0.017 sec
     gradient                   ...        0 min,  0.007 sec
 * total energy  :   -94.6714337 Eh     change       -0.1375368E-04 Eh
   gradient norm :     0.0008905 Eh/α   predicted    -0.6066524E-05 ( -55.89%)
   displ. norm   :     0.1735880 α      lambda       -0.9700587E-05
   maximum displ.:     0.1142255 α      in ANC's #2, #1, #6, ...

........................................................................
.............................. CYCLE   32 ..............................
........................................................................

 iter      E             dE          RMSdq      gap      omega  full diag
   1    -95.7137107 -0.957137E+02  0.344E-02    3.66       0.0  T
   2    -95.7137109 -0.184377E-06  0.203E-02    3.66       1.0  T
   3    -95.7137109 -0.357767E-07  0.151E-03    3.66       9.3  T
   4    -95.7137110 -0.539361E-07  0.825E-04    3.66      17.0  T
   5    -95.7137110 -0.500602E-08  0.476E-04    3.66      29.4  T
     SCC iter.                  ...        0 min,  0.021 sec
     gradient                   ...        0 min,  0.011 sec
 * total energy  :   -94.6714456 Eh     change       -0.1191352E-04 Eh
   gradient norm :     0.0008520 Eh/α   predicted    -0.4918094E-05 ( -58.72%)
   displ. norm   :     0.2011595 α      lambda       -0.1106683E-04
   maximum displ.:     0.1319823 α      in ANC's #2, #1, #6, ...

........................................................................
.............................. CYCLE   33 ..............................
........................................................................

 iter      E             dE          RMSdq      gap      omega  full diag
   1    -95.7137127 -0.957137E+02  0.383E-02    3.66       0.0  T
   2    -95.7137130 -0.236117E-06  0.226E-02    3.66       1.0  T
   3    -95.7137130 -0.430617E-07  0.170E-03    3.66       8.2  T
   4    -95.7137131 -0.669905E-07  0.947E-04    3.66      14.8  T
   5    -95.7137131 -0.911284E-08  0.510E-04    3.66      27.4  T
     SCC iter.                  ...        0 min,  0.033 sec
     gradient                   ...        0 min,  0.008 sec
 * total energy  :   -94.6714594 Eh     change       -0.1374272E-04 Eh
   gradient norm :     0.0008694 Eh/α   predicted    -0.5634685E-05 ( -59.00%)
   displ. norm   :     0.3050218 α      lambda       -0.1710411E-04
   maximum displ.:     0.1991634 α      in ANC's #2, #1, #4, ...

........................................................................
.............................. CYCLE   34 ..............................
........................................................................

 iter      E             dE          RMSdq      gap      omega  full diag
   1    -95.7135943 -0.957136E+02  0.566E-02    3.66       0.0  T
   2    -95.7135948 -0.521371E-06  0.334E-02    3.66       1.0  T
   3    -95.7135949 -0.785741E-07  0.247E-03    3.66       5.7  T
   4    -95.7135950 -0.136225E-06  0.143E-03    3.66       9.8  T
   5    -95.7135951 -0.310230E-07  0.704E-04    3.66      19.9  T
   6    -95.7135951 -0.548918E-08  0.216E-04    3.66      64.9  T
     SCC iter.                  ...        0 min,  0.020 sec
     gradient                   ...        0 min,  0.007 sec
 * total energy  :   -94.6714768 Eh     change       -0.1743746E-04 Eh
   gradient norm :     0.0011479 Eh/α   predicted    -0.8909095E-05 ( -48.91%)
   displ. norm   :     0.2892590 α      lambda       -0.1537113E-04
   maximum displ.:     0.1886041 α      in ANC's #2, #1, #4, ...

........................................................................
.............................. CYCLE   35 ..............................
........................................................................

 iter      E             dE          RMSdq      gap      omega  full diag
   1    -95.7135944 -0.957136E+02  0.502E-02    3.67       0.0  T
   2    -95.7135948 -0.483898E-06  0.296E-02    3.67       1.0  T
   3    -95.7135949 -0.676909E-07  0.227E-03    3.67       6.2  T
   4    -95.7135950 -0.105345E-06  0.138E-03    3.67      10.1  T
   5    -95.7135951 -0.366936E-07  0.651E-04    3.67      21.5  T
   6    -95.7135951 -0.349807E-08  0.214E-04    3.67      65.5  T
     SCC iter.                  ...        0 min,  0.020 sec
     gradient                   ...        0 min,  0.007 sec
 * total energy  :   -94.6714926 Eh     change       -0.1573303E-04 Eh
   gradient norm :     0.0011545 Eh/α   predicted    -0.7975784E-05 ( -49.31%)
   displ. norm   :     0.2432659 α      lambda       -0.1281109E-04
   maximum displ.:     0.1584657 α      in ANC's #2, #1, #4, ...

........................................................................
.............................. CYCLE   36 ..............................
........................................................................

 iter      E             dE          RMSdq      gap      omega  full diag
   1    -95.7141901 -0.957142E+02  0.421E-02    3.67       0.0  T
   2    -95.7141906 -0.450075E-06  0.249E-02    3.67       1.0  T
   3    -95.7141905  0.395109E-07  0.244E-03    3.67       5.7  T
   4    -95.7141907 -0.185261E-06  0.996E-04    3.67      14.1  T
   5    -95.7141907 -0.553496E-08  0.676E-04    3.67      20.7  T
     SCC iter.                  ...        0 min,  0.017 sec
     gradient                   ...        0 min,  0.007 sec
 * total energy  :   -94.6715047 Eh     change       -0.1215549E-04 Eh
   gradient norm :     0.0010178 Eh/α   predicted    -0.6575358E-05 ( -45.91%)
   displ. norm   :     0.3102786 α      lambda       -0.1274348E-04
   maximum displ.:     0.2001923 α      in ANC's #2, #1, #4, ...

........................................................................
.............................. CYCLE   37 ..............................
........................................................................

 iter      E             dE          RMSdq      gap      omega  full diag
   1    -95.7138561 -0.957139E+02  0.549E-02    3.67       0.0  T
   2    -95.7138567 -0.612412E-06  0.323E-02    3.67       1.0  T
   3    -95.7138569 -0.103694E-06  0.219E-03    3.67       6.4  T
   4    -95.7138569 -0.758982E-07  0.146E-03    3.67       9.6  T
   5    -95.7138570 -0.451827E-07  0.716E-04    3.67      19.6  T
   6    -95.7138570 -0.459552E-08  0.254E-04    3.67      55.2  T
     SCC iter.                  ...        0 min,  0.025 sec
     gradient                   ...        0 min,  0.009 sec
 * total energy  :   -94.6715166 Eh     change       -0.1187376E-04 Eh
   gradient norm :     0.0010917 Eh/α   predicted    -0.6645804E-05 ( -44.03%)
   displ. norm   :     0.1232438 α      lambda       -0.8726552E-05
   maximum displ.:     0.0708437 α      in ANC's #2, #1, #4, ...

........................................................................
.............................. CYCLE   38 ..............................
........................................................................

 iter      E             dE          RMSdq      gap      omega  full diag
   1    -95.7150131 -0.957150E+02  0.219E-02    3.68       0.0  T
   2    -95.7150134 -0.302422E-06  0.130E-02    3.67       1.1  T
   3    -95.7150133  0.145218E-06  0.241E-03    3.68       5.8  T
   4    -95.7150135 -0.214351E-06  0.621E-04    3.67      22.6  T
   5    -95.7150135 -0.527588E-08  0.416E-04    3.67      33.6  T
     SCC iter.                  ...        0 min,  0.019 sec
     gradient                   ...        0 min,  0.007 sec
 * total energy  :   -94.6715227 Eh     change       -0.6122764E-05 Eh
   gradient norm :     0.0016926 Eh/α   predicted    -0.4394220E-05 ( -28.23%)
   displ. norm   :     0.3303207 α      lambda       -0.1329901E-04
   maximum displ.:     0.2052678 α      in ANC's #2, #1, #4, ...

........................................................................
.............................. CYCLE   39 ..............................
........................................................................

 iter      E             dE          RMSdq      gap      omega  full diag
   1    -95.7131396 -0.957131E+02  0.657E-02    3.66       0.0  T
   2    -95.7131407 -0.114788E-05  0.388E-02    3.66       1.0  T
   3    -95.7131400  0.750164E-06  0.502E-03    3.66       2.8  T
   4    -95.7131410 -0.101254E-05  0.201E-03    3.66       7.0  T
   5    -95.7131411 -0.102851E-06  0.890E-04    3.66      15.7  T
   6    -95.7131411 -0.262777E-08  0.338E-04    3.66      41.4  T
     SCC iter.                  ...        0 min,  0.022 sec
     gradient                   ...        0 min,  0.007 sec
 * total energy  :   -94.6715228 Eh     change       -0.1357724E-06 Eh
   gradient norm :     0.0032318 Eh/α   predicted    -0.6973820E-05 (5036.41%)
   displ. norm   :     0.1222186 α      lambda       -0.1234089E-04
   maximum displ.:     0.0786186 α      in ANC's #2, #1, #4, ...

........................................................................
.............................. CYCLE   40 ..............................
........................................................................

 iter      E             dE          RMSdq      gap      omega  full diag
   1    -95.7140249 -0.957140E+02  0.227E-02    3.67       0.0  T
   2    -95.7140251 -0.202109E-06  0.134E-02    3.67       1.0  T
   3    -95.7140249  0.227698E-06  0.252E-03    3.67       5.6  T
   4    -95.7140252 -0.276225E-06  0.816E-04    3.67      17.2  T
   5    -95.7140252 -0.176443E-07  0.351E-04    3.67      39.9  T
     SCC iter.                  ...        0 min,  0.019 sec
     gradient                   ...        0 min,  0.007 sec
 * total energy  :   -94.6715306 Eh     change       -0.7752935E-05 Eh
   gradient norm :     0.0010902 Eh/α   predicted    -0.6264471E-05 ( -19.20%)
   displ. norm   :     0.0365725 α      lambda       -0.3201966E-05
   maximum displ.:     0.0204528 α      in ANC's #2, #1, #10, ...

........................................................................
.............................. CYCLE   41 ..............................
........................................................................

 iter      E             dE          RMSdq      gap      omega  full diag
   1    -95.7143572 -0.957144E+02  0.736E-03    3.67       0.0  T
   2    -95.7143573 -0.706870E-07  0.437E-03    3.67       3.2  T
   3    -95.7143572  0.544920E-07  0.130E-03    3.67      10.8  T
   4    -95.7143573 -0.629549E-07  0.446E-04    3.67      31.4  T
   5    -95.7143573 -0.668678E-08  0.141E-04    3.67      99.0  T
     SCC iter.                  ...        0 min,  0.016 sec
     gradient                   ...        0 min,  0.008 sec
 * total energy  :   -94.6715334 Eh     change       -0.2842302E-05 Eh
   gradient norm :     0.0005957 Eh/α   predicted    -0.1604299E-05 ( -43.56%)
   displ. norm   :     0.0296280 α      lambda       -0.1713167E-05
   maximum displ.:     0.0157245 α      in ANC's #4, #3, #5, ...

   *** GEOMETRY OPTIMIZATION CONVERGED AFTER 41 ITERATIONS ***

------------------------------------------------------------------------
 total energy gain   :        -0.0606674 Eh      -38.0694 kcal/mol
 total RMSD          :         0.6165877 a0        0.3263 Å
 total power (kW/mol):        -3.8849307 (step) -106.1981 (real)
------------------------------------------------------------------------

 ANCopt (total)                0 d,  0 h,  0 min,  1.500 sec
 optimizer setup                ...        0 min,  0.000 sec (  0.010%)
 model hessian                  ...        0 min,  0.037 sec (  2.452%)
 ANC generation                 ...        0 min,  0.016 sec (  1.059%)
 coordinate transformation      ...        0 min,  0.001 sec (  0.086%)
 single point calculation       ...        0 min,  1.387 sec ( 92.444%)
 optimization log               ...        0 min,  0.031 sec (  2.050%)
 hessian update                 ...        0 min,  0.016 sec (  1.062%)
 rational function              ...        0 min,  0.010 sec (  0.637%)

================
 final structure:
================
51
 xtb: 6.7.1 (edcfbbe)
C           -4.41607823957402        6.15034109081313        1.23782368881359
C           -3.22772402498816        6.34655817067867        0.68541434908444
C           -2.12792447844048        5.36113966754117        0.71828693030416
O           -1.08438244320823        5.49657814544269        0.13188483732132
O           -2.41344538865538        4.28801451509825        1.48086548529343
C           -1.41115627633376        3.29079838695917        1.57926802827193
C           -1.30388263173261        2.47922166234218        0.28060355821521
N           -0.63073087257011        1.20677650968990        0.50258279352502
C            0.74713493621219        1.23230848756127        0.60638506739961
O            1.38157859698109        2.25125159193909        0.55108900617631
N            1.34315956683201       -0.00452154876154        0.78376172543409
C            2.79744434029427       -0.04358905649223        0.83519050027327
C            3.38423769006105       -0.17914952581095       -0.56820136934747
O            4.79777533037324       -0.18683523699518       -0.44749325228700
C            5.47746812658512       -0.28594816110634       -1.60450909426569
O            4.93431745213620       -0.37057036456022       -2.67741844158367
C            6.94208861674631       -0.27986986265913       -1.41446246197767
C            7.53557246645321       -0.18160700063534       -0.23400337242243
C            0.66798581008876       -1.20714585510935        0.85487109415366
O            1.23315328678835       -2.26221689806917        0.97788963851555
N           -0.70975978162644       -1.10343235249233        0.80398459914401
C           -1.47826092456058       -2.33684509802711        0.89122159781625
C           -1.69950594973608       -2.94276265500831       -0.49285267985853
O           -2.45086817782553       -4.13510471141635       -0.32633854354001
C           -2.82644698070040       -4.75675805863381       -1.46000496278768
O           -2.55599819654736       -4.34599487045926       -2.55929694293429
C           -3.59654894682326       -5.97917702336270       -1.15449501324417
C           -4.06517851906168       -6.75282318670499       -2.12282714837030
C           -1.41216110124798        0.07110293193137        0.60443422387781
O           -2.61283892020664        0.09775544938084        0.53031991008750
H           -4.64515258030932        5.23812852948496        1.76218773280572
H           -5.19428653042135        6.89277927874978        1.18082644663531
H           -2.98265459549648        7.25122426622363        0.14780837432030
H           -1.72796841788264        2.64717902334028        2.40322512455565
H           -0.44440449502649        3.75372996366358        1.80373598517565
H           -0.73866842900813        3.04940919179470       -0.45937449370642
H           -2.30656844557861        2.25651390637772       -0.09008369824525
H            3.09312850697797       -0.89995185379409        1.44306239373428
H            3.14590655961914        0.88561937609043        1.28888290987792
H            3.05109065508302       -1.11113893088435       -1.04053709698740
H            3.07550291735160        0.66283314794636       -1.19934884118282
H            7.49881159708510       -0.36210991479542       -2.33680743374277
H            6.96249179758402       -0.09971918860830        0.67393762424170
H            8.60841004637350       -0.17970334079690       -0.13982275165398
H           -2.44205987105590       -2.10506517809506        1.34712786653326
H           -0.92200096926187       -3.03954928632358        1.51349754903465
H           -0.74094644090265       -3.17851540319153       -0.97033930206723
H           -2.25166120130651       -2.24935931904025       -1.13831281588822
H           -3.74211502352426       -6.18672821360518       -0.10558245512032
H           -4.62804687525956       -7.64832272085250       -1.92367565230804
H           -3.88783457075658       -6.49474747676624       -3.15438321710373
 
 Bond Distances (Angstroems)
 ---------------------------
C1-C2=1.3251         C1-H31=1.0768        C1-H32=1.0771        C2-C1=1.3251         C2-C3=1.4771         C2-H33=1.0805        
C3-C2=1.4771         C3-O4=1.2047         C3-O5=1.3471         O4-C3=1.2047         O5-C3=1.3471         O5-C6=1.4173         
C6-O5=1.4173         C6-C7=1.5352         C6-H34=1.0925        C6-H35=1.0951        C7-C6=1.5352         C7-N8=1.4565         
C7-H36=1.0919        C7-H37=1.0920        N8-C7=1.4565         N8-C9=1.3820         N8-C29=1.3823        C9-N8=1.3820         
C9-O10=1.2016        C9-N11=1.3844        O10-C9=1.2016        N11-C9=1.3844        N11-C12=1.4557       N11-C19=1.3810       
C12-N11=1.4557       C12-C13=1.5272       C12-H38=1.0910       C12-H39=1.0912       C13-C12=1.5272       C13-O14=1.4187       
C13-H40=1.0967       C13-H41=1.0966       O14-C13=1.4187       O14-C15=1.3455       C15-O14=1.3455       C15-O16=1.2055       
C15-C17=1.4769       O16-C15=1.2055       C17-C15=1.4769       C17-C18=1.3249       C17-H42=1.0805       C18-C17=1.3249       
C18-H43=1.0768       C18-H44=1.0770       C19-N11=1.3810       C19-O20=1.2032       C19-N21=1.3826       O20-C19=1.2032       
N21-C19=1.3826       N21-C22=1.4559       N21-C29=1.3830       C22-N21=1.4559       C22-C23=1.5270       C22-H45=1.0911       
C22-H46=1.0911       C23-C22=1.5270       C23-O24=1.4191       C23-H47=1.0965       C23-H48=1.0965       O24-C23=1.4191       
O24-C25=1.3464       C25-O24=1.3464       C25-O26=1.2043       C25-C27=1.4767       O26-C25=1.2043       C27-C25=1.4767       
C27-C28=1.3251       C27-H49=1.0791       C28-C27=1.3251       C28-H50=1.0763       C28-H51=1.0780       C29-N8=1.3823        
C29-N21=1.3830       C29-O30=1.2033       O30-C29=1.2033       H31-C1=1.0768        H32-C1=1.0771        H33-C2=1.0805        
H34-C6=1.0925        H35-C6=1.0951        H36-C7=1.0919        H37-C7=1.0920        H38-C12=1.0910       H39-C12=1.0912       
H40-C13=1.0967       H41-C13=1.0966       H42-C17=1.0805       H43-C18=1.0768       H44-C18=1.0770       H45-C22=1.0911       
H46-C22=1.0911       H47-C23=1.0965       H48-C23=1.0965       H49-C27=1.0791       H50-C28=1.0763       H51-C28=1.0780       
 C  H  Rav=1.0869 sigma=0.0080  Rmin=1.0763  Rmax=1.0967    21
 C  C  Rav=1.4439 sigma=0.0868  Rmin=1.3249  Rmax=1.5352     9
 N  C  Rav=1.4070 sigma=0.0347  Rmin=1.3810  Rmax=1.4565     9
 O  C  Rav=1.2931 sigma=0.0929  Rmin=1.2016  Rmax=1.4191    12
 
 selected bond angles (degree)
 --------------------
H31-C1-C2=121.28               H32-C1-C2=121.59               H32-C1-H31=117.13              C3-C2-C1=124.03                
H33-C2-C1=122.33               H33-C2-C3=113.63               O4-C3-C2=124.00                O5-C3-C2=112.72                
O5-C3-O4=123.28                C6-O5-C3=116.74                C7-C6-O5=111.26                H34-C6-O5=105.18               
H34-C6-C7=110.29               H35-C6-O5=109.94               H35-C6-C7=109.58               H35-C6-H34=110.51              
N8-C7-C6=111.42                H36-C7-C6=109.48               H36-C7-N8=108.68               H37-C7-C6=109.32               
H37-C7-N8=107.33               H37-C7-H36=110.60              C9-N8-C7=117.13                C29-N8-C7=117.89               
C29-N8-C9=124.98               O10-C9-N8=122.59               N11-C9-N8=114.98               N11-C9-O10=122.42              
 
 selected dihedral angles (degree)
 ---------------------------------
C3-C2-C1-H31=  0.54           C3-C2-C1-H32=180.68           H33-C2-C1-H31=179.43          H33-C2-C1-H32=359.56          
O4-C3-C2-C1=174.18            O4-C3-C2-H33=355.20           O5-C3-C2-C1=354.02            O5-C3-C2-H33=175.04           
C6-O5-C3-C2=180.39            C6-O5-C3-O4=  0.23            C7-C6-O5-C3=286.45            H34-C6-O5-C3=167.03           
H35-C6-O5-C3= 48.04           N8-C7-C6-O5=199.13            N8-C7-C6-H34=315.45           N8-C7-C6-H35= 77.33           
H36-C7-C6-O5= 78.89           H36-C7-C6-H34=195.21          H36-C7-C6-H35=317.09          H37-C7-C6-O5=317.60           
H37-C7-C6-H34= 73.92          H37-C7-C6-H35=195.80          C9-N8-C7-C6=281.86            C9-N8-C7-H36= 42.57           
C9-N8-C7-H37=162.20           C29-N8-C7-C6=101.33           C29-N8-C7-H36=222.04          C29-N8-C7-H37=341.68          
O10-C9-N8-C7=  1.74           O10-C9-N8-C29=182.31          N11-C9-N8-C7=181.53           N11-C9-N8-C29=  2.09          
           -------------------------------------------------
          |                Final Singlepoint                |
           -------------------------------------------------

          ...................................................
          :                      SETUP                      :
          :.................................................:
          :  # basis functions                 141          :
          :  # atomic orbitals                 141          :
          :  # shells                           81          :
          :  # electrons                       162          :
          :  max. iterations                   250          :
          :  Hamiltonian                  GFN2-xTB          :
          :  restarted?                      false          :
          :  GBSA solvation                  false          :
          :  PC potential                    false          :
          :  electronic temp.          300.0000000     K    :
          :  accuracy                    1.0000000          :
          :  -> integral cutoff          0.2500000E+02      :
          :  -> integral neglect         0.1000000E-07      :
          :  -> SCF convergence          0.1000000E-05 Eh   :
          :  -> wf. convergence          0.1000000E-03 e    :
          :  Broyden damping             0.4000000          :
          :  net charge                          0          :
          :  unpaired electrons                  0          :
          ...................................................

 iter      E             dE          RMSdq      gap      omega  full diag
   1    -95.7143573 -0.957144E+02  0.766E-05    3.67       0.0  T
   2    -95.7143573 -0.222542E-10  0.479E-05    3.67     292.2  T
   3    -95.7143573  0.532907E-11  0.332E-05    3.67     421.7  T

   *** convergence criteria satisfied after 3 iterations ***

         #    Occupation            Energy/Eh            Energy/eV
      -------------------------------------------------------------
         1        2.0000           -0.7615067             -20.7217
       ...           ...                  ...                  ...
        75        2.0000           -0.4482669             -12.1980
        76        2.0000           -0.4453994             -12.1199
        77        2.0000           -0.4448635             -12.1054
        78        2.0000           -0.4443818             -12.0922
        79        2.0000           -0.4234967             -11.5239
        80        2.0000           -0.4232696             -11.5178
        81        2.0000           -0.4216246             -11.4730 (HOMO)
        82                         -0.2866011              -7.7988 (LUMO)
        83                         -0.2838841              -7.7249
        84                         -0.2830452              -7.7021
        85                         -0.2690265              -7.3206
        86                         -0.2685153              -7.3067
       ...                                ...                  ...
       141                          0.7017073              19.0944
      -------------------------------------------------------------
                  HL-Gap            0.1350235 Eh            3.6742 eV
             Fermi-level           -0.3541129 Eh           -9.6359 eV

 SCC (total)                   0 d,  0 h,  0 min,  0.022 sec
 SCC setup                      ...        0 min,  0.001 sec (  4.602%)
 Dispersion                     ...        0 min,  0.000 sec (  1.286%)
 classical contributions        ...        0 min,  0.000 sec (  0.740%)
 integral evaluation            ...        0 min,  0.002 sec ( 10.828%)
 iterations                     ...        0 min,  0.010 sec ( 43.988%)
 molecular gradient             ...        0 min,  0.008 sec ( 33.839%)
 printout                       ...        0 min,  0.001 sec (  4.593%)

         :::::::::::::::::::::::::::::::::::::::::::::::::::::
         ::                     SUMMARY                     ::
         :::::::::::::::::::::::::::::::::::::::::::::::::::::
         :: total energy             -94.671533442744 Eh    ::
         :: gradient norm              0.000595948074 Eh/a0 ::
         :: HOMO-LUMO gap              3.674175300207 eV    ::
         ::.................................................::
         :: SCC energy               -95.714684134138 Eh    ::
         :: -> isotropic ES            0.226908711048 Eh    ::
         :: -> anisotropic ES          0.001679988586 Eh    ::
         :: -> anisotropic XC          0.014181305066 Eh    ::
         :: -> dispersion             -0.048501118441 Eh    ::
         :: repulsion energy           1.043150691394 Eh    ::
         :: add. restraining           0.000000000000 Eh    ::
         :: total charge              -0.000000000000 e     ::
         :::::::::::::::::::::::::::::::::::::::::::::::::::::

           -------------------------------------------------
          |                Property Printout                |
           -------------------------------------------------

    * Orbital Energies and Occupations

         #    Occupation            Energy/Eh            Energy/eV
      -------------------------------------------------------------
         1        2.0000           -0.7615067             -20.7217
       ...           ...                  ...                  ...
        69        2.0000           -0.4669428             -12.7062
        70        2.0000           -0.4602091             -12.5229
        71        2.0000           -0.4531614             -12.3311
        72        2.0000           -0.4528589             -12.3229
        73        2.0000           -0.4518207             -12.2947
        74        2.0000           -0.4491906             -12.2231
        75        2.0000           -0.4482669             -12.1980
        76        2.0000           -0.4453994             -12.1199
        77        2.0000           -0.4448635             -12.1054
        78        2.0000           -0.4443818             -12.0922
        79        2.0000           -0.4234967             -11.5239
        80        2.0000           -0.4232696             -11.5178
        81        2.0000           -0.4216246             -11.4730 (HOMO)
        82                         -0.2866011              -7.7988 (LUMO)
        83                         -0.2838841              -7.7249
        84                         -0.2830452              -7.7021
        85                         -0.2690265              -7.3206
        86                         -0.2685153              -7.3067
        87                         -0.1807585              -4.9187
        88                         -0.1745389              -4.7494
        89                         -0.1725598              -4.6956
        90                         -0.1714652              -4.6658
        91                         -0.0948359              -2.5806
        92                         -0.0419983              -1.1428
       ...                                ...                  ...
       141                          0.7017073              19.0944
      -------------------------------------------------------------
                  HL-Gap            0.1350235 Eh            3.6742 eV
             Fermi-level           -0.3541129 Eh           -9.6359 eV

     #   Z          covCN         q      C6AA      α(0)
     1   6 C        2.838    -0.061    29.512     8.903
     2   6 C        2.887    -0.057    29.425     8.893
     3   6 C        2.723     0.354    20.994     7.501
     4   8 O        0.857    -0.400    21.677     6.242
     5   8 O        1.705    -0.260    18.304     5.776
     6   6 C        3.703     0.074    19.490     6.312
     7   6 C        3.753    -0.004    20.700     6.488
     8   7 N        2.746    -0.124    23.694     7.230
     9   6 C        2.715     0.326    21.455     7.582
    10   8 O        0.859    -0.394    21.562     6.226
    11   7 N        2.747    -0.124    23.698     7.230
    12   6 C        3.755    -0.004    20.700     6.487
    13   6 C        3.710     0.080    19.380     6.292
    14   8 O        1.705    -0.260    18.301     5.776
    15   6 C        2.729     0.356    20.956     7.494
    16   8 O        0.857    -0.403    21.743     6.252
    17   6 C        2.887    -0.056    29.400     8.889
    18   6 C        2.838    -0.061    29.517     8.903
    19   6 C        2.714     0.327    21.442     7.580
    20   8 O        0.859    -0.403    21.732     6.250
    21   7 N        2.747    -0.124    23.700     7.230
    22   6 C        3.755    -0.003    20.686     6.485
    23   6 C        3.707     0.080    19.388     6.294
    24   8 O        1.706    -0.263    18.351     5.784
    25   6 C        2.730     0.356    20.954     7.494
    26   8 O        0.856    -0.403    21.740     6.251
    27   6 C        2.887    -0.058    29.433     8.894
    28   6 C        2.842    -0.058    29.426     8.890
    29   6 C        2.713     0.327    21.436     7.579
    30   8 O        0.859    -0.402    21.718     6.248
    31   1 H        0.926     0.076     2.026     2.226
    32   1 H        0.926     0.068     2.113     2.273
    33   1 H        0.926     0.076     2.020     2.223
    34   1 H        0.924     0.065     2.144     2.290
    35   1 H        0.924     0.077     2.012     2.218
    36   1 H        0.924     0.099     1.790     2.092
    37   1 H        0.924     0.095     1.827     2.114
    38   1 H        0.924     0.097     1.816     2.108
    39   1 H        0.924     0.098     1.806     2.101
    40   1 H        0.924     0.065     2.142     2.289
    41   1 H        0.924     0.067     2.124     2.279
    42   1 H        0.926     0.076     2.019     2.222
    43   1 H        0.926     0.074     2.046     2.237
    44   1 H        0.926     0.067     2.117     2.275
    45   1 H        0.924     0.097     1.816     2.107
    46   1 H        0.924     0.097     1.811     2.105
    47   1 H        0.924     0.064     2.151     2.294
    48   1 H        0.924     0.067     2.123     2.278
    49   1 H        0.926     0.068     2.107     2.270
    50   1 H        0.926     0.068     2.112     2.272
    51   1 H        0.926     0.082     1.956     2.187

 Mol. C6AA /au·bohr⁶  :      29464.349702
 Mol. C8AA /au·bohr⁸  :     674054.413104
 Mol. α(0) /au        :        259.916735


Wiberg/Mayer (AO) data.
largest (>0.10) Wiberg bond orders for each atom

 ---------------------------------------------------------------------------
     #   Z sym  total        # sym  WBO       # sym  WBO       # sym  WBO
 ---------------------------------------------------------------------------
     1   6 C    3.981 --     2 C    1.930    32 H    0.974    31 H    0.971
     2   6 C    3.987 --     1 C    1.930     3 C    1.017    33 H    0.962
     3   6 C    3.918 --     4 O    1.739     5 O    1.100     2 C    1.017
     4   8 O    2.045 --     3 C    1.739     5 O    0.167
     5   8 O    2.299 --     3 C    1.100     6 C    0.961     4 O    0.167
     6   6 C    3.935 --     7 C    0.984    34 H    0.971    35 H    0.965
                             5 O    0.961
     7   6 C    3.938 --     6 C    0.984     8 N    0.963    37 H    0.963
                            36 H    0.962
     8   7 N    3.534 --    29 C    1.102     9 C    1.099     7 C    0.963
                            30 O    0.131    10 O    0.130
     9   6 C    3.961 --    10 O    1.686     8 N    1.099    11 N    1.094
    10   8 O    2.043 --     9 C    1.686    11 N    0.130     8 N    0.130
    11   7 N    3.532 --    19 C    1.103     9 C    1.094    12 C    0.966
                            20 O    0.131    10 O    0.130
    12   6 C    3.941 --    13 C    0.993    11 N    0.966    38 H    0.963
                            39 H    0.963
    13   6 C    3.935 --    12 C    0.993    40 H    0.966    41 H    0.965
                            14 O    0.957
    14   8 O    2.296 --    15 C    1.103    13 C    0.957    16 O    0.169
    15   6 C    3.916 --    16 O    1.736    14 O    1.103    17 C    1.016
    16   8 O    2.040 --    15 C    1.736    14 O    0.169
    17   6 C    3.987 --    18 C    1.931    15 C    1.016    42 H    0.962
    18   6 C    3.982 --    17 C    1.931    44 H    0.974    43 H    0.971
    19   6 C    3.961 --    20 O    1.677    11 N    1.103    21 N    1.099
    20   8 O    2.034 --    19 C    1.677    11 N    0.131    21 N    0.130
    21   7 N    3.531 --    19 C    1.099    29 C    1.098    22 C    0.966
                            20 O    0.130    30 O    0.129
    22   6 C    3.941 --    23 C    0.993    21 N    0.966    45 H    0.963
                            46 H    0.963
    23   6 C    3.935 --    22 C    0.993    47 H    0.966    48 H    0.965
                            24 O    0.957
    24   8 O    2.296 --    25 C    1.101    23 C    0.957    26 O    0.170
    25   6 C    3.916 --    26 O    1.738    24 O    1.101    27 C    1.014
    26   8 O    2.043 --    25 C    1.738    24 O    0.170
    27   6 C    3.987 --    28 C    1.928    25 C    1.014    49 H    0.964
    28   6 C    3.979 --    27 C    1.928    50 H    0.975    51 H    0.970
    29   6 C    3.961 --    30 O    1.677     8 N    1.102    21 N    1.098
    30   8 O    2.036 --    29 C    1.677     8 N    0.131    21 N    0.129
    31   1 H    0.994 --     1 C    0.971
    32   1 H    0.995 --     1 C    0.974
    33   1 H    0.994 --     2 C    0.962
    34   1 H    0.996 --     6 C    0.971
    35   1 H    0.994 --     6 C    0.965
    36   1 H    0.989 --     7 C    0.962
    37   1 H    0.990 --     7 C    0.963
    38   1 H    0.990 --    12 C    0.963
    39   1 H    0.990 --    12 C    0.963
    40   1 H    0.996 --    13 C    0.966
    41   1 H    0.996 --    13 C    0.965
    42   1 H    0.994 --    17 C    0.962
    43   1 H    0.995 --    18 C    0.971
    44   1 H    0.995 --    18 C    0.974
    45   1 H    0.990 --    22 C    0.963
    46   1 H    0.990 --    22 C    0.963
    47   1 H    0.996 --    23 C    0.966
    48   1 H    0.996 --    23 C    0.965
    49   1 H    0.995 --    27 C    0.964
    50   1 H    0.994 --    28 C    0.975
    51   1 H    0.993 --    28 C    0.970
 ---------------------------------------------------------------------------

Topologies differ in total number of bonds
Writing topology from bond orders to xtbtopo.mol

molecular dipole:
                 x           y           z       tot (Debye)
 q only:       -0.634      -0.319       1.907
   full:       -0.672      -0.346       2.106       5.688
molecular quadrupole (traceless):
                xx          xy          yy          xz          yz          zz
 q only:       21.755      -4.646       0.435       6.015       1.226     -22.190
  q+dip:       20.717      -5.167      -2.169       5.495      -0.020     -18.549
   full:       19.911      -6.005      -1.443       6.032       1.110     -18.469

           -------------------------------------------------
          |                Geometry Summary                 |
           -------------------------------------------------

      molecular mass/u    :      423.3747559
   center of mass at/Å    :        0.0432743       0.0321567      -0.0383215
  moments of inertia/u·Å² :        0.4861784E+04   0.5419296E+04   0.9562834E+04
rotational constants/cm⁻¹ :        0.3467376E-02   0.3110668E-02   0.1762828E-02

 * 48 selected distances

     #   Z          #   Z                                           value/Å
     1   6 C        2   6 C                                       1.3250824
     3   6 C        4   8 O                                       1.2046540
     3   6 C        5   8 O                                       1.3470880
     5   8 O        6   6 C                                       1.4172886
     6   6 C        7   6 C                                       1.5351528 (max)
     7   6 C        8   7 N                                       1.4565456
     8   7 N        9   6 C                                       1.3820063
     9   6 C       10   8 O                                       1.2015913
     9   6 C       11   7 N                                       1.3843615
    11   7 N       12   6 C                                       1.4557183
    12   6 C       13   6 C                                       1.5271582
    13   6 C       14   8 O                                       1.4187031
    14   8 O       15   6 C                                       1.3455451
    15   6 C       16   8 O                                       1.2055324
    17   6 C       18   6 C                                       1.3249010
    11   7 N       19   6 C                                       1.3810220
    19   6 C       20   8 O                                       1.2032136
    19   6 C       21   7 N                                       1.3825806
    21   7 N       22   6 C                                       1.4558543
    22   6 C       23   6 C                                       1.5270061
    23   6 C       24   8 O                                       1.4191378
    24   8 O       25   6 C                                       1.3463700
    25   6 C       26   8 O                                       1.2042890
    27   6 C       28   6 C                                       1.3250696
     8   7 N       29   6 C                                       1.3823031
    21   7 N       29   6 C                                       1.3830117
    29   6 C       30   8 O                                       1.2032584
     1   6 C       31   1 H                                       1.0768308
     1   6 C       32   1 H                                       1.0770662
     2   6 C       33   1 H                                       1.0805092
     6   6 C       34   1 H                                       1.0924840
     6   6 C       35   1 H                                       1.0951259
     7   6 C       36   1 H                                       1.0918556
     7   6 C       37   1 H                                       1.0919647
    12   6 C       38   1 H                                       1.0910063
    12   6 C       39   1 H                                       1.0911880
    13   6 C       40   1 H                                       1.0966734
    13   6 C       41   1 H                                       1.0966309
    17   6 C       42   1 H                                       1.0804741
    18   6 C       43   1 H                                       1.0767935
    18   6 C       44   1 H                                       1.0769653
    22   6 C       45   1 H                                       1.0910917
    22   6 C       46   1 H                                       1.0910756
    23   6 C       47   1 H                                       1.0965443
    23   6 C       48   1 H                                       1.0964956
    27   6 C       49   1 H                                       1.0791129
    28   6 C       50   1 H                                       1.0762907 (min)
    28   6 C       51   1 H                                       1.0780362

 * 4 distinct bonds (by element types)

   Z      Z             #   av. dist./Å        max./Å        min./Å
   1 H    6 C          21     1.0868674     1.0966734     1.0762907
   6 C    6 C           6     1.4273950     1.5351528     1.3249010
   6 C    7 N           9     1.4070448     1.4565456     1.3810220
   6 C    8 O          12     1.2930560     1.4191378     1.2015913


optimized geometry written to: xtbopt.xyz


           -------------------------------------------------
          | TOTAL ENERGY              -94.671533442744 Eh   |
          | GRADIENT NORM               0.000595948074 Eh/α |
          | HOMO-LUMO GAP               3.674175300207 eV   |
           -------------------------------------------------

------------------------------------------------------------------------
 * finished run on 2025/12/01 at 14:20:00.312     
------------------------------------------------------------------------
 total:
 * wall-time:     0 d,  0 h,  0 min,  1.689 sec
 *  cpu-time:     0 d,  0 h,  0 min, 38.531 sec
 * ratio c/w:    22.816 speedup
 SCF:
 * wall-time:     0 d,  0 h,  0 min,  0.154 sec
 *  cpu-time:     0 d,  0 h,  0 min,  3.556 sec
 * ratio c/w:    23.149 speedup
 ANC optimizer:
 * wall-time:     0 d,  0 h,  0 min,  1.523 sec
 *  cpu-time:     0 d,  0 h,  0 min, 34.751 sec
 * ratio c/w:    22.811 speedup

normal termination of xtb
