      -----------------------------------------------------------      
     |                   =====================                   |     
     |                           x T B                           |     
     |                   =====================                   |     
     |                         S. Grimme                         |     
     |          Mulliken Center for Theoretical Chemistry        |     
     |                    University of Bonn                     |     
      -----------------------------------------------------------      

   * xtb version 6.7.1 (edcfbbe) compiled by 'albert@albert-system' on 2024-07-22

   xtb is free software: you can redistribute it and/or modify it under
   the terms of the GNU Lesser General Public License as published by
   the Free Software Foundation, either version 3 of the License, or
   (at your option) any later version.
   
   xtb is distributed in the hope that it will be useful,
   but WITHOUT ANY WARRANTY; without even the implied warranty of
   MERCHANTABILITY or FITNESS FOR A PARTICULAR PURPOSE.  See the
   GNU Lesser General Public License for more details.
   
   Cite this work as:
   * C. Bannwarth, E. Caldeweyher, S. Ehlert, A. Hansen, P. Pracht,
     J. Seibert, S. Spicher, S. Grimme, WIREs Comput. Mol. Sci., 2020, 11,
     e01493. DOI: 10.1002/wcms.1493
   
   for GFN2-xTB:
   * C. Bannwarth, S. Ehlert and S. Grimme., J. Chem. Theory Comput., 2019,
     15, 1652-1671. DOI: 10.1021/acs.jctc.8b01176
   for GFN1-xTB:
   * S. Grimme, C. Bannwarth, P. Shushkov, J. Chem. Theory Comput., 2017,
     13, 1989-2009. DOI: 10.1021/acs.jctc.7b00118
   for GFN0-xTB:
   * P. Pracht, E. Caldeweyher, S. Ehlert, S. Grimme, ChemRxiv, 2019, preprint.
     DOI: 10.26434/chemrxiv.8326202.v1
   for GFN-FF:
   * S. Spicher and S. Grimme, Angew. Chem. Int. Ed., 2020, 59, 15665-15673.
     DOI: 10.1002/anie.202004239
   
   for ALPB and GBSA implicit solvation:
   * S. Ehlert, M. Stahn, S. Spicher, S. Grimme, J. Chem. Theory Comput.,
     2021, 17, 4250-4261. DOI: 10.1021/acs.jctc.1c00471
   
   for ddCOSMO and CPCM-X implicit solvation:
   * M. Stahn, S. Ehlert, S. Grimme, J. Phys. Chem. A,
     2023, XX, XXXX-XXXX. DOI: 10.1021/acs.jpca.3c04382
   
   for DFT-D4:
   * E. Caldeweyher, C. Bannwarth and S. Grimme, J. Chem. Phys., 2017,
     147, 034112. DOI: 10.1063/1.4993215
   * E. Caldeweyher, S. Ehlert, A. Hansen, H. Neugebauer, S. Spicher,
     C. Bannwarth and S. Grimme, J. Chem. Phys., 2019, 150, 154122.
     DOI: 10.1063/1.5090222
   * E. Caldeweyher, J.-M. Mewes, S. Ehlert and S. Grimme, Phys. Chem. Chem. Phys.
     2020, 22, 8499-8512. DOI: 10.1039/D0CP00502A
   
   for sTDA-xTB:
   * S. Grimme and C. Bannwarth, J. Chem. Phys., 2016, 145, 054103.
     DOI: 10.1063/1.4959605
   
   in the mass-spec context:
   * V. Asgeirsson, C. Bauer and S. Grimme, Chem. Sci., 2017, 8, 4879.
     DOI: 10.1039/c7sc00601b
   * J. Koopman and S. Grimme, ACS Omega 2019, 4, 12, 15120-15133.
     DOI: 10.1021/acsomega.9b02011
   
   for metadynamics refer to:
   * S. Grimme, J. Chem. Theory Comput., 2019, 155, 2847-2862
     DOI: 10.1021/acs.jctc.9b00143
   
   for SPH calculations refer to:
   * S. Spicher and S. Grimme, J. Chem. Theory Comput., 2021, 17, 1701-1714
     DOI: 10.1021/acs.jctc.0c01306
   
   for ONIOM refer to:
   * C. Plett, A. Katbashev, S. Ehlert, S. Grimme, M. Bursch,
     Phys. Chem. Chem. Phys., 2023, 25, 17860-17868. DOI: 10.1039/D3CP02178E
   
   for DIPRO refer to:
   * J. Kohn, N. Gildemeister, S. Grimme, D. Fazzi, A. Hansen,
     J. Chem. Phys., 2023, just accepted.
   
   for PTB refer to:
   * S. Grimme, M. Mueller, A. Hansen, J. Chem. Phys., 2023, 158, 124111.
     DOI: 10.1063/5.0137838
   
   with help from (in alphabetical order)
   P. Atkinson, C. Bannwarth, F. Bohle, G. Brandenburg, E. Caldeweyher
   M. Checinski, S. Dohm, S. Ehlert, S. Ehrlich, I. Gerasimov, C. Hölzer
   A. Katbashev, J. Kohn, J. Koopman, C. Lavigne, S. Lehtola, F. März, M. Müller,
   F. Musil, H. Neugebauer, J. Pisarek, C. Plett, P. Pracht, F. Pultar,
   J. Seibert, P. Shushkov, S. Spicher, M. Stahn, M. Steiner, T. Strunk,
   J. Stückrath, T. Rose, and J. Unsleber
   
 * started run on 2025/12/01 at 14:20:01.846     
   ID    Z sym.   atoms
    1    6 C      1-3, 5-7, 9, 11, 12, 14-16, 18, 20, 21
    2    8 O      4, 8, 10, 13, 17, 19
    3    1 H      22-45

           -------------------------------------------------
          |                Calculation Setup                |
           -------------------------------------------------

          program call               : xtb pipeline_data/3_conformer_xyz/acrylates/rdkit/ZDQNWDNMNKSMHI-FRRDWIJNSA-N_conf41.xyz --opt --gfn 2-xTB --iterations 250
          coordinate file            : pipeline_data/3_conformer_xyz/acrylates/rdkit/ZDQNWDNMNKSMHI-FRRDWIJNSA-N_conf41.xyz
          omp threads                :                    24

########################################################################
[WARNING] Please study the warnings concerning your input carefully
-1- readin_getIntValue: could not parse '2-xTB'
########################################################################

           -------------------------------------------------
          |                 G F N 2 - x T B                 |
           -------------------------------------------------

        Reference                      10.1021/acs.jctc.8b01176
      * Hamiltonian:
        H0-scaling (s, p, d)           1.850000    2.230000    2.230000
        zeta-weighting                 0.500000
      * Dispersion:
        s8                             2.700000
        a1                             0.520000
        a2                             5.000000
        s9                             5.000000
      * Repulsion:
        kExp                           1.500000    1.000000
        rExp                           1.000000
      * Coulomb:
        alpha                          2.000000
        third order                    shell-resolved
        anisotropic                    true
        a3                             3.000000
        a5                             4.000000
        cn-shift                       1.200000
        cn-exp                         4.000000
        max-rad                        5.000000


          ...................................................
          :                      SETUP                      :
          :.................................................:
          :  # basis functions                 108          :
          :  # atomic orbitals                 108          :
          :  # shells                           66          :
          :  # electrons                       120          :
          :  max. iterations                   250          :
          :  Hamiltonian                  GFN2-xTB          :
          :  restarted?                      false          :
          :  GBSA solvation                  false          :
          :  PC potential                    false          :
          :  electronic temp.          300.0000000     K    :
          :  accuracy                    1.0000000          :
          :  -> integral cutoff          0.2500000E+02      :
          :  -> integral neglect         0.1000000E-07      :
          :  -> SCF convergence          0.1000000E-05 Eh   :
          :  -> wf. convergence          0.1000000E-03 e    :
          :  Broyden damping             0.4000000          :
          :  net charge                          0          :
          :  unpaired electrons                  0          :
          ...................................................

 iter      E             dE          RMSdq      gap      omega  full diag
   1    -69.2171572 -0.692172E+02  0.459E+00    3.65       0.0  T
   2    -69.3672344 -0.150077E+00  0.243E+00    2.95       1.0  T
   3    -69.3675282 -0.293731E-03  0.140E+00    2.97       1.0  T
   4    -69.3818548 -0.143266E-01  0.390E-01    2.68       1.0  T
   5    -69.3856399 -0.378518E-02  0.175E-01    2.76       1.0  T
   6    -69.3865838 -0.943846E-03  0.614E-02    2.79       1.0  T
   7    -69.3865994 -0.156174E-04  0.201E-02    2.80       1.0  T
   8    -69.3866018 -0.237541E-05  0.645E-03    2.80       2.3  T
   9    -69.3866020 -0.233606E-06  0.246E-03    2.80       6.1  T
  10    -69.3866021 -0.629962E-07  0.133E-03    2.80      11.2  T
  11    -69.3866021 -0.212331E-07  0.728E-04    2.80      20.5  T
  12    -69.3866021 -0.850616E-08  0.273E-04    2.80      54.7  T

   *** convergence criteria satisfied after 12 iterations ***

         #    Occupation            Energy/Eh            Energy/eV
      -------------------------------------------------------------
         1        2.0000           -0.7339219             -19.9710
       ...           ...                  ...                  ...
        54        2.0000           -0.4414174             -12.0116
        55        2.0000           -0.4392185             -11.9517
        56        2.0000           -0.4303439             -11.7103
        57        2.0000           -0.4205722             -11.4444
        58        2.0000           -0.4156619             -11.3107
        59        2.0000           -0.4022199             -10.9450
        60        2.0000           -0.3964736             -10.7886 (HOMO)
        61                         -0.2937391              -7.9930 (LUMO)
        62                         -0.2871145              -7.8128
        63                         -0.1815247              -4.9395
        64                         -0.1756268              -4.7790
        65                         -0.0454055              -1.2355
       ...                                ...                  ...
       108                          0.6186599              16.8346
      -------------------------------------------------------------
                  HL-Gap            0.1027345 Eh            2.7955 eV
             Fermi-level           -0.3451064 Eh           -9.3908 eV

 SCC (total)                   0 d,  0 h,  0 min,  0.051 sec
 SCC setup                      ...        0 min,  0.000 sec (  0.655%)
 Dispersion                     ...        0 min,  0.001 sec (  1.259%)
 classical contributions        ...        0 min,  0.000 sec (  0.320%)
 integral evaluation            ...        0 min,  0.003 sec (  5.454%)
 iterations                     ...        0 min,  0.042 sec ( 82.431%)
 molecular gradient             ...        0 min,  0.005 sec (  9.355%)
 printout                       ...        0 min,  0.000 sec (  0.458%)

         :::::::::::::::::::::::::::::::::::::::::::::::::::::
         ::                     SUMMARY                     ::
         :::::::::::::::::::::::::::::::::::::::::::::::::::::
         :: total energy             -68.670439207653 Eh    ::
         :: gradient norm              0.184793250777 Eh/a0 ::
         :: HOMO-LUMO gap              2.795548443210 eV    ::
         ::.................................................::
         :: SCC energy               -69.386252572099 Eh    ::
         :: -> isotropic ES            0.127149987764 Eh    ::
         :: -> anisotropic ES          0.004311749380 Eh    ::
         :: -> anisotropic XC          0.014462450022 Eh    ::
         :: -> dispersion             -0.036274691087 Eh    ::
         :: repulsion energy           0.715813364446 Eh    ::
         :: add. restraining           0.000000000000 Eh    ::
         :: total charge              -0.000000000000 e     ::
         :::::::::::::::::::::::::::::::::::::::::::::::::::::

      ----------------------------------------------------------- 
     |                   =====================                   |
     |                        A N C O P T                        |
     |                   =====================                   |
     |               Approximate Normal Coordinate               |
     |                Rational Function Optimizer                |
      ----------------------------------------------------------- 
      ----------------------------------------------------------- 
     |                   =====================                   |
     |                        A N C O P T                        |
     |                   =====================                   |
     |               Approximate Normal Coordinate               |
     |                Rational Function Optimizer                |
      ----------------------------------------------------------- 

          ...................................................
          :                      SETUP                      :
          :.................................................:
          :   optimization level            normal          :
          :   max. optcycles                   200          :
          :   ANC micro-cycles                  20          :
          :   degrees of freedom               129          :
          :.................................................:
          :   RF solver                   davidson          :
          :   write xtbopt.log                true          :
          :   linear?                        false          :
          :   energy convergence         0.5000000E-05 Eh   :
          :   grad. convergence          0.1000000E-02 Eh/α :
          :   maxmium RF displ.          1.0000000          :
          :   Hlow (freq-cutoff)         0.1000000E-01      :
          :   Hmax (freq-cutoff)         5.0000000          :
          :   S6 in model hess.         20.0000000          :
          ...................................................

generating ANC from exact Hessian ...
Using Lindh-Hessian (1995)
 Shifting diagonal of input Hessian by   9.870765016536377E-003
 Lowest  eigenvalues of input Hessian
    0.000000    0.000000    0.000000    0.000000    0.000000    0.000000
    0.010000    0.010062    0.010229    0.010411    0.010618    0.010766
    0.011029    0.012101    0.012710    0.012825    0.013895    0.014542
 Highest eigenvalues
    1.747884    1.788597    1.883790    1.888465    2.140792    2.157985
 

........................................................................
.............................. CYCLE    1 ..............................
........................................................................

 iter      E             dE          RMSdq      gap      omega  full diag
   1    -69.3866021 -0.693866E+02  0.100E-04    2.80       0.0  T
   2    -69.3866021 -0.641052E-10  0.615E-05    2.80     242.3  T
   3    -69.3866021 -0.864020E-11  0.397E-05    2.80     375.6  T
     SCC iter.                  ...        0 min,  0.009 sec
     gradient                   ...        0 min,  0.005 sec
 * total energy  :   -68.6704392 Eh     change       -0.1132108E-08 Eh
   gradient norm :     0.1847950 Eh/α   predicted     0.0000000E+00 (-100.00%)
   displ. norm   :     0.3787265 α      lambda       -0.3798218E-01
   maximum displ.:     0.1167450 α      in ANC's #28, #48, #26, ...

........................................................................
.............................. CYCLE    2 ..............................
........................................................................

 iter      E             dE          RMSdq      gap      omega  full diag
   1    -69.4469804 -0.694470E+02  0.265E-01    3.12       0.0  T
   2    -69.4475006 -0.520183E-03  0.166E-01    3.03       1.0  T
   3    -69.4474611  0.394883E-04  0.801E-02    3.01       1.0  T
   4    -69.4475277 -0.665314E-04  0.340E-02    3.00       1.0  T
   5    -69.4475659 -0.382266E-04  0.963E-03    3.00       1.5  T
   6    -69.4475682 -0.228065E-05  0.379E-03    3.01       3.9  T
   7    -69.4475683 -0.107363E-06  0.142E-03    3.01      10.5  T
   8    -69.4475683 -0.581400E-08  0.447E-04    3.01      33.3  T
   9    -69.4475683 -0.342823E-09  0.205E-04    3.01      72.6  T
     SCC iter.                  ...        0 min,  0.025 sec
     gradient                   ...        0 min,  0.004 sec
 * total energy  :   -68.6972854 Eh     change       -0.2684617E-01 Eh
   gradient norm :     0.0754808 Eh/α   predicted    -0.2173402E-01 ( -19.04%)
   displ. norm   :     0.3587271 α      lambda       -0.1267661E-01
   maximum displ.:     0.1190146 α      in ANC's #28, #21, #26, ...

........................................................................
.............................. CYCLE    3 ..............................
........................................................................

 iter      E             dE          RMSdq      gap      omega  full diag
   1    -69.4765250 -0.694765E+02  0.191E-01    3.22       0.0  T
   2    -69.4767380 -0.212979E-03  0.117E-01    3.17       1.0  T
   3    -69.4767173  0.206893E-04  0.504E-02    3.16       1.0  T
   4    -69.4767464 -0.290780E-04  0.213E-02    3.15       1.0  T
   5    -69.4767607 -0.143068E-04  0.709E-03    3.15       2.1  T
   6    -69.4767621 -0.137063E-05  0.212E-03    3.16       7.0  T
   7    -69.4767621 -0.273510E-07  0.846E-04    3.16      17.6  T
   8    -69.4767621 -0.232409E-08  0.299E-04    3.16      49.9  T
     SCC iter.                  ...        0 min,  0.029 sec
     gradient                   ...        0 min,  0.005 sec
 * total energy  :   -68.7047277 Eh     change       -0.7442307E-02 Eh
   gradient norm :     0.0226301 Eh/α   predicted    -0.7153954E-02 (  -3.87%)
   displ. norm   :     0.2945842 α      lambda       -0.2138796E-02
   maximum displ.:     0.1051013 α      in ANC's #9, #8, #21, ...

........................................................................
.............................. CYCLE    4 ..............................
........................................................................

 iter      E             dE          RMSdq      gap      omega  full diag
   1    -69.4748538 -0.694749E+02  0.787E-02    3.19       0.0  T
   2    -69.4748781 -0.243003E-04  0.462E-02    3.18       1.0  T
   3    -69.4748753  0.277852E-05  0.174E-02    3.17       1.0  T
   4    -69.4748768 -0.147375E-05  0.895E-03    3.17       1.7  T
   5    -69.4748797 -0.296098E-05  0.149E-03    3.17      10.0  T
   6    -69.4748798 -0.398601E-07  0.571E-04    3.17      26.1  T
   7    -69.4748798 -0.237695E-08  0.251E-04    3.17      59.4  T
     SCC iter.                  ...        0 min,  0.019 sec
     gradient                   ...        0 min,  0.004 sec
 * total energy  :   -68.7062808 Eh     change       -0.1553112E-02 Eh
   gradient norm :     0.0112419 Eh/α   predicted    -0.1162229E-02 ( -25.17%)
   displ. norm   :     0.4295905 α      lambda       -0.1707451E-02
   maximum displ.:     0.1954682 α      in ANC's #8, #9, #16, ...

........................................................................
.............................. CYCLE    5 ..............................
........................................................................

 iter      E             dE          RMSdq      gap      omega  full diag
   1    -69.4718288 -0.694718E+02  0.836E-02    3.19       0.0  T
   2    -69.4718520 -0.231491E-04  0.490E-02    3.19       1.0  T
   3    -69.4718505  0.141961E-05  0.156E-02    3.19       1.0  T
   4    -69.4718515 -0.100288E-05  0.667E-03    3.19       2.2  T
   5    -69.4718532 -0.166136E-05  0.156E-03    3.19       9.6  T
   6    -69.4718533 -0.502967E-07  0.597E-04    3.19      25.0  T
   7    -69.4718533 -0.253509E-08  0.233E-04    3.19      64.0  T
     SCC iter.                  ...        0 min,  0.019 sec
     gradient                   ...        0 min,  0.004 sec
 * total energy  :   -68.7074853 Eh     change       -0.1204504E-02 Eh
   gradient norm :     0.0113744 Eh/α   predicted    -0.1011292E-02 ( -16.04%)
   displ. norm   :     0.4634222 α      lambda       -0.1315006E-02
   maximum displ.:     0.2277895 α      in ANC's #8, #9, #16, ...

........................................................................
.............................. CYCLE    6 ..............................
........................................................................

 iter      E             dE          RMSdq      gap      omega  full diag
   1    -69.4704471 -0.694704E+02  0.780E-02    3.19       0.0  T
   2    -69.4704558 -0.865986E-05  0.461E-02    3.20       1.0  T
   3    -69.4704544  0.132863E-05  0.984E-03    3.20       1.5  T
   4    -69.4704558 -0.132226E-05  0.434E-03    3.20       3.4  T
   5    -69.4704565 -0.700297E-06  0.125E-03    3.20      11.9  T
   6    -69.4704565 -0.196950E-07  0.552E-04    3.20      27.0  T
   7    -69.4704565 -0.192772E-08  0.168E-04    3.20      88.5  T
     SCC iter.                  ...        0 min,  0.033 sec
     gradient                   ...        0 min,  0.008 sec
 * total energy  :   -68.7084141 Eh     change       -0.9288303E-03 Eh
   gradient norm :     0.0161444 Eh/α   predicted    -0.7987409E-03 ( -14.01%)
   displ. norm   :     0.4528545 α      lambda       -0.1149419E-02
   maximum displ.:     0.2677935 α      in ANC's #8, #18, #16, ...

........................................................................
.............................. CYCLE    7 ..............................
........................................................................

 iter      E             dE          RMSdq      gap      omega  full diag
   1    -69.4718318 -0.694718E+02  0.807E-02    3.19       0.0  T
   2    -69.4718341 -0.232964E-05  0.480E-02    3.19       1.0  T
   3    -69.4718338  0.291792E-06  0.501E-03    3.20       3.0  T
   4    -69.4718344 -0.544368E-06  0.250E-03    3.20       6.0  T
   5    -69.4718345 -0.157775E-06  0.113E-03    3.20      13.2  T
   6    -69.4718346 -0.154974E-07  0.346E-04    3.20      43.1  T
   7    -69.4718346 -0.807646E-09  0.128E-04    3.20     116.8  T
     SCC iter.                  ...        0 min,  0.026 sec
     gradient                   ...        0 min,  0.007 sec
 * total energy  :   -68.7092853 Eh     change       -0.8712003E-03 Eh
   gradient norm :     0.0156567 Eh/α   predicted    -0.6925897E-03 ( -20.50%)
   displ. norm   :     0.4303571 α      lambda       -0.1022194E-02
   maximum displ.:     0.2818156 α      in ANC's #8, #16, #18, ...

........................................................................
.............................. CYCLE    8 ..............................
........................................................................

 iter      E             dE          RMSdq      gap      omega  full diag
   1    -69.4765335 -0.694765E+02  0.809E-02    3.18       0.0  T
   2    -69.4765394 -0.589226E-05  0.479E-02    3.19       1.0  T
   3    -69.4765384  0.944757E-06  0.847E-03    3.19       1.8  T
   4    -69.4765397 -0.122689E-05  0.365E-03    3.19       4.1  T
   5    -69.4765401 -0.410284E-06  0.143E-03    3.19      10.4  T
   6    -69.4765401 -0.332347E-07  0.587E-04    3.19      25.4  T
   7    -69.4765401 -0.196984E-08  0.201E-04    3.19      74.1  T
     SCC iter.                  ...        0 min,  0.019 sec
     gradient                   ...        0 min,  0.005 sec
 * total energy  :   -68.7100383 Eh     change       -0.7529491E-03 Eh
   gradient norm :     0.0095966 Eh/α   predicted    -0.6057647E-03 ( -19.55%)
   displ. norm   :     0.4331110 α      lambda       -0.6848090E-03
   maximum displ.:     0.2969714 α      in ANC's #8, #18, #16, ...

........................................................................
.............................. CYCLE    9 ..............................
........................................................................

 iter      E             dE          RMSdq      gap      omega  full diag
   1    -69.4766330 -0.694766E+02  0.828E-02    3.18       0.0  T
   2    -69.4766375 -0.448676E-05  0.490E-02    3.18       1.0  T
   3    -69.4766367  0.778437E-06  0.731E-03    3.19       2.0  T
   4    -69.4766378 -0.112636E-05  0.332E-03    3.19       4.5  T
   5    -69.4766382 -0.324607E-06  0.141E-03    3.19      10.6  T
   6    -69.4766382 -0.244678E-07  0.612E-04    3.19      24.4  T
   7    -69.4766382 -0.214450E-08  0.185E-04    3.19      80.6  T
     SCC iter.                  ...        0 min,  0.019 sec
     gradient                   ...        0 min,  0.005 sec
 * total energy  :   -68.7105297 Eh     change       -0.4913827E-03 Eh
   gradient norm :     0.0084840 Eh/α   predicted    -0.4066355E-03 ( -17.25%)
   displ. norm   :     0.3632297 α      lambda       -0.6364402E-03
   maximum displ.:     0.2740163 α      in ANC's #8, #16, #18, ...

........................................................................
.............................. CYCLE   10 ..............................
........................................................................

 iter      E             dE          RMSdq      gap      omega  full diag
   1    -69.4823694 -0.694824E+02  0.864E-02    3.17       0.0  T
   2    -69.4823783 -0.891776E-05  0.503E-02    3.17       1.0  T
   3    -69.4823767  0.156784E-05  0.112E-02    3.18       1.3  T
   4    -69.4823788 -0.202387E-05  0.477E-03    3.18       3.1  T
   5    -69.4823795 -0.741789E-06  0.176E-03    3.18       8.5  T
   6    -69.4823795 -0.263398E-07  0.841E-04    3.18      17.7  T
   7    -69.4823795 -0.375131E-08  0.199E-04    3.18      74.9  T
     SCC iter.                  ...        0 min,  0.019 sec
     gradient                   ...        0 min,  0.005 sec
 * total energy  :   -68.7108716 Eh     change       -0.3419251E-03 Eh
   gradient norm :     0.0098815 Eh/α   predicted    -0.3602078E-03 (   5.35%)
   displ. norm   :     0.4365146 α      lambda       -0.5199570E-03
   maximum displ.:     0.3062894 α      in ANC's #8, #16, #18, ...

........................................................................
.............................. CYCLE   11 ..............................
........................................................................

 iter      E             dE          RMSdq      gap      omega  full diag
   1    -69.4762610 -0.694763E+02  0.938E-02    3.17       0.0  T
   2    -69.4762663 -0.525409E-05  0.552E-02    3.17       1.0  T
   3    -69.4762661  0.200309E-06  0.700E-03    3.17       2.1  T
   4    -69.4762669 -0.820339E-06  0.378E-03    3.17       3.9  T
   5    -69.4762672 -0.355448E-06  0.176E-03    3.17       8.5  T
   6    -69.4762672 -0.160475E-07  0.693E-04    3.17      21.5  T
   7    -69.4762673 -0.556338E-08  0.147E-04    3.17     101.2  T
     SCC iter.                  ...        0 min,  0.020 sec
     gradient                   ...        0 min,  0.006 sec
 * total energy  :   -68.7110963 Eh     change       -0.2247355E-03 Eh
   gradient norm :     0.0137470 Eh/α   predicted    -0.3095214E-03 (  37.73%)
   displ. norm   :     0.1203635 α      lambda       -0.3621204E-03
   maximum displ.:     0.0603735 α      in ANC's #8, #9, #10, ...

........................................................................
.............................. CYCLE   12 ..............................
........................................................................

 iter      E             dE          RMSdq      gap      omega  full diag
   1    -69.4791718 -0.694792E+02  0.392E-02    3.19       0.0  T
   2    -69.4791735 -0.168229E-05  0.233E-02    3.19       1.0  T
   3    -69.4791729  0.647112E-06  0.557E-03    3.19       2.7  T
   4    -69.4791737 -0.825970E-06  0.222E-03    3.19       6.7  T
   5    -69.4791738 -0.141139E-06  0.897E-04    3.19      16.6  T
   6    -69.4791738 -0.986165E-08  0.408E-04    3.19      36.6  T
     SCC iter.                  ...        0 min,  0.014 sec
     gradient                   ...        0 min,  0.005 sec
 * total energy  :   -68.7113689 Eh     change       -0.2725318E-03 Eh
   gradient norm :     0.0089497 Eh/α   predicted    -0.1836849E-03 ( -32.60%)
   displ. norm   :     0.3424481 α      lambda       -0.5057371E-03
   maximum displ.:     0.2133209 α      in ANC's #8, #9, #10, ...

........................................................................
.............................. CYCLE   13 ..............................
........................................................................

 iter      E             dE          RMSdq      gap      omega  full diag
   1    -69.4805616 -0.694806E+02  0.931E-02    3.19       0.0  T
   2    -69.4805690 -0.736547E-05  0.553E-02    3.19       1.0  T
   3    -69.4805678  0.120869E-05  0.958E-03    3.19       1.6  T
   4    -69.4805697 -0.190437E-05  0.491E-03    3.19       3.0  T
   5    -69.4805704 -0.686154E-06  0.198E-03    3.19       7.5  T
   6    -69.4805704 -0.234457E-07  0.818E-04    3.19      18.2  T
   7    -69.4805704 -0.404965E-08  0.201E-04    3.19      74.3  T
     SCC iter.                  ...        0 min,  0.017 sec
     gradient                   ...        0 min,  0.004 sec
 * total energy  :   -68.7117161 Eh     change       -0.3472526E-03 Eh
   gradient norm :     0.0058205 Eh/α   predicted    -0.2825277E-03 ( -18.64%)
   displ. norm   :     0.4658693 α      lambda       -0.3543310E-03
   maximum displ.:     0.3171727 α      in ANC's #8, #18, #9, ...

........................................................................
.............................. CYCLE   14 ..............................
........................................................................

 iter      E             dE          RMSdq      gap      omega  full diag
   1    -69.4768040 -0.694768E+02  0.110E-01    3.19       0.0  T
   2    -69.4768080 -0.399105E-05  0.650E-02    3.19       1.0  T
   3    -69.4768084 -0.384723E-06  0.669E-03    3.19       2.2  T
   4    -69.4768093 -0.965866E-06  0.347E-03    3.19       4.3  T
   5    -69.4768094 -0.926384E-07  0.217E-03    3.19       6.9  T
   6    -69.4768095 -0.602233E-07  0.694E-04    3.19      21.5  T
   7    -69.4768095 -0.686684E-08  0.154E-04    3.19      96.6  T
     SCC iter.                  ...        0 min,  0.017 sec
     gradient                   ...        0 min,  0.005 sec
 * total energy  :   -68.7119322 Eh     change       -0.2160675E-03 Eh
   gradient norm :     0.0092790 Eh/α   predicted    -0.2156218E-03 (  -0.21%)
   displ. norm   :     0.3239813 α      lambda       -0.3721825E-03
   maximum displ.:     0.1702486 α      in ANC's #8, #9, #14, ...

........................................................................
.............................. CYCLE   15 ..............................
........................................................................

 iter      E             dE          RMSdq      gap      omega  full diag
   1    -69.4806675 -0.694807E+02  0.803E-02    3.19       0.0  T
   2    -69.4806734 -0.586171E-05  0.473E-02    3.19       1.0  T
   3    -69.4806719  0.144964E-05  0.989E-03    3.20       1.5  T
   4    -69.4806742 -0.223006E-05  0.427E-03    3.20       3.5  T
   5    -69.4806746 -0.479782E-06  0.189E-03    3.20       7.9  T
   6    -69.4806747 -0.217596E-07  0.843E-04    3.20      17.7  T
   7    -69.4806747 -0.510843E-08  0.156E-04    3.20      95.8  T
     SCC iter.                  ...        0 min,  0.017 sec
     gradient                   ...        0 min,  0.005 sec
 * total energy  :   -68.7120823 Eh     change       -0.1501025E-03 Eh
   gradient norm :     0.0096134 Eh/α   predicted    -0.2056282E-03 (  36.99%)
   displ. norm   :     0.2573479 α      lambda       -0.3947514E-03
   maximum displ.:     0.1303017 α      in ANC's #8, #15, #2, ...

........................................................................
.............................. CYCLE   16 ..............................
........................................................................

 iter      E             dE          RMSdq      gap      omega  full diag
   1    -69.4810764 -0.694811E+02  0.747E-02    3.19       0.0  T
   2    -69.4810864 -0.997681E-05  0.439E-02    3.19       1.0  T
   3    -69.4810862  0.216926E-06  0.978E-03    3.20       1.5  T
   4    -69.4810873 -0.111988E-05  0.244E-03    3.20       6.1  T
   5    -69.4810874 -0.748204E-07  0.138E-03    3.20      10.8  T
   6    -69.4810874  0.180995E-08  0.890E-04    3.20      16.7  T
   7    -69.4810874 -0.184162E-07  0.155E-04    3.20      95.9  T
     SCC iter.                  ...        0 min,  0.017 sec
     gradient                   ...        0 min,  0.005 sec
 * total energy  :   -68.7122520 Eh     change       -0.1696825E-03 Eh
   gradient norm :     0.0097841 Eh/α   predicted    -0.2104498E-03 (  24.03%)
   displ. norm   :     0.2703531 α      lambda       -0.2659028E-03
   maximum displ.:     0.1887894 α      in ANC's #8, #15, #18, ...

........................................................................
.............................. CYCLE   17 ..............................
........................................................................

 iter      E             dE          RMSdq      gap      omega  full diag
   1    -69.4771791 -0.694772E+02  0.708E-02    3.19       0.0  T
   2    -69.4771838 -0.466200E-05  0.420E-02    3.19       1.0  T
   3    -69.4771818  0.193936E-05  0.918E-03    3.19       1.6  T
   4    -69.4771842 -0.240171E-05  0.375E-03    3.19       4.0  T
   5    -69.4771847 -0.432572E-06  0.148E-03    3.19      10.1  T
   6    -69.4771847 -0.160387E-07  0.725E-04    3.19      20.6  T
   7    -69.4771847 -0.303594E-08  0.144E-04    3.19     103.8  T
     SCC iter.                  ...        0 min,  0.018 sec
     gradient                   ...        0 min,  0.005 sec
 * total energy  :   -68.7123934 Eh     change       -0.1414381E-03 Eh
   gradient norm :     0.0112287 Eh/α   predicted    -0.1426745E-03 (   0.87%)
   displ. norm   :     0.1822986 α      lambda       -0.3497904E-03
   maximum displ.:     0.0690724 α      in ANC's #2, #7, #20, ...

........................................................................
.............................. CYCLE   18 ..............................
........................................................................

 iter      E             dE          RMSdq      gap      omega  full diag
   1    -69.4831106 -0.694831E+02  0.531E-02    3.19       0.0  T
   2    -69.4831207 -0.100876E-04  0.321E-02    3.20       1.0  T
   3    -69.4831178  0.288427E-05  0.128E-02    3.20       1.2  T
   4    -69.4831208 -0.296508E-05  0.572E-03    3.20       2.6  T
   5    -69.4831219 -0.112536E-05  0.103E-03    3.20      14.5  T
   6    -69.4831219 -0.126195E-07  0.580E-04    3.20      25.7  T
   7    -69.4831219 -0.216770E-08  0.196E-04    3.20      75.9  T
     SCC iter.                  ...        0 min,  0.018 sec
     gradient                   ...        0 min,  0.006 sec
 * total energy  :   -68.7125103 Eh     change       -0.1168632E-03 Eh
   gradient norm :     0.0086915 Eh/α   predicted    -0.1807137E-03 (  54.64%)
   displ. norm   :     0.2598643 α      lambda       -0.2601767E-03
   maximum displ.:     0.1272968 α      in ANC's #8, #7, #15, ...

........................................................................
.............................. CYCLE   19 ..............................
........................................................................

 iter      E             dE          RMSdq      gap      omega  full diag
   1    -69.4821091 -0.694821E+02  0.743E-02    3.19       0.0  T
   2    -69.4821139 -0.479623E-05  0.443E-02    3.19       1.0  T
   3    -69.4821120  0.184939E-05  0.906E-03    3.19       1.6  T
   4    -69.4821144 -0.242163E-05  0.403E-03    3.19       3.7  T
   5    -69.4821149 -0.459044E-06  0.164E-03    3.19       9.1  T
   6    -69.4821149 -0.139366E-07  0.741E-04    3.19      20.1  T
   7    -69.4821149 -0.424184E-08  0.152E-04    3.19      97.8  T
     SCC iter.                  ...        0 min,  0.018 sec
     gradient                   ...        0 min,  0.005 sec
 * total energy  :   -68.7126727 Eh     change       -0.1624369E-03 Eh
   gradient norm :     0.0074280 Eh/α   predicted    -0.1388784E-03 ( -14.50%)
   displ. norm   :     0.3389128 α      lambda       -0.2295264E-03
   maximum displ.:     0.1841884 α      in ANC's #8, #2, #7, ...

........................................................................
.............................. CYCLE   20 ..............................
........................................................................

 iter      E             dE          RMSdq      gap      omega  full diag
   1    -69.4789256 -0.694789E+02  0.893E-02    3.19       0.0  T
   2    -69.4789289 -0.333870E-05  0.532E-02    3.18       1.0  T
   3    -69.4789288  0.136322E-06  0.632E-03    3.18       2.4  T
   4    -69.4789296 -0.809102E-06  0.364E-03    3.18       4.1  T
   5    -69.4789299 -0.300934E-06  0.170E-03    3.18       8.8  T
   6    -69.4789299 -0.143537E-07  0.453E-04    3.18      32.9  T
   7    -69.4789299 -0.220759E-08  0.135E-04    3.18     110.3  T
     SCC iter.                  ...        0 min,  0.018 sec
     gradient                   ...        0 min,  0.005 sec
 * total energy  :   -68.7128036 Eh     change       -0.1308949E-03 Eh
   gradient norm :     0.0081105 Eh/α   predicted    -0.1279500E-03 (  -2.25%)
   displ. norm   :     0.2042788 α      lambda       -0.2094892E-03
   maximum displ.:     0.1133045 α      in ANC's #2, #7, #20, ...
 * RMSD in coord.:     0.7305574 α      energy gain  -0.4236439E-01 Eh

generating ANC from exact Hessian ...
Using Lindh-Hessian (1995)
 Shifting diagonal of input Hessian by   9.860267352738787E-003
 Lowest  eigenvalues of input Hessian
    0.000000    0.000000    0.000000    0.000000    0.000000    0.000000
    0.010000    0.010065    0.010226    0.010369    0.010651    0.010806
    0.011130    0.012276    0.012778    0.013307    0.013867    0.014741
 Highest eigenvalues
    1.818375    1.824640    1.954984    1.959190    2.391150    2.405390
 

........................................................................
.............................. CYCLE   21 ..............................
........................................................................

 iter      E             dE          RMSdq      gap      omega  full diag
   1    -69.4830038 -0.694830E+02  0.557E-02    3.21       0.0  T
   2    -69.4830128 -0.904370E-05  0.335E-02    3.20       1.0  T
   3    -69.4830115  0.129105E-05  0.128E-02    3.20       1.2  T
   4    -69.4830138 -0.225064E-05  0.352E-03    3.20       4.2  T
   5    -69.4830141 -0.367442E-06  0.135E-03    3.20      11.0  T
   6    -69.4830142 -0.373909E-07  0.631E-04    3.20      23.6  T
   7    -69.4830142 -0.152737E-08  0.158E-04    3.20      94.4  T
     SCC iter.                  ...        0 min,  0.016 sec
     gradient                   ...        0 min,  0.005 sec
 * total energy  :   -68.7129007 Eh     change       -0.9709296E-04 Eh
   gradient norm :     0.0088026 Eh/α   predicted     0.0000000E+00 (-100.00%)
   displ. norm   :     0.0704283 α      lambda       -0.2001800E-03
   maximum displ.:     0.0271777 α      in ANC's #7, #9, #2, ...

........................................................................
.............................. CYCLE   22 ..............................
........................................................................

 iter      E             dE          RMSdq      gap      omega  full diag
   1    -69.4827398 -0.694827E+02  0.312E-02    3.19       0.0  T
   2    -69.4827415 -0.167717E-05  0.186E-02    3.19       1.0  T
   3    -69.4827407  0.836091E-06  0.612E-03    3.19       2.4  T
   4    -69.4827416 -0.903070E-06  0.238E-03    3.19       6.3  T
   5    -69.4827418 -0.191040E-06  0.608E-04    3.19      24.5  T
   6    -69.4827418 -0.292927E-08  0.328E-04    3.19      45.5  T
     SCC iter.                  ...        0 min,  0.038 sec
     gradient                   ...        0 min,  0.012 sec
 * total energy  :   -68.7130132 Eh     change       -0.1124884E-03 Eh
   gradient norm :     0.0029958 Eh/α   predicted    -0.1005867E-03 ( -10.58%)
   displ. norm   :     0.0952835 α      lambda       -0.1047193E-03
   maximum displ.:     0.0388976 α      in ANC's #7, #9, #2, ...

........................................................................
.............................. CYCLE   23 ..............................
........................................................................

 iter      E             dE          RMSdq      gap      omega  full diag
   1    -69.4826100 -0.694826E+02  0.301E-02    3.18       0.0  T
   2    -69.4826113 -0.127831E-05  0.177E-02    3.18       1.0  T
   3    -69.4826111  0.199791E-06  0.398E-03    3.18       3.7  T
   4    -69.4826114 -0.259014E-06  0.159E-03    3.18       9.4  T
   5    -69.4826114 -0.797191E-07  0.585E-04    3.18      25.5  T
   6    -69.4826115 -0.410115E-08  0.308E-04    3.18      48.4  T
     SCC iter.                  ...        0 min,  0.014 sec
     gradient                   ...        0 min,  0.005 sec
 * total energy  :   -68.7130892 Eh     change       -0.7601940E-04 Eh
   gradient norm :     0.0031699 Eh/α   predicted    -0.5283603E-04 ( -30.50%)
   displ. norm   :     0.2060006 α      lambda       -0.1410854E-03
   maximum displ.:     0.0927629 α      in ANC's #7, #9, #2, ...

........................................................................
.............................. CYCLE   24 ..............................
........................................................................

 iter      E             dE          RMSdq      gap      omega  full diag
   1    -69.4821292 -0.694821E+02  0.592E-02    3.17       0.0  T
   2    -69.4821309 -0.176386E-05  0.349E-02    3.17       1.0  T
   3    -69.4821309  0.356669E-07  0.383E-03    3.17       3.9  T
   4    -69.4821312 -0.295857E-06  0.143E-03    3.17      10.4  T
   5    -69.4821312 -0.242004E-07  0.910E-04    3.17      16.4  T
   6    -69.4821312 -0.959442E-08  0.459E-04    3.17      32.5  T
     SCC iter.                  ...        0 min,  0.014 sec
     gradient                   ...        0 min,  0.005 sec
 * total energy  :   -68.7132000 Eh     change       -0.1107950E-03 Eh
   gradient norm :     0.0057614 Eh/α   predicted    -0.7353767E-04 ( -33.63%)
   displ. norm   :     0.3594650 α      lambda       -0.2035112E-03
   maximum displ.:     0.1683087 α      in ANC's #7, #9, #2, ...

........................................................................
.............................. CYCLE   25 ..............................
........................................................................

 iter      E             dE          RMSdq      gap      omega  full diag
   1    -69.4808524 -0.694809E+02  0.101E-01    3.16       0.0  T
   2    -69.4808550 -0.263259E-05  0.597E-02    3.16       1.0  T
   3    -69.4808547  0.280003E-06  0.580E-03    3.16       2.6  T
   4    -69.4808556 -0.868048E-06  0.291E-03    3.16       5.1  T
   5    -69.4808558 -0.178058E-06  0.156E-03    3.16       9.6  T
   6    -69.4808558 -0.237158E-07  0.580E-04    3.16      25.7  T
   7    -69.4808558 -0.247303E-08  0.131E-04    3.16     113.7  T
     SCC iter.                  ...        0 min,  0.017 sec
     gradient                   ...        0 min,  0.005 sec
 * total energy  :   -68.7133509 Eh     change       -0.1508919E-03 Eh
   gradient norm :     0.0068368 Eh/α   predicted    -0.1149118E-03 ( -23.84%)
   displ. norm   :     0.3379054 α      lambda       -0.1712993E-03
   maximum displ.:     0.1621437 α      in ANC's #7, #2, #9, ...

........................................................................
.............................. CYCLE   26 ..............................
........................................................................

 iter      E             dE          RMSdq      gap      omega  full diag
   1    -69.4804325 -0.694804E+02  0.948E-02    3.15       0.0  T
   2    -69.4804340 -0.141221E-05  0.561E-02    3.15       1.0  T
   3    -69.4804341 -0.115068E-06  0.414E-03    3.15       3.6  T
   4    -69.4804345 -0.388024E-06  0.222E-03    3.15       6.7  T
   5    -69.4804345 -0.530062E-07  0.135E-03    3.15      11.0  T
   6    -69.4804345 -0.241914E-07  0.299E-04    3.15      49.8  T
   7    -69.4804345 -0.784354E-09  0.105E-04    3.15     142.4  T
     SCC iter.                  ...        0 min,  0.017 sec
     gradient                   ...        0 min,  0.005 sec
 * total energy  :   -68.7134785 Eh     change       -0.1276582E-03 Eh
   gradient norm :     0.0063589 Eh/α   predicted    -0.9543428E-04 ( -25.24%)
   displ. norm   :     0.2992613 α      lambda       -0.1703118E-03
   maximum displ.:     0.1430037 α      in ANC's #7, #2, #9, ...

........................................................................
.............................. CYCLE   27 ..............................
........................................................................

 iter      E             dE          RMSdq      gap      omega  full diag
   1    -69.4822229 -0.694822E+02  0.795E-02    3.15       0.0  T
   2    -69.4822248 -0.197890E-05  0.471E-02    3.15       1.0  T
   3    -69.4822242  0.609088E-06  0.580E-03    3.15       2.6  T
   4    -69.4822253 -0.109421E-05  0.185E-03    3.15       8.1  T
   5    -69.4822254 -0.298451E-07  0.122E-03    3.15      12.2  T
   6    -69.4822254 -0.228197E-07  0.422E-04    3.15      35.3  T
   7    -69.4822254 -0.149410E-08  0.101E-04    3.15     147.3  T
     SCC iter.                  ...        0 min,  0.020 sec
     gradient                   ...        0 min,  0.005 sec
 * total energy  :   -68.7136044 Eh     change       -0.1258438E-03 Eh
   gradient norm :     0.0047546 Eh/α   predicted    -0.9278304E-04 ( -26.27%)
   displ. norm   :     0.2854928 α      lambda       -0.1354423E-03
   maximum displ.:     0.1357191 α      in ANC's #7, #2, #1, ...

........................................................................
.............................. CYCLE   28 ..............................
........................................................................

 iter      E             dE          RMSdq      gap      omega  full diag
   1    -69.4834941 -0.694835E+02  0.746E-02    3.14       0.0  T
   2    -69.4834977 -0.353193E-05  0.441E-02    3.14       1.0  T
   3    -69.4834968  0.873443E-06  0.702E-03    3.14       2.1  T
   4    -69.4834981 -0.133154E-05  0.199E-03    3.14       7.5  T
   5    -69.4834982 -0.747315E-07  0.112E-03    3.14      13.3  T
   6    -69.4834982 -0.187096E-07  0.559E-04    3.14      26.7  T
   7    -69.4834982 -0.243935E-08  0.104E-04    3.14     142.7  T
     SCC iter.                  ...        0 min,  0.020 sec
     gradient                   ...        0 min,  0.006 sec
 * total energy  :   -68.7137054 Eh     change       -0.1009779E-03 Eh
   gradient norm :     0.0041236 Eh/α   predicted    -0.7325580E-04 ( -27.45%)
   displ. norm   :     0.2866785 α      lambda       -0.1077919E-03
   maximum displ.:     0.1356978 α      in ANC's #7, #2, #1, ...

........................................................................
.............................. CYCLE   29 ..............................
........................................................................

 iter      E             dE          RMSdq      gap      omega  full diag
   1    -69.4837352 -0.694837E+02  0.750E-02    3.13       0.0  T
   2    -69.4837374 -0.219679E-05  0.444E-02    3.13       1.0  T
   3    -69.4837366  0.789616E-06  0.606E-03    3.13       2.5  T
   4    -69.4837377 -0.108602E-05  0.227E-03    3.13       6.6  T
   5    -69.4837378 -0.132994E-06  0.104E-03    3.13      14.4  T
   6    -69.4837378 -0.997642E-08  0.479E-04    3.13      31.1  T
   7    -69.4837378 -0.153901E-08  0.856E-05    3.13     174.2  T
     SCC iter.                  ...        0 min,  0.020 sec
     gradient                   ...        0 min,  0.004 sec
 * total energy  :   -68.7137857 Eh     change       -0.8036929E-04 Eh
   gradient norm :     0.0039061 Eh/α   predicted    -0.5833073E-04 ( -27.42%)
   displ. norm   :     0.2447972 α      lambda       -0.8682087E-04
   maximum displ.:     0.1164852 α      in ANC's #2, #7, #1, ...

........................................................................
.............................. CYCLE   30 ..............................
........................................................................

 iter      E             dE          RMSdq      gap      omega  full diag
   1    -69.4844428 -0.694844E+02  0.664E-02    3.12       0.0  T
   2    -69.4844440 -0.121653E-05  0.393E-02    3.12       1.0  T
   3    -69.4844432  0.740558E-06  0.526E-03    3.12       2.8  T
   4    -69.4844442 -0.930436E-06  0.197E-03    3.12       7.6  T
   5    -69.4844443 -0.107607E-06  0.815E-04    3.12      18.3  T
   6    -69.4844443 -0.485100E-08  0.355E-04    3.12      42.0  T
     SCC iter.                  ...        0 min,  0.017 sec
     gradient                   ...        0 min,  0.005 sec
 * total energy  :   -68.7138505 Eh     change       -0.6476071E-04 Eh
   gradient norm :     0.0035243 Eh/α   predicted    -0.4601299E-04 ( -28.95%)
   displ. norm   :     0.2800489 α      lambda       -0.7755636E-04
   maximum displ.:     0.1362822 α      in ANC's #7, #2, #1, ...

........................................................................
.............................. CYCLE   31 ..............................
........................................................................

 iter      E             dE          RMSdq      gap      omega  full diag
   1    -69.4829865 -0.694830E+02  0.790E-02    3.11       0.0  T
   2    -69.4829873 -0.814062E-06  0.468E-02    3.11       1.0  T
   3    -69.4829870  0.335895E-06  0.438E-03    3.11       3.4  T
   4    -69.4829876 -0.586200E-06  0.181E-03    3.11       8.2  T
   5    -69.4829876 -0.611705E-07  0.894E-04    3.11      16.7  T
   6    -69.4829876 -0.517548E-08  0.312E-04    3.11      47.8  T
     SCC iter.                  ...        0 min,  0.017 sec
     gradient                   ...        0 min,  0.005 sec
 * total energy  :   -68.7139071 Eh     change       -0.5659820E-04 Eh
   gradient norm :     0.0030911 Eh/α   predicted    -0.4182302E-04 ( -26.11%)
   displ. norm   :     0.2296973 α      lambda       -0.9567561E-04
   maximum displ.:     0.1267523 α      in ANC's #1, #2, #7, ...

........................................................................
.............................. CYCLE   32 ..............................
........................................................................

 iter      E             dE          RMSdq      gap      omega  full diag
   1    -69.4856807 -0.694857E+02  0.680E-02    3.10       0.0  T
   2    -69.4856818 -0.109684E-05  0.403E-02    3.11       1.0  T
   3    -69.4856808  0.101621E-05  0.552E-03    3.11       2.7  T
   4    -69.4856819 -0.117023E-05  0.197E-03    3.11       7.6  T
   5    -69.4856821 -0.116094E-06  0.668E-04    3.11      22.3  T
   6    -69.4856821 -0.306824E-08  0.321E-04    3.11      46.5  T
     SCC iter.                  ...        0 min,  0.014 sec
     gradient                   ...        0 min,  0.005 sec
 * total energy  :   -68.7139579 Eh     change       -0.5078541E-04 Eh
   gradient norm :     0.0043558 Eh/α   predicted    -0.5036274E-04 (  -0.83%)
   displ. norm   :     0.2420446 α      lambda       -0.7000246E-04
   maximum displ.:     0.1296713 α      in ANC's #1, #2, #7, ...

........................................................................
.............................. CYCLE   33 ..............................
........................................................................

 iter      E             dE          RMSdq      gap      omega  full diag
   1    -69.4835736 -0.694836E+02  0.695E-02    3.10       0.0  T
   2    -69.4835746 -0.987622E-06  0.411E-02    3.10       1.0  T
   3    -69.4835737  0.921597E-06  0.557E-03    3.10       2.7  T
   4    -69.4835748 -0.113139E-05  0.187E-03    3.10       8.0  T
   5    -69.4835749 -0.939460E-07  0.842E-04    3.10      17.7  T
   6    -69.4835749 -0.633609E-08  0.352E-04    3.10      42.3  T
     SCC iter.                  ...        0 min,  0.014 sec
     gradient                   ...        0 min,  0.005 sec
 * total energy  :   -68.7140082 Eh     change       -0.5036478E-04 Eh
   gradient norm :     0.0031603 Eh/α   predicted    -0.3705217E-04 ( -26.43%)
   displ. norm   :     0.1703385 α      lambda       -0.6804034E-04
   maximum displ.:     0.1002980 α      in ANC's #1, #2, #7, ...

........................................................................
.............................. CYCLE   34 ..............................
........................................................................

 iter      E             dE          RMSdq      gap      omega  full diag
   1    -69.4831962 -0.694832E+02  0.429E-02    3.10       0.0  T
   2    -69.4831967 -0.523808E-06  0.254E-02    3.10       1.0  T
   3    -69.4831961  0.600675E-06  0.426E-03    3.10       3.5  T
   4    -69.4831968 -0.686380E-06  0.139E-03    3.10      10.7  T
   5    -69.4831968 -0.610114E-07  0.487E-04    3.10      30.6  T
   6    -69.4831968 -0.198119E-08  0.229E-04    3.10      65.0  T
     SCC iter.                  ...        0 min,  0.015 sec
     gradient                   ...        0 min,  0.005 sec
 * total energy  :   -68.7140616 Eh     change       -0.5338463E-04 Eh
   gradient norm :     0.0027693 Eh/α   predicted    -0.3500940E-04 ( -34.42%)
   displ. norm   :     0.2843883 α      lambda       -0.1079412E-03
   maximum displ.:     0.1700896 α      in ANC's #1, #2, #7, ...

........................................................................
.............................. CYCLE   35 ..............................
........................................................................

 iter      E             dE          RMSdq      gap      omega  full diag
   1    -69.4832071 -0.694832E+02  0.690E-02    3.10       0.0  T
   2    -69.4832077 -0.648941E-06  0.408E-02    3.10       1.0  T
   3    -69.4832062  0.153599E-05  0.670E-03    3.10       2.2  T
   4    -69.4832080 -0.180403E-05  0.145E-03    3.10      10.3  T
   5    -69.4832080 -0.480564E-07  0.695E-04    3.10      21.4  T
   6    -69.4832080 -0.236578E-08  0.270E-04    3.10      55.2  T
     SCC iter.                  ...        0 min,  0.014 sec
     gradient                   ...        0 min,  0.005 sec
 * total energy  :   -68.7141385 Eh     change       -0.7691791E-04 Eh
   gradient norm :     0.0033918 Eh/α   predicted    -0.5834025E-04 ( -24.15%)
   displ. norm   :     0.3152589 α      lambda       -0.9175041E-04
   maximum displ.:     0.1931157 α      in ANC's #1, #2, #7, ...

........................................................................
.............................. CYCLE   36 ..............................
........................................................................

 iter      E             dE          RMSdq      gap      omega  full diag
   1    -69.4828311 -0.694828E+02  0.728E-02    3.10       0.0  T
   2    -69.4828317 -0.572449E-06  0.431E-02    3.10       1.0  T
   3    -69.4828304  0.127409E-05  0.632E-03    3.10       2.4  T
   4    -69.4828320 -0.156606E-05  0.132E-03    3.10      11.3  T
   5    -69.4828320 -0.232641E-07  0.730E-04    3.10      20.4  T
   6    -69.4828320 -0.241586E-08  0.205E-04    3.10      72.7  T
     SCC iter.                  ...        0 min,  0.014 sec
     gradient                   ...        0 min,  0.005 sec
 * total energy  :   -68.7142054 Eh     change       -0.6686322E-04 Eh
   gradient norm :     0.0036820 Eh/α   predicted    -0.5043732E-04 ( -24.57%)
   displ. norm   :     0.2922210 α      lambda       -0.8366803E-04
   maximum displ.:     0.1850105 α      in ANC's #1, #2, #7, ...

........................................................................
.............................. CYCLE   37 ..............................
........................................................................

 iter      E             dE          RMSdq      gap      omega  full diag
   1    -69.4832657 -0.694833E+02  0.570E-02    3.10       0.0  T
   2    -69.4832661 -0.419240E-06  0.337E-02    3.11       1.0  T
   3    -69.4832658  0.274268E-06  0.358E-03    3.11       4.2  T
   4    -69.4832662 -0.437151E-06  0.123E-03    3.11      12.1  T
   5    -69.4832663 -0.230815E-07  0.644E-04    3.11      23.1  T
   6    -69.4832663 -0.214001E-08  0.196E-04    3.11      76.1  T
     SCC iter.                  ...        0 min,  0.014 sec
     gradient                   ...        0 min,  0.005 sec
 * total energy  :   -68.7142708 Eh     change       -0.6543434E-04 Eh
   gradient norm :     0.0034506 Eh/α   predicted    -0.4541101E-04 ( -30.60%)
   displ. norm   :     0.3359128 α      lambda       -0.9181207E-04
   maximum displ.:     0.2161262 α      in ANC's #1, #2, #7, ...

........................................................................
.............................. CYCLE   38 ..............................
........................................................................

 iter      E             dE          RMSdq      gap      omega  full diag
   1    -69.4834034 -0.694834E+02  0.657E-02    3.11       0.0  T
   2    -69.4834041 -0.665849E-06  0.388E-02    3.11       1.0  T
   3    -69.4834041  0.828891E-08  0.286E-03    3.11       5.2  T
   4    -69.4834042 -0.169370E-06  0.147E-03    3.11      10.1  T
   5    -69.4834043 -0.468117E-07  0.809E-04    3.11      18.4  T
   6    -69.4834043 -0.601844E-08  0.268E-04    3.11      55.6  T
     SCC iter.                  ...        0 min,  0.014 sec
     gradient                   ...        0 min,  0.015 sec
 * total energy  :   -68.7143388 Eh     change       -0.6794198E-04 Eh
   gradient norm :     0.0024878 Eh/α   predicted    -0.5108735E-04 ( -24.81%)
   displ. norm   :     0.2972650 α      lambda       -0.7541166E-04
   maximum displ.:     0.1959672 α      in ANC's #1, #2, #7, ...

........................................................................
.............................. CYCLE   39 ..............................
........................................................................

 iter      E             dE          RMSdq      gap      omega  full diag
   1    -69.4842841 -0.694843E+02  0.508E-02    3.11       0.0  T
   2    -69.4842847 -0.526060E-06  0.300E-02    3.11       1.0  T
   3    -69.4842846  0.489614E-07  0.250E-03    3.12       6.0  T
   4    -69.4842847 -0.139227E-06  0.146E-03    3.11      10.2  T
   5    -69.4842848 -0.541091E-07  0.616E-04    3.11      24.2  T
   6    -69.4842848 -0.248042E-08  0.254E-04    3.11      58.7  T
     SCC iter.                  ...        0 min,  0.013 sec
     gradient                   ...        0 min,  0.005 sec
 * total energy  :   -68.7143920 Eh     change       -0.5324532E-04 Eh
   gradient norm :     0.0030342 Eh/α   predicted    -0.4104016E-04 ( -22.92%)
   displ. norm   :     0.3322146 α      lambda       -0.6754848E-04
   maximum displ.:     0.2167815 α      in ANC's #1, #2, #7, ...

........................................................................
.............................. CYCLE   40 ..............................
........................................................................

 iter      E             dE          RMSdq      gap      omega  full diag
   1    -69.4833314 -0.694833E+02  0.619E-02    3.11       0.0  T
   2    -69.4833318 -0.417746E-06  0.366E-02    3.12       1.0  T
   3    -69.4833320 -0.114329E-06  0.181E-03    3.12       8.2  T
   4    -69.4833320 -0.320470E-07  0.107E-03    3.12      14.0  T
   5    -69.4833320 -0.129940E-07  0.676E-04    3.12      22.1  T
   6    -69.4833320 -0.748089E-08  0.224E-04    3.12      66.5  T
     SCC iter.                  ...        0 min,  0.013 sec
     gradient                   ...        0 min,  0.005 sec
 * total energy  :   -68.7144458 Eh     change       -0.5374203E-04 Eh
   gradient norm :     0.0034596 Eh/α   predicted    -0.3750442E-04 ( -30.21%)
   displ. norm   :     0.3788194 α      lambda       -0.9071641E-04
   maximum displ.:     0.2499744 α      in ANC's #1, #2, #4, ...

........................................................................
.............................. CYCLE   41 ..............................
........................................................................

 iter      E             dE          RMSdq      gap      omega  full diag
   1    -69.4839816 -0.694840E+02  0.648E-02    3.12       0.0  T
   2    -69.4839821 -0.486341E-06  0.383E-02    3.12       1.0  T
   3    -69.4839820  0.135180E-06  0.325E-03    3.12       4.6  T
   4    -69.4839823 -0.316947E-06  0.157E-03    3.12       9.5  T
   5    -69.4839823 -0.415662E-07  0.658E-04    3.12      22.7  T
   6    -69.4839823 -0.173320E-08  0.202E-04    3.12      73.7  T
     SCC iter.                  ...        0 min,  0.017 sec
     gradient                   ...        0 min,  0.005 sec
 * total energy  :   -68.7145173 Eh     change       -0.7154858E-04 Eh
   gradient norm :     0.0041229 Eh/α   predicted    -0.5187158E-04 ( -27.50%)
   displ. norm   :     0.4838357 α      lambda       -0.1043792E-03
   maximum displ.:     0.3168175 α      in ANC's #1, #2, #4, ...

........................................................................
.............................. CYCLE   42 ..............................
........................................................................

 iter      E             dE          RMSdq      gap      omega  full diag
   1    -69.4821393 -0.694821E+02  0.855E-02    3.11       0.0  T
   2    -69.4821402 -0.906441E-06  0.506E-02    3.11       1.0  T
   3    -69.4821404 -0.239430E-06  0.275E-03    3.11       5.4  T
   4    -69.4821405 -0.105400E-06  0.158E-03    3.11       9.4  T
   5    -69.4821405 -0.113280E-07  0.100E-03    3.11      14.9  T
   6    -69.4821405 -0.176047E-07  0.334E-04    3.11      44.7  T
   7    -69.4821405 -0.136509E-08  0.118E-04    3.11     126.7  T
     SCC iter.                  ...        0 min,  0.015 sec
     gradient                   ...        0 min,  0.005 sec
 * total energy  :   -68.7145903 Eh     change       -0.7298422E-04 Eh
   gradient norm :     0.0045545 Eh/α   predicted    -0.6441279E-04 ( -11.74%)
   displ. norm   :     0.3737889 α      lambda       -0.1076262E-03
   maximum displ.:     0.2502025 α      in ANC's #1, #2, #5, ...
 * RMSD in coord.:     0.7990999 α      energy gain  -0.1786708E-02 Eh

generating ANC from exact Hessian ...
Using Lindh-Hessian (1995)
 Shifting diagonal of input Hessian by   9.857875945274881E-003
 Lowest  eigenvalues of input Hessian
    0.000000    0.000000    0.000000    0.000000    0.000000    0.000000
    0.010000    0.010035    0.010240    0.010355    0.010687    0.010739
    0.011145    0.012373    0.012796    0.013605    0.013905    0.014597
 Highest eigenvalues
    1.821430    1.821757    1.959099    1.960204    2.398024    2.398853
 

........................................................................
.............................. CYCLE   43 ..............................
........................................................................

 iter      E             dE          RMSdq      gap      omega  full diag
   1    -69.4849549 -0.694850E+02  0.614E-02    3.13       0.0  T
   2    -69.4849557 -0.801514E-06  0.364E-02    3.12       1.0  T
   3    -69.4849546  0.113125E-05  0.623E-03    3.12       2.4  T
   4    -69.4849560 -0.139693E-05  0.182E-03    3.12       8.2  T
   5    -69.4849561 -0.705132E-07  0.849E-04    3.12      17.6  T
   6    -69.4849561 -0.347359E-08  0.308E-04    3.12      48.5  T
     SCC iter.                  ...        0 min,  0.014 sec
     gradient                   ...        0 min,  0.005 sec
 * total energy  :   -68.7146492 Eh     change       -0.5886693E-04 Eh
   gradient norm :     0.0045038 Eh/α   predicted     0.0000000E+00 (-100.00%)
   displ. norm   :     0.0383971 α      lambda       -0.3979929E-04
   maximum displ.:     0.0153372 α      in ANC's #9, #1, #10, ...

........................................................................
.............................. CYCLE   44 ..............................
........................................................................

 iter      E             dE          RMSdq      gap      omega  full diag
   1    -69.4847099 -0.694847E+02  0.117E-02    3.12       0.0  T
   2    -69.4847100 -0.992057E-07  0.702E-03    3.12       2.1  T
   3    -69.4847099  0.857497E-07  0.180E-03    3.12       8.3  T
   4    -69.4847100 -0.100654E-06  0.579E-04    3.12      25.7  T
   5    -69.4847100 -0.990940E-08  0.194E-04    3.12      76.7  T
     SCC iter.                  ...        0 min,  0.012 sec
     gradient                   ...        0 min,  0.005 sec
 * total energy  :   -68.7146828 Eh     change       -0.3359672E-04 Eh
   gradient norm :     0.0016833 Eh/α   predicted    -0.2285088E-04 ( -31.98%)
   displ. norm   :     0.1292518 α      lambda       -0.4969535E-04
   maximum displ.:     0.0569213 α      in ANC's #9, #1, #2, ...

........................................................................
.............................. CYCLE   45 ..............................
........................................................................

 iter      E             dE          RMSdq      gap      omega  full diag
   1    -69.4844823 -0.694845E+02  0.304E-02    3.11       0.0  T
   2    -69.4844827 -0.398173E-06  0.183E-02    3.11       1.0  T
   3    -69.4844822  0.490393E-06  0.409E-03    3.11       3.6  T
   4    -69.4844827 -0.561301E-06  0.132E-03    3.11      11.3  T
   5    -69.4844828 -0.498648E-07  0.473E-04    3.11      31.5  T
   6    -69.4844828 -0.121383E-08  0.178E-04    3.11      84.0  T
     SCC iter.                  ...        0 min,  0.022 sec
     gradient                   ...        0 min,  0.007 sec
 * total energy  :   -68.7147151 Eh     change       -0.3228343E-04 Eh
   gradient norm :     0.0040742 Eh/α   predicted    -0.2503325E-04 ( -22.46%)
   displ. norm   :     0.0506209 α      lambda       -0.2595830E-04
   maximum displ.:     0.0247016 α      in ANC's #1, #2, #9, ...

........................................................................
.............................. CYCLE   46 ..............................
........................................................................

 iter      E             dE          RMSdq      gap      omega  full diag
   1    -69.4847089 -0.694847E+02  0.117E-02    3.12       0.0  T
   2    -69.4847090 -0.456519E-07  0.708E-03    3.12       2.1  T
   3    -69.4847089  0.502567E-07  0.128E-03    3.12      11.6  T
   4    -69.4847090 -0.616842E-07  0.418E-04    3.12      35.7  T
   5    -69.4847090 -0.419797E-08  0.191E-04    3.12      78.1  T
     SCC iter.                  ...        0 min,  0.016 sec
     gradient                   ...        0 min,  0.007 sec
 * total energy  :   -68.7147349 Eh     change       -0.1981699E-04 Eh
   gradient norm :     0.0029800 Eh/α   predicted    -0.1301697E-04 ( -34.31%)
   displ. norm   :     0.1121177 α      lambda       -0.4389007E-04
   maximum displ.:     0.0572159 α      in ANC's #1, #2, #9, ...

........................................................................
.............................. CYCLE   47 ..............................
........................................................................

 iter      E             dE          RMSdq      gap      omega  full diag
   1    -69.4851080 -0.694851E+02  0.218E-02    3.13       0.0  T
   2    -69.4851082 -0.209045E-06  0.131E-02    3.12       1.1  T
   3    -69.4851080  0.133063E-06  0.232E-03    3.12       6.4  T
   4    -69.4851082 -0.176903E-06  0.797E-04    3.12      18.7  T
   5    -69.4851082 -0.136326E-07  0.432E-04    3.12      34.5  T
     SCC iter.                  ...        0 min,  0.018 sec
     gradient                   ...        0 min,  0.006 sec
 * total energy  :   -68.7147659 Eh     change       -0.3101826E-04 Eh
   gradient norm :     0.0017348 Eh/α   predicted    -0.2222203E-04 ( -28.36%)
   displ. norm   :     0.1857395 α      lambda       -0.2855890E-04
   maximum displ.:     0.0987871 α      in ANC's #1, #2, #6, ...

........................................................................
.............................. CYCLE   48 ..............................
........................................................................

 iter      E             dE          RMSdq      gap      omega  full diag
   1    -69.4851559 -0.694852E+02  0.362E-02    3.13       0.0  T
   2    -69.4851563 -0.393302E-06  0.217E-02    3.13       1.0  T
   3    -69.4851562  0.230054E-07  0.223E-03    3.13       6.7  T
   4    -69.4851564 -0.121848E-06  0.869E-04    3.13      17.1  T
   5    -69.4851564 -0.671321E-10  0.595E-04    3.13      25.1  T
     SCC iter.                  ...        0 min,  0.013 sec
     gradient                   ...        0 min,  0.006 sec
 * total energy  :   -68.7147927 Eh     change       -0.2679295E-04 Eh
   gradient norm :     0.0027651 Eh/α   predicted    -0.1450208E-04 ( -45.87%)
   displ. norm   :     0.0854497 α      lambda       -0.1935950E-04
   maximum displ.:     0.0483426 α      in ANC's #1, #2, #6, ...

........................................................................
.............................. CYCLE   49 ..............................
........................................................................

 iter      E             dE          RMSdq      gap      omega  full diag
   1    -69.4851309 -0.694851E+02  0.174E-02    3.13       0.0  T
   2    -69.4851309 -0.472040E-07  0.104E-02    3.13       1.4  T
   3    -69.4851309  0.512745E-07  0.138E-03    3.13      10.8  T
   4    -69.4851309 -0.695122E-07  0.489E-04    3.13      30.5  T
   5    -69.4851310 -0.378975E-08  0.227E-04    3.13      65.6  T
     SCC iter.                  ...        0 min,  0.012 sec
     gradient                   ...        0 min,  0.006 sec
 * total energy  :   -68.7148089 Eh     change       -0.1624949E-04 Eh
   gradient norm :     0.0018854 Eh/α   predicted    -0.9755366E-05 ( -39.97%)
   displ. norm   :     0.2065998 α      lambda       -0.3181984E-04
   maximum displ.:     0.1189977 α      in ANC's #1, #2, #6, ...

........................................................................
.............................. CYCLE   50 ..............................
........................................................................

 iter      E             dE          RMSdq      gap      omega  full diag
   1    -69.4849781 -0.694850E+02  0.428E-02    3.13       0.0  T
   2    -69.4849784 -0.266138E-06  0.254E-02    3.13       1.0  T
   3    -69.4849780  0.385422E-06  0.352E-03    3.13       4.2  T
   4    -69.4849785 -0.491168E-06  0.112E-03    3.13      13.3  T
   5    -69.4849785 -0.220806E-07  0.554E-04    3.13      26.9  T
   6    -69.4849785 -0.169540E-08  0.154E-04    3.13      96.8  T
     SCC iter.                  ...        0 min,  0.021 sec
     gradient                   ...        0 min,  0.007 sec
 * total energy  :   -68.7148420 Eh     change       -0.3304266E-04 Eh
   gradient norm :     0.0021364 Eh/α   predicted    -0.1621311E-04 ( -50.93%)
   displ. norm   :     0.1240027 α      lambda       -0.2217568E-04
   maximum displ.:     0.0725001 α      in ANC's #1, #2, #6, ...

........................................................................
.............................. CYCLE   51 ..............................
........................................................................

 iter      E             dE          RMSdq      gap      omega  full diag
   1    -69.4848763 -0.694849E+02  0.239E-02    3.13       0.0  T
   2    -69.4848764 -0.632576E-07  0.141E-02    3.13       1.1  T
   3    -69.4848764  0.848466E-08  0.107E-03    3.13      13.9  T
   4    -69.4848764 -0.313855E-07  0.549E-04    3.13      27.1  T
   5    -69.4848764 -0.548822E-08  0.241E-04    3.13      61.7  T
     SCC iter.                  ...        0 min,  0.017 sec
     gradient                   ...        0 min,  0.005 sec
 * total energy  :   -68.7148625 Eh     change       -0.2050049E-04 Eh
   gradient norm :     0.0023991 Eh/α   predicted    -0.1126169E-04 ( -45.07%)
   displ. norm   :     0.2252519 α      lambda       -0.4718130E-04
   maximum displ.:     0.1300012 α      in ANC's #1, #2, #6, ...

........................................................................
.............................. CYCLE   52 ..............................
........................................................................

 iter      E             dE          RMSdq      gap      omega  full diag
   1    -69.4847969 -0.694848E+02  0.430E-02    3.14       0.0  T
   2    -69.4847972 -0.222558E-06  0.254E-02    3.14       1.0  T
   3    -69.4847972 -0.604980E-08  0.173E-03    3.14       8.6  T
   4    -69.4847972 -0.656880E-07  0.991E-04    3.14      15.0  T
   5    -69.4847973 -0.189995E-07  0.436E-04    3.14      34.2  T
     SCC iter.                  ...        0 min,  0.012 sec
     gradient                   ...        0 min,  0.004 sec
 * total energy  :   -68.7149040 Eh     change       -0.4155850E-04 Eh
   gradient norm :     0.0021190 Eh/α   predicted    -0.2480024E-04 ( -40.32%)
   displ. norm   :     0.3593173 α      lambda       -0.6703134E-04
   maximum displ.:     0.2083443 α      in ANC's #1, #2, #6, ...

........................................................................
.............................. CYCLE   53 ..............................
........................................................................

 iter      E             dE          RMSdq      gap      omega  full diag
   1    -69.4842638 -0.694843E+02  0.665E-02    3.15       0.0  T
   2    -69.4842643 -0.537907E-06  0.393E-02    3.15       1.0  T
   3    -69.4842643 -0.159310E-07  0.283E-03    3.15       5.3  T
   4    -69.4842645 -0.195331E-06  0.137E-03    3.15      10.9  T
   5    -69.4842646 -0.168214E-07  0.805E-04    3.15      18.5  T
   6    -69.4842646 -0.967704E-08  0.259E-04    3.15      57.5  T
     SCC iter.                  ...        0 min,  0.014 sec
     gradient                   ...        0 min,  0.005 sec
 * total energy  :   -68.7149566 Eh     change       -0.5253138E-04 Eh
   gradient norm :     0.0017822 Eh/α   predicted    -0.3784364E-04 ( -27.96%)
   displ. norm   :     0.5181245 α      lambda       -0.4891188E-04
   maximum displ.:     0.3039329 α      in ANC's #1, #2, #6, ...

........................................................................
.............................. CYCLE   54 ..............................
........................................................................

 iter      E             dE          RMSdq      gap      omega  full diag
   1    -69.4832009 -0.694832E+02  0.939E-02    3.17       0.0  T
   2    -69.4832021 -0.125999E-05  0.556E-02    3.17       1.0  T
   3    -69.4832020  0.101002E-06  0.453E-03    3.17       3.3  T
   4    -69.4832026 -0.566875E-06  0.193E-03    3.17       7.7  T
   5    -69.4832026 -0.221200E-07  0.128E-03    3.17      11.7  T
   6    -69.4832026 -0.270861E-07  0.393E-04    3.17      37.9  T
   7    -69.4832026 -0.100181E-08  0.120E-04    3.17     123.8  T
     SCC iter.                  ...        0 min,  0.017 sec
     gradient                   ...        0 min,  0.005 sec
 * total energy  :   -68.7150016 Eh     change       -0.4501417E-04 Eh
   gradient norm :     0.0026714 Eh/α   predicted    -0.2737522E-04 ( -39.19%)
   displ. norm   :     0.1726444 α      lambda       -0.3218380E-04
   maximum displ.:     0.1039525 α      in ANC's #1, #2, #6, ...

........................................................................
.............................. CYCLE   55 ..............................
........................................................................

 iter      E             dE          RMSdq      gap      omega  full diag
   1    -69.4842782 -0.694843E+02  0.276E-02    3.17       0.0  T
   2    -69.4842784 -0.169121E-06  0.164E-02    3.17       1.0  T
   3    -69.4842783  0.723947E-07  0.197E-03    3.17       7.6  T
   4    -69.4842784 -0.113171E-06  0.833E-04    3.17      17.9  T
   5    -69.4842784 -0.158500E-07  0.393E-04    3.17      37.9  T
     SCC iter.                  ...        0 min,  0.013 sec
     gradient                   ...        0 min,  0.005 sec
 * total energy  :   -68.7150276 Eh     change       -0.2598233E-04 Eh
   gradient norm :     0.0018953 Eh/α   predicted    -0.1657332E-04 ( -36.21%)
   displ. norm   :     0.5155643 α      lambda       -0.5439537E-04
   maximum displ.:     0.3094561 α      in ANC's #1, #2, #6, ...

........................................................................
.............................. CYCLE   56 ..............................
........................................................................

 iter      E             dE          RMSdq      gap      omega  full diag
   1    -69.4857555 -0.694858E+02  0.819E-02    3.19       0.0  T
   2    -69.4857568 -0.130135E-05  0.485E-02    3.19       1.0  T
   3    -69.4857569 -0.103936E-06  0.370E-03    3.20       4.0  T
   4    -69.4857572 -0.292623E-06  0.179E-03    3.20       8.3  T
   5    -69.4857572 -0.243331E-07  0.120E-03    3.19      12.4  T
   6    -69.4857572 -0.196957E-07  0.451E-04    3.20      33.0  T
   7    -69.4857572 -0.269593E-08  0.127E-04    3.20     117.2  T
     SCC iter.                  ...        0 min,  0.017 sec
     gradient                   ...        0 min,  0.005 sec
 * total energy  :   -68.7150861 Eh     change       -0.5851026E-04 Eh
   gradient norm :     0.0020736 Eh/α   predicted    -0.3041556E-04 ( -48.02%)
   displ. norm   :     0.3574172 α      lambda       -0.3924204E-04
   maximum displ.:     0.2137558 α      in ANC's #1, #2, #6, ...

........................................................................
.............................. CYCLE   57 ..............................
........................................................................

 iter      E             dE          RMSdq      gap      omega  full diag
   1    -69.4845806 -0.694846E+02  0.580E-02    3.21       0.0  T
   2    -69.4845812 -0.586068E-06  0.344E-02    3.21       1.0  T
   3    -69.4845811  0.966863E-07  0.324E-03    3.21       4.6  T
   4    -69.4845814 -0.303273E-06  0.134E-03    3.21      11.2  T
   5    -69.4845814 -0.149610E-07  0.924E-04    3.21      16.1  T
   6    -69.4845814 -0.135610E-07  0.269E-04    3.21      55.4  T
     SCC iter.                  ...        0 min,  0.013 sec
     gradient                   ...        0 min,  0.005 sec
 * total energy  :   -68.7151174 Eh     change       -0.3133818E-04 Eh
   gradient norm :     0.0019493 Eh/α   predicted    -0.2212813E-04 ( -29.39%)
   displ. norm   :     0.4428389 α      lambda       -0.4543905E-04
   maximum displ.:     0.2637942 α      in ANC's #2, #1, #6, ...

........................................................................
.............................. CYCLE   58 ..............................
........................................................................

 iter      E             dE          RMSdq      gap      omega  full diag
   1    -69.4852812 -0.694853E+02  0.663E-02    3.22       0.0  T
   2    -69.4852818 -0.625404E-06  0.394E-02    3.22       1.0  T
   3    -69.4852820 -0.205093E-06  0.243E-03    3.22       6.1  T
   4    -69.4852821 -0.649394E-07  0.157E-03    3.22       9.5  T
   5    -69.4852821 -0.183785E-07  0.858E-04    3.22      17.4  T
   6    -69.4852821 -0.134894E-07  0.273E-04    3.22      54.6  T
     SCC iter.                  ...        0 min,  0.014 sec
     gradient                   ...        0 min,  0.005 sec
 * total energy  :   -68.7151587 Eh     change       -0.4131664E-04 Eh
   gradient norm :     0.0018976 Eh/α   predicted    -0.2470064E-04 ( -40.22%)
[...]
O8-C6-C5-H28=296.38           O8-C6-C5-H29= 55.01           H30-C6-C5-O4=289.73           H30-C6-C5-H28= 54.21          
H30-C6-C5-H29=172.84          H31-C7-C6-C5= 66.01           H31-C7-C6-O8=306.63           H31-C7-C6-H30=188.23          
H32-C7-C6-C5=186.20           H32-C7-C6-O8= 66.82           H32-C7-C6-H30=308.42          H33-C7-C6-C5=307.04           
H33-C7-C6-O8=187.66           H33-C7-C6-H30= 69.26          C9-O8-C6-C5= 81.92            C9-O8-C6-C7=202.77            
C9-O8-C6-H30=323.06           O10-C9-O8-C6=  0.62           C11-C9-O8-C6=180.35           
           -------------------------------------------------
          |                Final Singlepoint                |
           -------------------------------------------------

          ...................................................
          :                      SETUP                      :
          :.................................................:
          :  # basis functions                 108          :
          :  # atomic orbitals                 108          :
          :  # shells                           66          :
          :  # electrons                       120          :
          :  max. iterations                   250          :
          :  Hamiltonian                  GFN2-xTB          :
          :  restarted?                      false          :
          :  GBSA solvation                  false          :
          :  PC potential                    false          :
          :  electronic temp.          300.0000000     K    :
          :  accuracy                    1.0000000          :
          :  -> integral cutoff          0.2500000E+02      :
          :  -> integral neglect         0.1000000E-07      :
          :  -> SCF convergence          0.1000000E-05 Eh   :
          :  -> wf. convergence          0.1000000E-03 e    :
          :  Broyden damping             0.4000000          :
          :  net charge                          0          :
          :  unpaired electrons                  0          :
          ...................................................

 iter      E             dE          RMSdq      gap      omega  full diag
   1    -69.4862008 -0.694862E+02  0.119E-04    3.23       0.0  T
   2    -69.4862008 -0.254232E-10  0.830E-05    3.23     179.6  T
   3    -69.4862008 -0.934222E-10  0.560E-05    3.23     266.2  T

   *** convergence criteria satisfied after 3 iterations ***

         #    Occupation            Energy/Eh            Energy/eV
      -------------------------------------------------------------
         1        2.0000           -0.7456538             -20.2903
       ...           ...                  ...                  ...
        54        2.0000           -0.4399067             -11.9705
        55        2.0000           -0.4381606             -11.9230
        56        2.0000           -0.4346221             -11.8267
        57        2.0000           -0.4185840             -11.3902
        58        2.0000           -0.4114192             -11.1953
        59        2.0000           -0.4016438             -10.9293
        60        2.0000           -0.4005443             -10.8994 (HOMO)
        61                         -0.2817627              -7.6672 (LUMO)
        62                         -0.2744348              -7.4678
        63                         -0.1701812              -4.6309
        64                         -0.1646683              -4.4809
        65                         -0.0220394              -0.5997
       ...                                ...                  ...
       108                          0.7007047              19.0671
      -------------------------------------------------------------
                  HL-Gap            0.1187817 Eh            3.2322 eV
             Fermi-level           -0.3411535 Eh           -9.2833 eV

 SCC (total)                   0 d,  0 h,  0 min,  0.047 sec
 SCC setup                      ...        0 min,  0.000 sec (  0.182%)
 Dispersion                     ...        0 min,  0.000 sec (  0.360%)
 classical contributions        ...        0 min,  0.000 sec (  0.032%)
 integral evaluation            ...        0 min,  0.001 sec (  2.263%)
 iterations                     ...        0 min,  0.007 sec ( 15.130%)
 molecular gradient             ...        0 min,  0.034 sec ( 73.427%)
 printout                       ...        0 min,  0.004 sec (  8.553%)

         :::::::::::::::::::::::::::::::::::::::::::::::::::::
         ::                     SUMMARY                     ::
         :::::::::::::::::::::::::::::::::::::::::::::::::::::
         :: total energy             -68.715648942006 Eh    ::
         :: gradient norm              0.000656068128 Eh/a0 ::
         :: HOMO-LUMO gap              3.232213454762 eV    ::
         ::.................................................::
         :: SCC energy               -69.485746124800 Eh    ::
         :: -> isotropic ES            0.126914835195 Eh    ::
         :: -> anisotropic ES          0.002693359730 Eh    ::
         :: -> anisotropic XC          0.013796801862 Eh    ::
         :: -> dispersion             -0.037742781362 Eh    ::
         :: repulsion energy           0.770097182793 Eh    ::
         :: add. restraining           0.000000000000 Eh    ::
         :: total charge              -0.000000000000 e     ::
         :::::::::::::::::::::::::::::::::::::::::::::::::::::

           -------------------------------------------------
          |                Property Printout                |
           -------------------------------------------------

    * Orbital Energies and Occupations

         #    Occupation            Energy/Eh            Energy/eV
      -------------------------------------------------------------
         1        2.0000           -0.7456538             -20.2903
       ...           ...                  ...                  ...
        48        2.0000           -0.4623092             -12.5801
        49        2.0000           -0.4610776             -12.5466
        50        2.0000           -0.4567875             -12.4298
        51        2.0000           -0.4505720             -12.2607
        52        2.0000           -0.4497990             -12.2397
        53        2.0000           -0.4442212             -12.0879
        54        2.0000           -0.4399067             -11.9705
        55        2.0000           -0.4381606             -11.9230
        56        2.0000           -0.4346221             -11.8267
        57        2.0000           -0.4185840             -11.3902
        58        2.0000           -0.4114192             -11.1953
        59        2.0000           -0.4016438             -10.9293
        60        2.0000           -0.4005443             -10.8994 (HOMO)
        61                         -0.2817627              -7.6672 (LUMO)
        62                         -0.2744348              -7.4678
        63                         -0.1701812              -4.6309
        64                         -0.1646683              -4.4809
        65                         -0.0220394              -0.5997
        66                         -0.0094808              -0.2580
        67                          0.0152203               0.4142
        68                          0.0402932               1.0964
        69                          0.0690545               1.8791
        70                          0.0717108               1.9514
        71                          0.0742122               2.0194
       ...                                ...                  ...
       108                          0.7007047              19.0671
      -------------------------------------------------------------
                  HL-Gap            0.1187817 Eh            3.2322 eV
             Fermi-level           -0.3411535 Eh           -9.2833 eV

     #   Z          covCN         q      C6AA      α(0)
     1   6 C        3.754    -0.117    22.800     6.809
     2   6 C        3.742     0.119    18.709     6.171
     3   6 C        3.697     0.073    19.512     6.318
     4   8 O        1.701    -0.301    19.013     5.887
     5   6 C        3.698     0.073    19.521     6.319
     6   6 C        3.747     0.111    18.819     6.188
     7   6 C        3.754    -0.119    22.838     6.815
     8   8 O        1.705    -0.271    18.490     5.806
     9   6 C        2.720     0.355    20.970     7.496
    10   8 O        0.857    -0.419    22.060     6.297
    11   6 C        2.887    -0.057    29.425     8.893
    12   6 C        2.838    -0.062    29.540     8.907
    13   8 O        1.702    -0.305    19.077     5.897
    14   6 C        3.694     0.080    19.408     6.303
    15   6 C        3.749     0.118    18.715     6.170
    16   6 C        3.754    -0.120    22.867     6.819
    17   8 O        1.705    -0.251    18.162     5.754
    18   6 C        2.721     0.357    20.935     7.490
    19   8 O        0.857    -0.423    22.146     6.309
    20   6 C        2.887    -0.057    29.419     8.892
    21   6 C        2.839    -0.063    29.554     8.909
    22   1 H        0.925     0.056     2.249     2.345
    23   1 H        0.925     0.074     2.042     2.235
    24   1 H        0.925     0.048     2.343     2.394
    25   1 H        0.923     0.016     2.797     2.615
    26   1 H        0.923     0.026     2.639     2.541
    27   1 H        0.924     0.023     2.684     2.562
    28   1 H        0.923     0.036     2.508     2.477
    29   1 H        0.924     0.059     2.215     2.327
    30   1 H        0.923     0.045     2.381     2.413
    31   1 H        0.925     0.059     2.209     2.324
    32   1 H        0.925     0.049     2.330     2.387
    33   1 H        0.925     0.074     2.045     2.236
    34   1 H        0.926     0.073     2.057     2.243
    35   1 H        0.926     0.064     2.149     2.293
    36   1 H        0.926     0.073     2.052     2.240
    37   1 H        0.923     0.023     2.687     2.563
    38   1 H        0.923     0.038     2.474     2.460
    39   1 H        0.923     0.048     2.349     2.397
    40   1 H        0.925     0.059     2.215     2.327
    41   1 H        0.925     0.076     2.016     2.220
    42   1 H        0.925     0.052     2.298     2.371
    43   1 H        0.926     0.070     2.082     2.257
    44   1 H        0.926     0.076     2.022     2.224
    45   1 H        0.926     0.062     2.178     2.308

 Mol. C6AA /au·bohr⁶  :      17970.059242
 Mol. C8AA /au·bohr⁸  :     395201.043351
 Mol. α(0) /au        :        201.207105


Wiberg/Mayer (AO) data.
largest (>0.10) Wiberg bond orders for each atom

 ---------------------------------------------------------------------------
     #   Z sym  total        # sym  WBO       # sym  WBO       # sym  WBO
 ---------------------------------------------------------------------------
     1   6 C    3.990 --     2 C    1.002    24 H    0.985    22 H    0.985
                            23 H    0.982
     2   6 C    3.954 --     1 C    1.002    13 O    0.976     3 C    0.975
                            25 H    0.957
     3   6 C    3.957 --     4 O    0.984     2 C    0.975    26 H    0.966
                            27 H    0.965
     4   8 O    2.090 --     5 C    0.997     3 C    0.984
     5   6 C    3.956 --     4 O    0.997    29 H    0.967    28 H    0.966
                             6 C    0.965
     6   6 C    3.926 --     7 C    1.009     5 C    0.965    30 H    0.957
                             8 O    0.929
     7   6 C    3.989 --     6 C    1.009    32 H    0.986    31 H    0.984
                            33 H    0.977
     8   8 O    2.306 --     9 C    1.125     6 C    0.929    10 O    0.172
     9   6 C    3.919 --    10 O    1.718     8 O    1.125    11 C    1.013
    10   8 O    2.027 --     9 C    1.718     8 O    0.172
    11   6 C    3.987 --    12 C    1.933     9 C    1.013    34 H    0.963
    12   6 C    3.982 --    11 C    1.933    35 H    0.975    36 H    0.971
    13   8 O    2.087 --    14 C    0.992     2 C    0.976
    14   6 C    3.960 --    13 O    0.992    15 C    0.978    37 H    0.963
                            38 H    0.963
    15   6 C    3.934 --    16 C    1.007    14 C    0.978    39 H    0.958
                            17 O    0.936
    16   6 C    3.989 --    15 C    1.007    40 H    0.984    42 H    0.983
                            41 H    0.981
    17   8 O    2.324 --    18 C    1.134    15 C    0.936    19 O    0.173
    18   6 C    3.919 --    19 O    1.713    17 O    1.134    20 C    1.011
    19   8 O    2.022 --    18 C    1.713    17 O    0.173
    20   6 C    3.987 --    21 C    1.935    18 C    1.011    43 H    0.963
    21   6 C    3.983 --    20 C    1.935    45 H    0.975    44 H    0.971
    22   1 H    0.997 --     1 C    0.985
    23   1 H    0.995 --     1 C    0.982
    24   1 H    0.997 --     1 C    0.985
    25   1 H    0.999 --     2 C    0.957
    26   1 H    0.999 --     3 C    0.966
    27   1 H    0.999 --     3 C    0.965
    28   1 H    0.999 --     5 C    0.966
    29   1 H    0.996 --     5 C    0.967
    30   1 H    0.998 --     6 C    0.957
    31   1 H    0.996 --     7 C    0.984
    32   1 H    0.998 --     7 C    0.986
    33   1 H    0.994 --     7 C    0.977
    34   1 H    0.994 --    11 C    0.963
    35   1 H    0.996 --    12 C    0.975
    36   1 H    0.995 --    12 C    0.971
    37   1 H    0.999 --    14 C    0.963
    38   1 H    0.999 --    14 C    0.963
    39   1 H    0.997 --    15 C    0.958
    40   1 H    0.997 --    16 C    0.984
    41   1 H    0.994 --    16 C    0.981
    42   1 H    0.997 --    16 C    0.983
    43   1 H    0.995 --    20 C    0.963
    44   1 H    0.994 --    21 C    0.971
    45   1 H    0.996 --    21 C    0.975
 ---------------------------------------------------------------------------

Topologies differ in total number of bonds
Writing topology from bond orders to xtbtopo.mol

molecular dipole:
                 x           y           z       tot (Debye)
 q only:        1.044      -1.286      -0.237
   full:        1.048      -0.926      -0.013       3.554
molecular quadrupole (traceless):
                xx          xy          yy          xz          yz          zz
 q only:       -2.121       4.106      -6.755      14.085      -2.719       8.876
  q+dip:       -0.798       3.991      -7.172      14.946      -2.578       7.970
   full:       -1.141       5.601      -7.777      14.084      -3.881       8.918

           -------------------------------------------------
          |                Geometry Summary                 |
           -------------------------------------------------

      molecular mass/u    :      300.3480460
   center of mass at/Å    :       -0.1026554       0.1289523       0.1264128
  moments of inertia/u·Å² :        0.7058507E+03   0.4770452E+04   0.4999258E+04
rotational constants/cm⁻¹ :        0.2388272E-01   0.3533760E-02   0.3372027E-02

 * 41 selected distances

     #   Z          #   Z                                           value/Å
     1   6 C        2   6 C                                       1.5242885
     2   6 C        3   6 C                                       1.5390239 (max)
     3   6 C        4   8 O                                       1.4106853
     4   8 O        5   6 C                                       1.4007820
     6   6 C        7   6 C                                       1.5196697
     6   6 C        8   8 O                                       1.4297650
     8   8 O        9   6 C                                       1.3381895
     9   6 C       10   8 O                                       1.2081778
    11   6 C       12   6 C                                       1.3247783
     2   6 C       13   8 O                                       1.4110965
    13   8 O       14   6 C                                       1.4056277
    14   6 C       15   6 C                                       1.5350975
    15   6 C       16   6 C                                       1.5203992
    15   6 C       17   8 O                                       1.4271634
    17   8 O       18   6 C                                       1.3345240
    18   6 C       19   8 O                                       1.2089672
    20   6 C       21   6 C                                       1.3245970
     1   6 C       22   1 H                                       1.0860433
     1   6 C       23   1 H                                       1.0848110
     1   6 C       24   1 H                                       1.0854687
     2   6 C       25   1 H                                       1.1042225
     3   6 C       26   1 H                                       1.1002496
     3   6 C       27   1 H                                       1.0972878
     5   6 C       28   1 H                                       1.0990666
     5   6 C       29   1 H                                       1.0943537
     6   6 C       30   1 H                                       1.0979178
     7   6 C       31   1 H                                       1.0866514
     7   6 C       32   1 H                                       1.0867981
     7   6 C       33   1 H                                       1.0862766
    11   6 C       34   1 H                                       1.0805402
    12   6 C       35   1 H                                       1.0770838
    12   6 C       36   1 H                                       1.0768352 (min)
    14   6 C       37   1 H                                       1.1002579
    14   6 C       38   1 H                                       1.0997792
    15   6 C       39   1 H                                       1.0989727
    16   6 C       40   1 H                                       1.0863877
    16   6 C       41   1 H                                       1.0859254
    16   6 C       42   1 H                                       1.0858405
    20   6 C       43   1 H                                       1.0806213
    21   6 C       44   1 H                                       1.0768458
    21   6 C       45   1 H                                       1.0773094

 * 3 distinct bonds (by element types)

   Z      Z             #   av. dist./Å        max./Å        min./Å
   1 H    6 C          24     1.0889811     1.1042225     1.0768352
   6 C    6 C           7     1.4696934     1.5390239     1.3245970
   6 C    8 O          10     1.3574978     1.4297650     1.2081778


optimized geometry written to: xtbopt.xyz


           -------------------------------------------------
          | TOTAL ENERGY              -68.715648942006 Eh   |
          | GRADIENT NORM               0.000656068128 Eh/α |
          | HOMO-LUMO GAP               3.232213454762 eV   |
           -------------------------------------------------
########################################################################
[WARNING] Runtime exception occurred
-2- restart_readRestart: Dimension missmatch in restart file.
-1- restart_readRestart: Number of electron missmatch in restart file.
########################################################################

------------------------------------------------------------------------
 * finished run on 2025/12/01 at 14:20:04.010     
------------------------------------------------------------------------
 total:
 * wall-time:     0 d,  0 h,  0 min,  2.163 sec
 *  cpu-time:     0 d,  0 h,  0 min, 48.920 sec
 * ratio c/w:    22.613 speedup
 SCF:
 * wall-time:     0 d,  0 h,  0 min,  0.051 sec
 *  cpu-time:     0 d,  0 h,  0 min,  1.161 sec
 * ratio c/w:    22.559 speedup
 ANC optimizer:
 * wall-time:     0 d,  0 h,  0 min,  2.082 sec
 *  cpu-time:     0 d,  0 h,  0 min, 47.455 sec
 * ratio c/w:    22.794 speedup

normal termination of xtb
