      -----------------------------------------------------------      
     |                   =====================                   |     
     |                           x T B                           |     
     |                   =====================                   |     
     |                         S. Grimme                         |     
     |          Mulliken Center for Theoretical Chemistry        |     
     |                    University of Bonn                     |     
      -----------------------------------------------------------      

   * xtb version 6.7.1 (edcfbbe) compiled by 'albert@albert-system' on 2024-07-22

   xtb is free software: you can redistribute it and/or modify it under
   the terms of the GNU Lesser General Public License as published by
   the Free Software Foundation, either version 3 of the License, or
   (at your option) any later version.
   
   xtb is distributed in the hope that it will be useful,
   but WITHOUT ANY WARRANTY; without even the implied warranty of
   MERCHANTABILITY or FITNESS FOR A PARTICULAR PURPOSE.  See the
   GNU Lesser General Public License for more details.
   
   Cite this work as:
   * C. Bannwarth, E. Caldeweyher, S. Ehlert, A. Hansen, P. Pracht,
     J. Seibert, S. Spicher, S. Grimme, WIREs Comput. Mol. Sci., 2020, 11,
     e01493. DOI: 10.1002/wcms.1493
   
   for GFN2-xTB:
   * C. Bannwarth, S. Ehlert and S. Grimme., J. Chem. Theory Comput., 2019,
     15, 1652-1671. DOI: 10.1021/acs.jctc.8b01176
   for GFN1-xTB:
   * S. Grimme, C. Bannwarth, P. Shushkov, J. Chem. Theory Comput., 2017,
     13, 1989-2009. DOI: 10.1021/acs.jctc.7b00118
   for GFN0-xTB:
   * P. Pracht, E. Caldeweyher, S. Ehlert, S. Grimme, ChemRxiv, 2019, preprint.
     DOI: 10.26434/chemrxiv.8326202.v1
   for GFN-FF:
   * S. Spicher and S. Grimme, Angew. Chem. Int. Ed., 2020, 59, 15665-15673.
     DOI: 10.1002/anie.202004239
   
   for ALPB and GBSA implicit solvation:
   * S. Ehlert, M. Stahn, S. Spicher, S. Grimme, J. Chem. Theory Comput.,
     2021, 17, 4250-4261. DOI: 10.1021/acs.jctc.1c00471
   
   for ddCOSMO and CPCM-X implicit solvation:
   * M. Stahn, S. Ehlert, S. Grimme, J. Phys. Chem. A,
     2023, XX, XXXX-XXXX. DOI: 10.1021/acs.jpca.3c04382
   
   for DFT-D4:
   * E. Caldeweyher, C. Bannwarth and S. Grimme, J. Chem. Phys., 2017,
     147, 034112. DOI: 10.1063/1.4993215
   * E. Caldeweyher, S. Ehlert, A. Hansen, H. Neugebauer, S. Spicher,
     C. Bannwarth and S. Grimme, J. Chem. Phys., 2019, 150, 154122.
     DOI: 10.1063/1.5090222
   * E. Caldeweyher, J.-M. Mewes, S. Ehlert and S. Grimme, Phys. Chem. Chem. Phys.
     2020, 22, 8499-8512. DOI: 10.1039/D0CP00502A
   
   for sTDA-xTB:
   * S. Grimme and C. Bannwarth, J. Chem. Phys., 2016, 145, 054103.
     DOI: 10.1063/1.4959605
   
   in the mass-spec context:
   * V. Asgeirsson, C. Bauer and S. Grimme, Chem. Sci., 2017, 8, 4879.
     DOI: 10.1039/c7sc00601b
   * J. Koopman and S. Grimme, ACS Omega 2019, 4, 12, 15120-15133.
     DOI: 10.1021/acsomega.9b02011
   
   for metadynamics refer to:
   * S. Grimme, J. Chem. Theory Comput., 2019, 155, 2847-2862
     DOI: 10.1021/acs.jctc.9b00143
   
   for SPH calculations refer to:
   * S. Spicher and S. Grimme, J. Chem. Theory Comput., 2021, 17, 1701-1714
     DOI: 10.1021/acs.jctc.0c01306
   
   for ONIOM refer to:
   * C. Plett, A. Katbashev, S. Ehlert, S. Grimme, M. Bursch,
     Phys. Chem. Chem. Phys., 2023, 25, 17860-17868. DOI: 10.1039/D3CP02178E
   
   for DIPRO refer to:
   * J. Kohn, N. Gildemeister, S. Grimme, D. Fazzi, A. Hansen,
     J. Chem. Phys., 2023, just accepted.
   
   for PTB refer to:
   * S. Grimme, M. Mueller, A. Hansen, J. Chem. Phys., 2023, 158, 124111.
     DOI: 10.1063/5.0137838
   
   with help from (in alphabetical order)
   P. Atkinson, C. Bannwarth, F. Bohle, G. Brandenburg, E. Caldeweyher
   M. Checinski, S. Dohm, S. Ehlert, S. Ehrlich, I. Gerasimov, C. Hölzer
   A. Katbashev, J. Kohn, J. Koopman, C. Lavigne, S. Lehtola, F. März, M. Müller,
   F. Musil, H. Neugebauer, J. Pisarek, C. Plett, P. Pracht, F. Pultar,
   J. Seibert, P. Shushkov, S. Spicher, M. Stahn, M. Steiner, T. Strunk,
   J. Stückrath, T. Rose, and J. Unsleber
   
 * started run on 2025/12/01 at 14:20:10.281     
   ID    Z sym.   atoms
    1    6 C      1-3, 5-7, 9, 11, 12, 14-16, 18, 20, 21
    2    8 O      4, 8, 10, 13, 17, 19
    3    1 H      22-45

           -------------------------------------------------
          |                Calculation Setup                |
           -------------------------------------------------

          program call               : xtb pipeline_data/3_conformer_xyz/acrylates/rdkit/ZDQNWDNMNKSMHI-FRRDWIJNSA-N_conf30.xyz --opt --gfn 2-xTB --iterations 250
          coordinate file            : pipeline_data/3_conformer_xyz/acrylates/rdkit/ZDQNWDNMNKSMHI-FRRDWIJNSA-N_conf30.xyz
          omp threads                :                    24

########################################################################
[WARNING] Please study the warnings concerning your input carefully
-1- readin_getIntValue: could not parse '2-xTB'
########################################################################

           -------------------------------------------------
          |                 G F N 2 - x T B                 |
           -------------------------------------------------

        Reference                      10.1021/acs.jctc.8b01176
      * Hamiltonian:
        H0-scaling (s, p, d)           1.850000    2.230000    2.230000
        zeta-weighting                 0.500000
      * Dispersion:
        s8                             2.700000
        a1                             0.520000
        a2                             5.000000
        s9                             5.000000
      * Repulsion:
        kExp                           1.500000    1.000000
        rExp                           1.000000
      * Coulomb:
        alpha                          2.000000
        third order                    shell-resolved
        anisotropic                    true
        a3                             3.000000
        a5                             4.000000
        cn-shift                       1.200000
        cn-exp                         4.000000
        max-rad                        5.000000

q/qsh data taken from xtbrestart
CAMM data taken from xtbrestart

          ...................................................
          :                      SETUP                      :
          :.................................................:
          :  # basis functions                 108          :
          :  # atomic orbitals                 108          :
          :  # shells                           66          :
          :  # electrons                       120          :
          :  max. iterations                   250          :
          :  Hamiltonian                  GFN2-xTB          :
          :  restarted?                       true          :
          :  GBSA solvation                  false          :
          :  PC potential                    false          :
          :  electronic temp.          300.0000000     K    :
          :  accuracy                    1.0000000          :
          :  -> integral cutoff          0.2500000E+02      :
          :  -> integral neglect         0.1000000E-07      :
          :  -> SCF convergence          0.1000000E-05 Eh   :
          :  -> wf. convergence          0.1000000E-03 e    :
          :  Broyden damping             0.4000000          :
          :  net charge                          0          :
          :  unpaired electrons                  0          :
          ...................................................

 iter      E             dE          RMSdq      gap      omega  full diag
   1    -69.3706331 -0.693706E+02  0.463E+00    2.73       0.0  T
   2    -69.3861592 -0.155261E-01  0.277E+00    2.58       1.0  T
   3    -69.3763468  0.981235E-02  0.714E-01    2.38       1.0  T
   4    -69.3905207 -0.141739E-01  0.269E-01    2.50       1.0  T
   5    -69.3917594 -0.123862E-02  0.117E-01    2.55       1.0  T
   6    -69.3917991 -0.397662E-04  0.391E-02    2.56       1.0  T
   7    -69.3918194 -0.202326E-04  0.165E-02    2.56       1.0  T
   8    -69.3918223 -0.292173E-05  0.854E-03    2.55       1.7  T
   9    -69.3918233 -0.101848E-05  0.436E-03    2.55       3.4  T
  10    -69.3918236 -0.313948E-06  0.166E-03    2.55       9.0  T
  11    -69.3918236 -0.142970E-07  0.592E-04    2.55      25.2  T
  12    -69.3918236 -0.287869E-08  0.240E-04    2.55      62.1  T

   *** convergence criteria satisfied after 12 iterations ***

         #    Occupation            Energy/Eh            Energy/eV
      -------------------------------------------------------------
         1        2.0000           -0.7323530             -19.9283
       ...           ...                  ...                  ...
        54        2.0000           -0.4355090             -11.8508
        55        2.0000           -0.4319362             -11.7536
        56        2.0000           -0.4231256             -11.5138
        57        2.0000           -0.4170731             -11.3491
        58        2.0000           -0.4114507             -11.1961
        59        2.0000           -0.4093549             -11.1391
        60        2.0000           -0.3903660             -10.6224 (HOMO)
        61                         -0.2966507              -8.0723 (LUMO)
        62                         -0.2826069              -7.6901
        63                         -0.1830189              -4.9802
        64                         -0.1696008              -4.6151
        65                         -0.0470549              -1.2804
       ...                                ...                  ...
       108                          0.6156426              16.7525
      -------------------------------------------------------------
                  HL-Gap            0.0937153 Eh            2.5501 eV
             Fermi-level           -0.3435083 Eh           -9.3473 eV

 SCC (total)                   0 d,  0 h,  0 min,  0.047 sec
 SCC setup                      ...        0 min,  0.000 sec (  0.764%)
 Dispersion                     ...        0 min,  0.001 sec (  1.603%)
 classical contributions        ...        0 min,  0.000 sec (  0.185%)
 integral evaluation            ...        0 min,  0.002 sec (  4.943%)
 iterations                     ...        0 min,  0.038 sec ( 81.347%)
 molecular gradient             ...        0 min,  0.005 sec ( 10.529%)
 printout                       ...        0 min,  0.000 sec (  0.550%)

         :::::::::::::::::::::::::::::::::::::::::::::::::::::
         ::                     SUMMARY                     ::
         :::::::::::::::::::::::::::::::::::::::::::::::::::::
         :: total energy             -68.662971036897 Eh    ::
         :: gradient norm              0.199365373919 Eh/a0 ::
         :: HOMO-LUMO gap              2.550124192671 eV    ::
         ::.................................................::
         :: SCC energy               -69.391608848355 Eh    ::
         :: -> isotropic ES            0.131535467769 Eh    ::
         :: -> anisotropic ES          0.002371599165 Eh    ::
         :: -> anisotropic XC          0.014286738164 Eh    ::
         :: -> dispersion             -0.035101115187 Eh    ::
         :: repulsion energy           0.728637811458 Eh    ::
         :: add. restraining           0.000000000000 Eh    ::
         :: total charge              -0.000000000000 e     ::
         :::::::::::::::::::::::::::::::::::::::::::::::::::::

      ----------------------------------------------------------- 
     |                   =====================                   |
     |                        A N C O P T                        |
     |                   =====================                   |
     |               Approximate Normal Coordinate               |
     |                Rational Function Optimizer                |
      ----------------------------------------------------------- 
      ----------------------------------------------------------- 
     |                   =====================                   |
     |                        A N C O P T                        |
     |                   =====================                   |
     |               Approximate Normal Coordinate               |
     |                Rational Function Optimizer                |
      ----------------------------------------------------------- 

          ...................................................
          :                      SETUP                      :
          :.................................................:
          :   optimization level            normal          :
          :   max. optcycles                   200          :
          :   ANC micro-cycles                  20          :
          :   degrees of freedom               129          :
          :.................................................:
          :   RF solver                   davidson          :
          :   write xtbopt.log                true          :
          :   linear?                        false          :
          :   energy convergence         0.5000000E-05 Eh   :
          :   grad. convergence          0.1000000E-02 Eh/α :
          :   maxmium RF displ.          1.0000000          :
          :   Hlow (freq-cutoff)         0.1000000E-01      :
          :   Hmax (freq-cutoff)         5.0000000          :
          :   S6 in model hess.         20.0000000          :
          ...................................................

generating ANC from exact Hessian ...
Using Lindh-Hessian (1995)
 Shifting diagonal of input Hessian by   9.883811753860380E-003
 Lowest  eigenvalues of input Hessian
    0.000000    0.000000    0.000000    0.000000    0.000000    0.000000
    0.010000    0.010108    0.010209    0.010488    0.010585    0.010914
    0.011598    0.012036    0.012277    0.012955    0.013823    0.015428
 Highest eigenvalues
    1.764543    1.780112    1.861402    1.988637    2.097069    2.126958
 

........................................................................
.............................. CYCLE    1 ..............................
........................................................................

 iter      E             dE          RMSdq      gap      omega  full diag
   1    -69.3918236 -0.693918E+02  0.824E-05    2.55       0.0  T
   2    -69.3918236 -0.420926E-10  0.496E-05    2.55     300.8  T
   3    -69.3918236 -0.558487E-11  0.313E-05    2.55     476.2  T
     SCC iter.                  ...        0 min,  0.007 sec
     gradient                   ...        0 min,  0.006 sec
 * total energy  :   -68.6629710 Eh     change       -0.7016894E-09 Eh
   gradient norm :     0.1993671 Eh/α   predicted     0.0000000E+00 (-100.00%)
   displ. norm   :     0.3979443 α      lambda       -0.4280099E-01
   maximum displ.:     0.1468594 α      in ANC's #30, #52, #21, ...

........................................................................
.............................. CYCLE    2 ..............................
........................................................................

 iter      E             dE          RMSdq      gap      omega  full diag
   1    -69.4448858 -0.694449E+02  0.270E-01    2.93       0.0  T
   2    -69.4454090 -0.523213E-03  0.171E-01    2.86       1.0  T
   3    -69.4453227  0.862493E-04  0.102E-01    2.83       1.0  T
   4    -69.4454774 -0.154691E-03  0.387E-02    2.83       1.0  T
   5    -69.4455186 -0.411757E-04  0.821E-03    2.83       1.8  T
   6    -69.4455196 -0.957908E-06  0.389E-03    2.83       3.8  T
   7    -69.4455197 -0.122640E-06  0.126E-03    2.83      11.8  T
   8    -69.4455197 -0.501363E-08  0.539E-04    2.83      27.6  T
   9    -69.4455197 -0.126133E-08  0.282E-04    2.83      52.8  T
     SCC iter.                  ...        0 min,  0.019 sec
     gradient                   ...        0 min,  0.006 sec
 * total energy  :   -68.6942557 Eh     change       -0.3128465E-01 Eh
   gradient norm :     0.0879400 Eh/α   predicted    -0.2481500E-01 ( -20.68%)
   displ. norm   :     0.4309175 α      lambda       -0.1802412E-01
   maximum displ.:     0.1770375 α      in ANC's #30, #21, #52, ...

........................................................................
.............................. CYCLE    3 ..............................
........................................................................

 iter      E             dE          RMSdq      gap      omega  full diag
   1    -69.4742689 -0.694743E+02  0.212E-01    3.14       0.0  T
   2    -69.4745678 -0.298910E-03  0.133E-01    3.10       1.0  T
   3    -69.4745107  0.570828E-04  0.769E-02    3.08       1.0  T
   4    -69.4745988 -0.880151E-04  0.302E-02    3.08       1.0  T
   5    -69.4746237 -0.249789E-04  0.654E-03    3.08       2.3  T
   6    -69.4746243 -0.513502E-06  0.273E-03    3.09       5.5  T
   7    -69.4746243 -0.483157E-07  0.921E-04    3.09      16.2  T
   8    -69.4746243 -0.198504E-08  0.420E-04    3.09      35.5  T
     SCC iter.                  ...        0 min,  0.020 sec
     gradient                   ...        0 min,  0.007 sec
 * total energy  :   -68.7051145 Eh     change       -0.1085880E-01 Eh
   gradient norm :     0.0283533 Eh/α   predicted    -0.1068837E-01 (  -1.57%)
   displ. norm   :     0.3562324 α      lambda       -0.3728968E-02
   maximum displ.:     0.1916808 α      in ANC's #21, #19, #12, ...

........................................................................
.............................. CYCLE    4 ..............................
........................................................................

 iter      E             dE          RMSdq      gap      omega  full diag
   1    -69.4742310 -0.694742E+02  0.945E-02    3.13       0.0  T
   2    -69.4742703 -0.393581E-04  0.577E-02    3.13       1.0  T
   3    -69.4742619  0.842020E-05  0.271E-02    3.13       1.0  T
   4    -69.4742695 -0.753153E-05  0.132E-02    3.13       1.1  T
   5    -69.4742748 -0.538864E-05  0.207E-03    3.13       7.2  T
   6    -69.4742749 -0.325566E-07  0.103E-03    3.13      14.4  T
   7    -69.4742749 -0.434562E-08  0.361E-04    3.13      41.3  T
   8    -69.4742749 -0.748983E-09  0.147E-04    3.13     101.5  T
     SCC iter.                  ...        0 min,  0.027 sec
     gradient                   ...        0 min,  0.006 sec
 * total energy  :   -68.7077657 Eh     change       -0.2651223E-02 Eh
   gradient norm :     0.0149089 Eh/α   predicted    -0.2101122E-02 ( -20.75%)
   displ. norm   :     0.4064143 α      lambda       -0.2226021E-02
   maximum displ.:     0.2190694 α      in ANC's #21, #19, #12, ...

........................................................................
.............................. CYCLE    5 ..............................
........................................................................

 iter      E             dE          RMSdq      gap      omega  full diag
   1    -69.4740837 -0.694741E+02  0.845E-02    3.16       0.0  T
   2    -69.4741072 -0.235305E-04  0.510E-02    3.16       1.0  T
   3    -69.4741020  0.515101E-05  0.211E-02    3.17       1.0  T
   4    -69.4741069 -0.484381E-05  0.971E-03    3.17       1.5  T
   5    -69.4741098 -0.295500E-05  0.170E-03    3.17       8.8  T
   6    -69.4741099 -0.291598E-07  0.917E-04    3.17      16.3  T
   7    -69.4741099 -0.482903E-08  0.245E-04    3.17      60.8  T
     SCC iter.                  ...        0 min,  0.015 sec
     gradient                   ...        0 min,  0.005 sec
 * total energy  :   -68.7092858 Eh     change       -0.1520139E-02 Eh
   gradient norm :     0.0112097 Eh/α   predicted    -0.1296871E-02 ( -14.69%)
   displ. norm   :     0.3746076 α      lambda       -0.1282008E-02
   maximum displ.:     0.1821557 α      in ANC's #21, #19, #12, ...

........................................................................
.............................. CYCLE    6 ..............................
........................................................................

 iter      E             dE          RMSdq      gap      omega  full diag
   1    -69.4746948 -0.694747E+02  0.838E-02    3.17       0.0  T
   2    -69.4747004 -0.561238E-05  0.501E-02    3.18       1.0  T
   3    -69.4746969  0.348594E-05  0.123E-02    3.18       1.2  T
   4    -69.4747007 -0.382386E-05  0.498E-03    3.18       3.0  T
   5    -69.4747014 -0.685206E-06  0.139E-03    3.18      10.7  T
   6    -69.4747014 -0.664384E-08  0.674E-04    3.18      22.1  T
   7    -69.4747014 -0.440724E-08  0.174E-04    3.18      85.8  T
     SCC iter.                  ...        0 min,  0.015 sec
     gradient                   ...        0 min,  0.005 sec
 * total energy  :   -68.7101174 Eh     change       -0.8315481E-03 Eh
   gradient norm :     0.0126123 Eh/α   predicted    -0.7309610E-03 ( -12.10%)
   displ. norm   :     0.3298714 α      lambda       -0.8445076E-03
   maximum displ.:     0.1578271 α      in ANC's #19, #21, #9, ...

........................................................................
.............................. CYCLE    7 ..............................
........................................................................

 iter      E             dE          RMSdq      gap      omega  full diag
   1    -69.4769801 -0.694770E+02  0.809E-02    3.18       0.0  T
   2    -69.4769842 -0.411818E-05  0.482E-02    3.18       1.0  T
   3    -69.4769834  0.812242E-06  0.764E-03    3.18       2.0  T
   4    -69.4769843 -0.970829E-06  0.381E-03    3.18       3.9  T
   5    -69.4769847 -0.406745E-06  0.115E-03    3.18      12.9  T
   6    -69.4769848 -0.747687E-08  0.556E-04    3.18      26.8  T
   7    -69.4769848 -0.274470E-08  0.153E-04    3.18      97.2  T
     SCC iter.                  ...        0 min,  0.015 sec
     gradient                   ...        0 min,  0.005 sec
 * total energy  :   -68.7106942 Eh     change       -0.5767746E-03 Eh
   gradient norm :     0.0107834 Eh/α   predicted    -0.4682088E-03 ( -18.82%)
   displ. norm   :     0.2997680 α      lambda       -0.5995994E-03
   maximum displ.:     0.1407801 α      in ANC's #19, #9, #17, ...

........................................................................
.............................. CYCLE    8 ..............................
........................................................................

 iter      E             dE          RMSdq      gap      omega  full diag
   1    -69.4795853 -0.694796E+02  0.793E-02    3.18       0.0  T
   2    -69.4795906 -0.523036E-05  0.471E-02    3.18       1.0  T
   3    -69.4795901  0.487300E-06  0.777E-03    3.17       1.9  T
   4    -69.4795911 -0.106887E-05  0.195E-03    3.18       7.7  T
   5    -69.4795912 -0.474451E-07  0.109E-03    3.18      13.7  T
   6    -69.4795912 -0.102342E-07  0.654E-04    3.18      22.8  T
   7    -69.4795912 -0.687355E-08  0.150E-04    3.18      99.7  T
     SCC iter.                  ...        0 min,  0.015 sec
     gradient                   ...        0 min,  0.007 sec
 * total energy  :   -68.7111248 Eh     change       -0.4306110E-03 Eh
   gradient norm :     0.0080179 Eh/α   predicted    -0.3267435E-03 ( -24.12%)
   displ. norm   :     0.3268603 α      lambda       -0.5210561E-03
   maximum displ.:     0.1687647 α      in ANC's #19, #17, #9, ...

........................................................................
.............................. CYCLE    9 ..............................
........................................................................

 iter      E             dE          RMSdq      gap      omega  full diag
   1    -69.4812366 -0.694812E+02  0.908E-02    3.18       0.0  T
   2    -69.4812437 -0.708556E-05  0.538E-02    3.17       1.0  T
   3    -69.4812432  0.449695E-06  0.846E-03    3.17       1.8  T
   4    -69.4812443 -0.106045E-05  0.234E-03    3.17       6.4  T
   5    -69.4812444 -0.972712E-07  0.125E-03    3.17      11.9  T
   6    -69.4812444 -0.154402E-07  0.682E-04    3.17      21.9  T
   7    -69.4812444 -0.640897E-08  0.160E-04    3.17      93.1  T
     SCC iter.                  ...        0 min,  0.015 sec
     gradient                   ...        0 min,  0.005 sec
 * total energy  :   -68.7114750 Eh     change       -0.3502505E-03 Eh
   gradient norm :     0.0072774 Eh/α   predicted    -0.2883676E-03 ( -17.67%)
   displ. norm   :     0.3169488 α      lambda       -0.4332924E-03
   maximum displ.:     0.1525388 α      in ANC's #19, #7, #17, ...

........................................................................
.............................. CYCLE   10 ..............................
........................................................................

 iter      E             dE          RMSdq      gap      omega  full diag
   1    -69.4810696 -0.694811E+02  0.947E-02    3.17       0.0  T
   2    -69.4810720 -0.236671E-05  0.563E-02    3.17       1.0  T
   3    -69.4810721 -0.148795E-06  0.422E-03    3.17       3.5  T
   4    -69.4810725 -0.377801E-06  0.195E-03    3.17       7.6  T
   5    -69.4810725 -0.274373E-07  0.122E-03    3.17      12.2  T
   6    -69.4810725 -0.187628E-07  0.515E-04    3.17      28.9  T
   7    -69.4810725 -0.430268E-08  0.132E-04    3.17     113.3  T
     SCC iter.                  ...        0 min,  0.016 sec
     gradient                   ...        0 min,  0.006 sec
 * total energy  :   -68.7117719 Eh     change       -0.2968193E-03 Eh
   gradient norm :     0.0079747 Eh/α   predicted    -0.2384112E-03 ( -19.68%)
   displ. norm   :     0.2935426 α      lambda       -0.3892832E-03
   maximum displ.:     0.1275766 α      in ANC's #19, #7, #17, ...

........................................................................
.............................. CYCLE   11 ..............................
........................................................................

 iter      E             dE          RMSdq      gap      omega  full diag
   1    -69.4827284 -0.694827E+02  0.843E-02    3.17       0.0  T
   2    -69.4827301 -0.170902E-05  0.501E-02    3.17       1.0  T
   3    -69.4827301 -0.388443E-07  0.427E-03    3.17       3.5  T
   4    -69.4827306 -0.420711E-06  0.178E-03    3.17       8.4  T
   5    -69.4827306 -0.115735E-07  0.116E-03    3.17      12.9  T
   6    -69.4827306 -0.215686E-07  0.480E-04    3.17      31.1  T
   7    -69.4827306 -0.281622E-08  0.119E-04    3.17     125.2  T
     SCC iter.                  ...        0 min,  0.016 sec
     gradient                   ...        0 min,  0.006 sec
 * total energy  :   -68.7120506 Eh     change       -0.2787025E-03 Eh
   gradient norm :     0.0074716 Eh/α   predicted    -0.2114166E-03 ( -24.14%)
   displ. norm   :     0.3885565 α      lambda       -0.4073703E-03
   maximum displ.:     0.1755251 α      in ANC's #19, #7, #17, ...

........................................................................
.............................. CYCLE   12 ..............................
........................................................................

 iter      E             dE          RMSdq      gap      omega  full diag
   1    -69.4782212 -0.694782E+02  0.110E-01    3.18       0.0  T
   2    -69.4782315 -0.103696E-04  0.645E-02    3.17       1.0  T
   3    -69.4782311  0.433497E-06  0.987E-03    3.17       1.5  T
   4    -69.4782321 -0.995570E-06  0.454E-03    3.17       3.3  T
   5    -69.4782326 -0.544586E-06  0.174E-03    3.17       8.6  T
   6    -69.4782327 -0.168299E-07  0.783E-04    3.17      19.0  T
   7    -69.4782327 -0.780142E-08  0.185E-04    3.17      80.5  T
     SCC iter.                  ...        0 min,  0.016 sec
     gradient                   ...        0 min,  0.005 sec
 * total energy  :   -68.7122601 Eh     change       -0.2095507E-03 Eh
   gradient norm :     0.0106953 Eh/α   predicted    -0.2344457E-03 (  11.88%)
   displ. norm   :     0.2318484 α      lambda       -0.4621666E-03
   maximum displ.:     0.1053360 α      in ANC's #14, #11, #21, ...

........................................................................
.............................. CYCLE   13 ..............................
........................................................................

 iter      E             dE          RMSdq      gap      omega  full diag
   1    -69.4842240 -0.694842E+02  0.612E-02    3.18       0.0  T
   2    -69.4842352 -0.111894E-04  0.348E-02    3.17       1.0  T
   3    -69.4842349  0.231874E-06  0.124E-02    3.17       1.2  T
   4    -69.4842361 -0.116926E-05  0.365E-03    3.17       4.1  T
   5    -69.4842364 -0.259498E-06  0.172E-03    3.17       8.7  T
   6    -69.4842364 -0.458904E-07  0.858E-04    3.17      17.4  T
   7    -69.4842364 -0.681706E-08  0.216E-04    3.17      68.9  T
     SCC iter.                  ...        0 min,  0.016 sec
     gradient                   ...        0 min,  0.009 sec
 * total energy  :   -68.7123642 Eh     change       -0.1040948E-03 Eh
   gradient norm :     0.0100529 Eh/α   predicted    -0.2435050E-03 ( 133.93%)
   displ. norm   :     0.1501232 α      lambda       -0.3205043E-03
   maximum displ.:     0.0719426 α      in ANC's #19, #17, #7, ...

........................................................................
.............................. CYCLE   14 ..............................
........................................................................

 iter      E             dE          RMSdq      gap      omega  full diag
   1    -69.4820073 -0.694820E+02  0.468E-02    3.17       0.0  T
   2    -69.4820110 -0.365500E-05  0.277E-02    3.17       1.0  T
   3    -69.4820111 -0.116567E-06  0.511E-03    3.17       2.9  T
   4    -69.4820112 -0.746268E-07  0.182E-03    3.17       8.2  T
   5    -69.4820112 -0.668732E-07  0.877E-04    3.17      17.0  T
   6    -69.4820112 -0.618425E-08  0.317E-04    3.17      47.1  T
     SCC iter.                  ...        0 min,  0.024 sec
     gradient                   ...        0 min,  0.010 sec
 * total energy  :   -68.7125272 Eh     change       -0.1630272E-03 Eh
   gradient norm :     0.0056895 Eh/α   predicted    -0.1638674E-03 (   0.52%)
   displ. norm   :     0.1310130 α      lambda       -0.1437827E-03
   maximum displ.:     0.0661381 α      in ANC's #7, #17, #8, ...

........................................................................
.............................. CYCLE   15 ..............................
........................................................................

 iter      E             dE          RMSdq      gap      omega  full diag
   1    -69.4801221 -0.694801E+02  0.425E-02    3.17       0.0  T
   2    -69.4801258 -0.364918E-05  0.253E-02    3.17       1.0  T
   3    -69.4801254  0.376163E-06  0.628E-03    3.17       2.4  T
   4    -69.4801261 -0.649682E-06  0.189E-03    3.17       7.9  T
   5    -69.4801262 -0.897133E-07  0.955E-04    3.17      15.6  T
   6    -69.4801262 -0.161762E-07  0.472E-04    3.17      31.6  T
     SCC iter.                  ...        0 min,  0.021 sec
     gradient                   ...        0 min,  0.007 sec
 * total energy  :   -68.7126083 Eh     change       -0.8111439E-04 Eh
   gradient norm :     0.0073427 Eh/α   predicted    -0.7313072E-04 (  -9.84%)
   displ. norm   :     0.1339350 α      lambda       -0.1457238E-03
   maximum displ.:     0.0574036 α      in ANC's #8, #2, #17, ...

........................................................................
.............................. CYCLE   16 ..............................
........................................................................

 iter      E             dE          RMSdq      gap      omega  full diag
   1    -69.4823948 -0.694824E+02  0.338E-02    3.17       0.0  T
   2    -69.4823965 -0.168014E-05  0.203E-02    3.17       1.0  T
   3    -69.4823964  0.108126E-06  0.392E-03    3.17       3.8  T
   4    -69.4823966 -0.189608E-06  0.167E-03    3.17       8.9  T
   5    -69.4823967 -0.769654E-07  0.650E-04    3.17      22.9  T
   6    -69.4823967 -0.422474E-08  0.339E-04    3.17      43.9  T
     SCC iter.                  ...        0 min,  0.014 sec
     gradient                   ...        0 min,  0.005 sec
 * total energy  :   -68.7126921 Eh     change       -0.8371513E-04 Eh
   gradient norm :     0.0046891 Eh/α   predicted    -0.7417183E-04 ( -11.40%)
   displ. norm   :     0.2262501 α      lambda       -0.1350095E-03
   maximum displ.:     0.1085470 α      in ANC's #8, #7, #2, ...

........................................................................
.............................. CYCLE   17 ..............................
........................................................................

 iter      E             dE          RMSdq      gap      omega  full diag
   1    -69.4821651 -0.694822E+02  0.612E-02    3.16       0.0  T
   2    -69.4821661 -0.100166E-05  0.362E-02    3.16       1.0  T
   3    -69.4821660  0.169131E-06  0.439E-03    3.16       3.4  T
   4    -69.4821665 -0.481457E-06  0.204E-03    3.16       7.3  T
   5    -69.4821665 -0.800459E-07  0.101E-03    3.16      14.8  T
   6    -69.4821665 -0.394469E-08  0.237E-04    3.16      62.8  T
   7    -69.4821665 -0.744365E-09  0.851E-05    3.16     175.2  T
     SCC iter.                  ...        0 min,  0.017 sec
     gradient                   ...        0 min,  0.005 sec
 * total energy  :   -68.7127876 Eh     change       -0.9556498E-04 Eh
   gradient norm :     0.0051235 Eh/α   predicted    -0.7096104E-04 ( -25.75%)
   displ. norm   :     0.3289908 α      lambda       -0.1417583E-03
   maximum displ.:     0.1634400 α      in ANC's #8, #2, #17, ...

........................................................................
.............................. CYCLE   18 ..............................
........................................................................

 iter      E             dE          RMSdq      gap      omega  full diag
   1    -69.4811660 -0.694812E+02  0.854E-02    3.15       0.0  T
   2    -69.4811679 -0.186213E-05  0.505E-02    3.15       1.0  T
   3    -69.4811680 -0.796722E-07  0.509E-03    3.15       2.9  T
   4    -69.4811685 -0.533814E-06  0.284E-03    3.15       5.3  T
   5    -69.4811687 -0.143994E-06  0.144E-03    3.15      10.3  T
   6    -69.4811687 -0.106414E-07  0.352E-04    3.15      42.3  T
   7    -69.4811687 -0.164576E-08  0.114E-04    3.15     131.1  T
     SCC iter.                  ...        0 min,  0.017 sec
     gradient                   ...        0 min,  0.005 sec
 * total energy  :   -68.7128867 Eh     change       -0.9906175E-04 Eh
   gradient norm :     0.0065646 Eh/α   predicted    -0.7855177E-04 ( -20.70%)
   displ. norm   :     0.3650247 α      lambda       -0.2127738E-03
   maximum displ.:     0.2013530 α      in ANC's #8, #2, #3, ...

........................................................................
.............................. CYCLE   19 ..............................
........................................................................

 iter      E             dE          RMSdq      gap      omega  full diag
   1    -69.4827836 -0.694828E+02  0.916E-02    3.15       0.0  T
   2    -69.4827858 -0.220441E-05  0.542E-02    3.14       1.0  T
   3    -69.4827845  0.132656E-05  0.831E-03    3.14       1.8  T
   4    -69.4827867 -0.215568E-05  0.296E-03    3.14       5.0  T
   5    -69.4827868 -0.133188E-06  0.158E-03    3.14       9.4  T
   6    -69.4827868 -0.117364E-07  0.486E-04    3.14      30.7  T
   7    -69.4827868 -0.194835E-08  0.118E-04    3.14     125.9  T
     SCC iter.                  ...        0 min,  0.016 sec
     gradient                   ...        0 min,  0.005 sec
 * total energy  :   -68.7130270 Eh     change       -0.1403514E-03 Eh
   gradient norm :     0.0062611 Eh/α   predicted    -0.1205654E-03 ( -14.10%)
   displ. norm   :     0.4494851 α      lambda       -0.2143040E-03
   maximum displ.:     0.2472686 α      in ANC's #8, #2, #3, ...

........................................................................
.............................. CYCLE   20 ..............................
........................................................................

 iter      E             dE          RMSdq      gap      omega  full diag
   1    -69.4797881 -0.694798E+02  0.118E-01    3.14       0.0  T
   2    -69.4797919 -0.379295E-05  0.695E-02    3.13       1.0  T
   3    -69.4797927 -0.814812E-06  0.528E-03    3.13       2.8  T
   4    -69.4797930 -0.376462E-06  0.300E-03    3.13       5.0  T
   5    -69.4797931 -0.517464E-07  0.202E-03    3.13       7.4  T
   6    -69.4797932 -0.536543E-07  0.525E-04    3.13      28.4  T
   7    -69.4797932 -0.421575E-08  0.147E-04    3.13     101.1  T
     SCC iter.                  ...        0 min,  0.016 sec
     gradient                   ...        0 min,  0.005 sec
 * total energy  :   -68.7131816 Eh     change       -0.1545941E-03 Eh
   gradient norm :     0.0072039 Eh/α   predicted    -0.1288021E-03 ( -16.68%)
   displ. norm   :     0.4187108 α      lambda       -0.3784133E-03
   maximum displ.:     0.2211385 α      in ANC's #8, #3, #2, ...
 * RMSD in coord.:     0.6379054 α      energy gain  -0.5021059E-01 Eh

generating ANC from exact Hessian ...
Using Lindh-Hessian (1995)
 Shifting diagonal of input Hessian by   9.881589787991184E-003
 Lowest  eigenvalues of input Hessian
    0.000000    0.000000    0.000000    0.000000    0.000000    0.000000
    0.010000    0.010092    0.010204    0.010434    0.010530    0.010899
    0.011775    0.012262    0.012531    0.013065    0.013858    0.015197
 Highest eigenvalues
    1.768139    1.820547    1.960960    2.028430    2.400130    2.410653
 

........................................................................
.............................. CYCLE   21 ..............................
........................................................................

 iter      E             dE          RMSdq      gap      omega  full diag
   1    -69.4864468 -0.694864E+02  0.990E-02    3.15       0.0  T
   2    -69.4864518 -0.498391E-05  0.585E-02    3.14       1.0  T
   3    -69.4864422  0.957915E-05  0.180E-02    3.14       1.0  T
   4    -69.4864533 -0.111316E-04  0.444E-03    3.14       3.4  T
   5    -69.4864538 -0.489426E-06  0.175E-03    3.14       8.5  T
   6    -69.4864538 -0.792323E-08  0.638E-04    3.14      23.4  T
   7    -69.4864538 -0.183653E-08  0.171E-04    3.14      86.9  T
     SCC iter.                  ...        0 min,  0.015 sec
     gradient                   ...        0 min,  0.006 sec
 * total energy  :   -68.7133738 Eh     change       -0.1921962E-03 Eh
   gradient norm :     0.0096514 Eh/α   predicted     0.0000000E+00 (-100.00%)
   displ. norm   :     0.0764300 α      lambda       -0.2251343E-03
   maximum displ.:     0.0324071 α      in ANC's #8, #7, #9, ...

........................................................................
.............................. CYCLE   22 ..............................
........................................................................

 iter      E             dE          RMSdq      gap      omega  full diag
   1    -69.4840856 -0.694841E+02  0.342E-02    3.13       0.0  T
   2    -69.4840868 -0.120814E-05  0.200E-02    3.13       1.0  T
   3    -69.4840865  0.316415E-06  0.420E-03    3.13       3.5  T
   4    -69.4840869 -0.365708E-06  0.187E-03    3.13       8.0  T
   5    -69.4840870 -0.107784E-06  0.599E-04    3.13      24.9  T
   6    -69.4840870 -0.252483E-08  0.301E-04    3.13      49.6  T
     SCC iter.                  ...        0 min,  0.013 sec
     gradient                   ...        0 min,  0.005 sec
 * total energy  :   -68.7135350 Eh     change       -0.1611579E-03 Eh
   gradient norm :     0.0038664 Eh/α   predicted    -0.1136365E-03 ( -29.49%)
   displ. norm   :     0.1406227 α      lambda       -0.1699312E-03
   maximum displ.:     0.0690546 α      in ANC's #8, #7, #19, ...

........................................................................
.............................. CYCLE   23 ..............................
........................................................................

 iter      E             dE          RMSdq      gap      omega  full diag
   1    -69.4822094 -0.694822E+02  0.551E-02    3.12       0.0  T
   2    -69.4822105 -0.115432E-05  0.325E-02    3.12       1.0  T
   3    -69.4822103  0.215589E-06  0.370E-03    3.13       4.0  T
   4    -69.4822107 -0.343608E-06  0.181E-03    3.13       8.2  T
   5    -69.4822107 -0.862971E-07  0.733E-04    3.13      20.3  T
   6    -69.4822107 -0.366462E-08  0.345E-04    3.13      43.2  T
     SCC iter.                  ...        0 min,  0.012 sec
     gradient                   ...        0 min,  0.006 sec
 * total energy  :   -68.7136496 Eh     change       -0.1146281E-03 Eh
   gradient norm :     0.0033348 Eh/α   predicted    -0.8665358E-04 ( -24.40%)
   displ. norm   :     0.1923855 α      lambda       -0.1366007E-03
   maximum displ.:     0.1024897 α      in ANC's #8, #7, #19, ...

........................................................................
.............................. CYCLE   24 ..............................
........................................................................

 iter      E             dE          RMSdq      gap      omega  full diag
   1    -69.4813052 -0.694813E+02  0.718E-02    3.11       0.0  T
   2    -69.4813060 -0.776606E-06  0.423E-02    3.12       1.0  T
   3    -69.4813060 -0.668855E-07  0.267E-03    3.12       5.6  T
   4    -69.4813062 -0.135013E-06  0.156E-03    3.12       9.6  T
   5    -69.4813062 -0.484631E-07  0.781E-04    3.12      19.1  T
   6    -69.4813062 -0.382663E-08  0.260E-04    3.12      57.4  T
     SCC iter.                  ...        0 min,  0.013 sec
     gradient                   ...        0 min,  0.005 sec
 * total energy  :   -68.7137525 Eh     change       -0.1029064E-03 Eh
   gradient norm :     0.0063485 Eh/α   predicted    -0.7083040E-04 ( -31.17%)
   displ. norm   :     0.3195969 α      lambda       -0.2041777E-03
   maximum displ.:     0.1716702 α      in ANC's #8, #7, #2, ...

........................................................................
.............................. CYCLE   25 ..............................
........................................................................

 iter      E             dE          RMSdq      gap      omega  full diag
   1    -69.4804723 -0.694805E+02  0.115E-01    3.10       0.0  T
   2    -69.4804738 -0.151497E-05  0.677E-02    3.11       1.0  T
   3    -69.4804740 -0.260106E-06  0.375E-03    3.11       4.0  T
   4    -69.4804743 -0.238794E-06  0.233E-03    3.11       6.4  T
   5    -69.4804744 -0.999719E-07  0.115E-03    3.11      13.0  T
   6    -69.4804744 -0.666458E-08  0.267E-04    3.11      55.8  T
   7    -69.4804744 -0.746255E-09  0.972E-05    3.11     153.3  T
     SCC iter.                  ...        0 min,  0.018 sec
     gradient                   ...        0 min,  0.006 sec
 * total energy  :   -68.7139122 Eh     change       -0.1596850E-03 Eh
   gradient norm :     0.0086589 Eh/α   predicted    -0.1125251E-03 ( -29.53%)
   displ. norm   :     0.3789711 α      lambda       -0.2618898E-03
   maximum displ.:     0.2070917 α      in ANC's #8, #2, #7, ...

........................................................................
.............................. CYCLE   26 ..............................
........................................................................

 iter      E             dE          RMSdq      gap      omega  full diag
   1    -69.4810179 -0.694810E+02  0.129E-01    3.09       0.0  T
   2    -69.4810194 -0.149469E-05  0.758E-02    3.09       1.0  T
   3    -69.4810198 -0.359560E-06  0.396E-03    3.09       3.8  T
   4    -69.4810201 -0.295824E-06  0.229E-03    3.09       6.5  T
   5    -69.4810201 -0.615044E-07  0.130E-03    3.09      11.5  T
   6    -69.4810202 -0.157091E-07  0.243E-04    3.09      61.3  T
   7    -69.4810202 -0.667981E-09  0.937E-05    3.09     159.1  T
     SCC iter.                  ...        0 min,  0.015 sec
     gradient                   ...        0 min,  0.005 sec
 * total energy  :   -68.7141199 Eh     change       -0.2077274E-03 Eh
   gradient norm :     0.0077871 Eh/α   predicted    -0.1497513E-03 ( -27.91%)
   displ. norm   :     0.4248342 α      lambda       -0.3097776E-03
   maximum displ.:     0.2334266 α      in ANC's #8, #2, #4, ...

........................................................................
.............................. CYCLE   27 ..............................
........................................................................

 iter      E             dE          RMSdq      gap      omega  full diag
   1    -69.4831647 -0.694832E+02  0.128E-01    3.08       0.0  T
   2    -69.4831667 -0.203200E-05  0.756E-02    3.08       1.0  T
   3    -69.4831665  0.210062E-06  0.588E-03    3.07       2.5  T
   4    -69.4831675 -0.973203E-06  0.268E-03    3.07       5.6  T
   5    -69.4831676 -0.104425E-06  0.156E-03    3.07       9.6  T
   6    -69.4831676 -0.195925E-07  0.322E-04    3.07      46.4  T
   7    -69.4831676 -0.923237E-09  0.116E-04    3.07     128.4  T
     SCC iter.                  ...        0 min,  0.015 sec
     gradient                   ...        0 min,  0.006 sec
 * total energy  :   -68.7143524 Eh     change       -0.2324352E-03 Eh
   gradient norm :     0.0044144 Eh/α   predicted    -0.1828487E-03 ( -21.33%)
   displ. norm   :     0.4669949 α      lambda       -0.2574066E-03
   maximum displ.:     0.2607040 α      in ANC's #8, #2, #4, ...

........................................................................
.............................. CYCLE   28 ..............................
........................................................................

 iter      E             dE          RMSdq      gap      omega  full diag
   1    -69.4835408 -0.694835E+02  0.135E-01    3.05       0.0  T
   2    -69.4835430 -0.214054E-05  0.796E-02    3.05       1.0  T
   3    -69.4835429  0.100008E-06  0.619E-03    3.05       2.4  T
   4    -69.4835439 -0.101099E-05  0.289E-03    3.05       5.2  T
   5    -69.4835440 -0.106073E-06  0.167E-03    3.05       8.9  T
   6    -69.4835440 -0.228218E-07  0.297E-04    3.05      50.3  T
   7    -69.4835440 -0.552845E-09  0.117E-04    3.05     127.3  T
     SCC iter.                  ...        0 min,  0.016 sec
     gradient                   ...        0 min,  0.006 sec
 * total energy  :   -68.7145456 Eh     change       -0.1932592E-03 Eh
   gradient norm :     0.0053126 Eh/α   predicted    -0.1567728E-03 ( -18.88%)
   displ. norm   :     0.4602786 α      lambda       -0.2597105E-03
   maximum displ.:     0.2513070 α      in ANC's #8, #2, #4, ...

........................................................................
.............................. CYCLE   29 ..............................
........................................................................

 iter      E             dE          RMSdq      gap      omega  full diag
   1    -69.4851538 -0.694852E+02  0.118E-01    3.03       0.0  T
   2    -69.4851563 -0.257438E-05  0.695E-02    3.03       1.0  T
   3    -69.4851559  0.416493E-06  0.670E-03    3.02       2.2  T
   4    -69.4851571 -0.119129E-05  0.300E-03    3.02       5.0  T
   5    -69.4851573 -0.157032E-06  0.170E-03    3.02       8.8  T
   6    -69.4851573 -0.234174E-07  0.439E-04    3.02      34.0  T
   7    -69.4851573 -0.143676E-08  0.136E-04    3.02     109.6  T
     SCC iter.                  ...        0 min,  0.015 sec
     gradient                   ...        0 min,  0.005 sec
 * total energy  :   -68.7147389 Eh     change       -0.1933187E-03 Eh
   gradient norm :     0.0072089 Eh/α   predicted    -0.1573668E-03 ( -18.60%)
   displ. norm   :     0.5178764 α      lambda       -0.2546200E-03
   maximum displ.:     0.2863121 α      in ANC's #8, #2, #4, ...

........................................................................
.............................. CYCLE   30 ..............................
........................................................................

 iter      E             dE          RMSdq      gap      omega  full diag
   1    -69.4832664 -0.694833E+02  0.141E-01    3.00       0.0  T
   2    -69.4832698 -0.336972E-05  0.832E-02    2.99       1.0  T
   3    -69.4832692  0.594098E-06  0.774E-03    2.99       1.9  T
   4    -69.4832708 -0.158058E-05  0.375E-03    2.99       4.0  T
   5    -69.4832711 -0.267600E-06  0.183E-03    2.99       8.2  T
   6    -69.4832711 -0.148486E-07  0.447E-04    2.99      33.3  T
   7    -69.4832711 -0.167982E-08  0.150E-04    2.99      99.4  T
     SCC iter.                  ...        0 min,  0.015 sec
     gradient                   ...        0 min,  0.006 sec
 * total energy  :   -68.7149349 Eh     change       -0.1959654E-03 Eh
   gradient norm :     0.0089021 Eh/α   predicted    -0.1614596E-03 ( -17.61%)
   displ. norm   :     0.4949205 α      lambda       -0.4055823E-03
   maximum displ.:     0.2342395 α      in ANC's #2, #4, #8, ...

........................................................................
.............................. CYCLE   31 ..............................
........................................................................

 iter      E             dE          RMSdq      gap      omega  full diag
   1    -69.4914341 -0.694914E+02  0.112E-01    2.99       0.0  T
   2    -69.4914446 -0.104303E-04  0.663E-02    2.98       1.0  T
   3    -69.4914382  0.634162E-05  0.159E-02    2.99       1.0  T
   4    -69.4914459 -0.765915E-05  0.533E-03    2.99       2.8  T
   5    -69.4914467 -0.853058E-06  0.193E-03    2.99       7.7  T
   6    -69.4914468 -0.268689E-07  0.948E-04    2.99      15.7  T
   7    -69.4914468 -0.305288E-08  0.171E-04    2.99      87.1  T
     SCC iter.                  ...        0 min,  0.016 sec
     gradient                   ...        0 min,  0.006 sec
 * total energy  :   -68.7150796 Eh     change       -0.1446739E-03 Eh
   gradient norm :     0.0149387 Eh/α   predicted    -0.2524699E-03 (  74.51%)
   displ. norm   :     0.4518618 α      lambda       -0.4647000E-03
   maximum displ.:     0.2514516 α      in ANC's #8, #2, #4, ...

........................................................................
.............................. CYCLE   32 ..............................
........................................................................

 iter      E             dE          RMSdq      gap      omega  full diag
   1    -69.4842874 -0.694843E+02  0.136E-01    2.97       0.0  T
   2    -69.4842960 -0.850293E-05  0.801E-02    2.96       1.0  T
   3    -69.4842922  0.378025E-05  0.122E-02    2.96       1.2  T
   4    -69.4842968 -0.460876E-05  0.521E-03    2.96       2.9  T
   5    -69.4842976 -0.806406E-06  0.198E-03    2.96       7.5  T
   6    -69.4842976 -0.252371E-07  0.959E-04    2.96      15.5  T
   7    -69.4842976 -0.484620E-08  0.227E-04    2.96      65.8  T
     SCC iter.                  ...        0 min,  0.016 sec
     gradient                   ...        0 min,  0.006 sec
 * total energy  :   -68.7153212 Eh     change       -0.2415993E-03 Eh
   gradient norm :     0.0096089 Eh/α   predicted    -0.2798029E-03 (  15.81%)
   displ. norm   :     0.1711637 α      lambda       -0.2174836E-03
   maximum displ.:     0.0850898 α      in ANC's #2, #4, #8, ...

........................................................................
.............................. CYCLE   33 ..............................
........................................................................

 iter      E             dE          RMSdq      gap      omega  full diag
   1    -69.4832039 -0.694832E+02  0.452E-02    2.94       0.0  T
   2    -69.4832056 -0.167138E-05  0.270E-02    2.94       1.0  T
   3    -69.4832040  0.151485E-05  0.709E-03    2.94       2.1  T
   4    -69.4832057 -0.170731E-05  0.248E-03    2.94       6.0  T
   5    -69.4832059 -0.174493E-06  0.724E-04    2.94      20.6  T
   6    -69.4832059 -0.275602E-08  0.379E-04    2.94      39.4  T
     SCC iter.                  ...        0 min,  0.014 sec
     gradient                   ...        0 min,  0.005 sec
 * total energy  :   -68.7154765 Eh     change       -0.1553419E-03 Eh
   gradient norm :     0.0063162 Eh/α   predicted    -0.1119324E-03 ( -27.94%)
   displ. norm   :     0.2820302 α      lambda       -0.3193828E-03
   maximum displ.:     0.1301595 α      in ANC's #2, #4, #19, ...

........................................................................
.............................. CYCLE   34 ..............................
........................................................................

 iter      E             dE          RMSdq      gap      omega  full diag
   1    -69.4872090 -0.694872E+02  0.658E-02    2.95       0.0  T
   2    -69.4872135 -0.455668E-05  0.394E-02    2.95       1.0  T
   3    -69.4872103  0.320217E-05  0.112E-02    2.96       1.3  T
   4    -69.4872139 -0.361007E-05  0.393E-03    2.96       3.8  T
   5    -69.4872145 -0.513621E-06  0.114E-03    2.96      13.1  T
   6    -69.4872145 -0.117006E-07  0.532E-04    2.96      28.0  T
   7    -69.4872145 -0.864929E-09  0.137E-04    2.96     109.1  T
     SCC iter.                  ...        0 min,  0.016 sec
     gradient                   ...        0 min,  0.005 sec
 * total energy  :   -68.7156752 Eh     change       -0.1987167E-03 Eh
   gradient norm :     0.0065957 Eh/α   predicted    -0.1723996E-03 ( -13.24%)
   displ. norm   :     0.6069705 α      lambda       -0.2986205E-03
   maximum displ.:     0.3066514 α      in ANC's #2, #4, #8, ...

........................................................................
.............................. CYCLE   35 ..............................
........................................................................

 iter      E             dE          RMSdq      gap      omega  full diag
   1    -69.4834721 -0.694835E+02  0.145E-01    2.93       0.0  T
   2    -69.4834782 -0.609857E-05  0.860E-02    2.92       1.0  T
   3    -69.4834735  0.468122E-05  0.138E-02    2.92       1.1  T
   4    -69.4834794 -0.591903E-05  0.501E-03    2.92       3.0  T
   5    -69.4834800 -0.575644E-06  0.215E-03    2.92       6.9  T
   6    -69.4834800 -0.169100E-07  0.783E-04    2.92      19.0  T
   7    -69.4834800 -0.526848E-08  0.225E-04    2.92      66.1  T
     SCC iter.                  ...        0 min,  0.016 sec
     gradient                   ...        0 min,  0.006 sec
 * total energy  :   -68.7158435 Eh     change       -0.1682136E-03 Eh
   gradient norm :     0.0107562 Eh/α   predicted    -0.2043187E-03 (  21.46%)
   displ. norm   :     0.2660620 α      lambda       -0.2712553E-03
   maximum displ.:     0.1233760 α      in ANC's #2, #4, #19, ...

........................................................................
.............................. CYCLE   36 ..............................
........................................................................

 iter      E             dE          RMSdq      gap      omega  full diag
   1    -69.4863496 -0.694863E+02  0.536E-02    2.93       0.0  T
   2    -69.4863508 -0.110473E-05  0.320E-02    2.93       1.0  T
   3    -69.4863495  0.121686E-05  0.706E-03    2.93       2.1  T
   4    -69.4863510 -0.148555E-05  0.196E-03    2.93       7.6  T
   5    -69.4863511 -0.959871E-07  0.991E-04    2.93      15.0  T
   6    -69.4863511 -0.978704E-08  0.313E-04    2.93      47.6  T
     SCC iter.                  ...        0 min,  0.014 sec
     gradient                   ...        0 min,  0.006 sec
 * total energy  :   -68.7160386 Eh     change       -0.1950965E-03 Eh
   gradient norm :     0.0094314 Eh/α   predicted    -0.1452292E-03 ( -25.56%)
   displ. norm   :     0.4076871 α      lambda       -0.3231020E-03
   maximum displ.:     0.2112731 α      in ANC's #2, #4, #19, ...

........................................................................
.............................. CYCLE   37 ..............................
........................................................................

 iter      E             dE          RMSdq      gap      omega  full diag
   1    -69.4864480 -0.694864E+02  0.856E-02    2.92       0.0  T
   2    -69.4864524 -0.440732E-05  0.510E-02    2.92       1.0  T
   3    -69.4864509  0.154303E-05  0.825E-03    2.92       1.8  T
   4    -69.4864527 -0.181349E-05  0.361E-03    2.92       4.1  T
   5    -69.4864531 -0.413032E-06  0.137E-03    2.92      10.9  T
   6    -69.4864531 -0.196413E-07  0.602E-04    2.92      24.8  T
   7    -69.4864531 -0.185626E-08  0.166E-04    2.92      89.9  T
     SCC iter.                  ...        0 min,  0.017 sec
     gradient                   ...        0 min,  0.004 sec
 * total energy  :   -68.7162382 Eh     change       -0.1996597E-03 Eh
   gradient norm :     0.0054661 Eh/α   predicted    -0.1884078E-03 (  -5.64%)
   displ. norm   :     0.3788161 α      lambda       -0.1859673E-03
   maximum displ.:     0.2149725 α      in ANC's #2, #4, #5, ...

........................................................................
.............................. CYCLE   38 ..............................
........................................................................

 iter      E             dE          RMSdq      gap      omega  full diag
   1    -69.4854478 -0.694854E+02  0.799E-02    2.91       0.0  T
   2    -69.4854503 -0.248357E-05  0.476E-02    2.91       1.0  T
   3    -69.4854502  0.902458E-07  0.509E-03    2.91       2.9  T
   4    -69.4854507 -0.472689E-06  0.246E-03    2.91       6.1  T
   5    -69.4854508 -0.115908E-06  0.133E-03    2.91      11.2  T
   6    -69.4854508 -0.183900E-07  0.472E-04    2.91      31.6  T
   7    -69.4854508 -0.252172E-08  0.149E-04    2.91      99.7  T
     SCC iter.                  ...        0 min,  0.018 sec
     gradient                   ...        0 min,  0.007 sec
 * total energy  :   -68.7163448 Eh     change       -0.1065745E-03 Eh
   gradient norm :     0.0067832 Eh/α   predicted    -0.1063285E-03 (  -0.23%)
   displ. norm   :     0.1511743 α      lambda       -0.1248624E-03
   maximum displ.:     0.0896880 α      in ANC's #2, #4, #9, ...

........................................................................
.............................. CYCLE   39 ..............................
........................................................................

 iter      E             dE          RMSdq      gap      omega  full diag
   1    -69.4871490 -0.694871E+02  0.347E-02    2.89       0.0  T
   2    -69.4871500 -0.106515E-05  0.206E-02    2.89       1.0  T
   3    -69.4871492  0.810975E-06  0.560E-03    2.89       2.7  T
   4    -69.4871502 -0.940343E-06  0.194E-03    2.89       7.7  T
   5    -69.4871503 -0.107509E-06  0.645E-04    2.89      23.1  T
   6    -69.4871503 -0.234836E-08  0.327E-04    2.89      45.5  T
     SCC iter.                  ...        0 min,  0.015 sec
     gradient                   ...        0 min,  0.006 sec
 * total energy  :   -68.7164099 Eh     change       -0.6506461E-04 Eh
   gradient norm :     0.0044198 Eh/α   predicted    -0.6385960E-04 (  -1.85%)
   displ. norm   :     0.2376491 α      lambda       -0.8173178E-04
   maximum displ.:     0.1556214 α      in ANC's #2, #4, #5, ...

........................................................................
.............................. CYCLE   40 ..............................
........................................................................

 iter      E             dE          RMSdq      gap      omega  full diag
   1    -69.4858538 -0.694859E+02  0.492E-02    2.89       0.0  T
   2    -69.4858546 -0.770381E-06  0.292E-02    2.89       1.0  T
   3    -69.4858543  0.294670E-06  0.405E-03    2.88       3.7  T
   4    -69.4858548 -0.435784E-06  0.182E-03    2.88       8.2  T
   5    -69.4858548 -0.722209E-07  0.768E-04    2.88      19.4  T
   6    -69.4858548 -0.402622E-08  0.260E-04    2.88      57.4  T
     SCC iter.                  ...        0 min,  0.015 sec
     gradient                   ...        0 min,  0.006 sec
 * total energy  :   -68.7164564 Eh     change       -0.4650810E-04 Eh
   gradient norm :     0.0051318 Eh/α   predicted    -0.4317852E-04 (  -7.16%)
   displ. norm   :     0.1161142 α      lambda       -0.8363112E-04
   maximum displ.:     0.0730242 α      in ANC's #2, #8, #1, ...

........................................................................
.............................. CYCLE   41 ..............................
........................................................................

 iter      E             dE          RMSdq      gap      omega  full diag
   1    -69.4880316 -0.694880E+02  0.262E-02    2.90       0.0  T
   2    -69.4880324 -0.862120E-06  0.155E-02    2.90       1.0  T
   3    -69.4880320  0.373939E-06  0.426E-03    2.90       3.5  T
   4    -69.4880325 -0.476781E-06  0.155E-03    2.90       9.6  T
   5    -69.4880326 -0.681879E-07  0.548E-04    2.90      27.2  T
   6    -69.4880326 -0.218172E-08  0.282E-04    2.90      52.9  T
     SCC iter.                  ...        0 min,  0.015 sec
     gradient                   ...        0 min,  0.006 sec
 * total energy  :   -68.7165019 Eh     change       -0.4553985E-04 Eh
   gradient norm :     0.0041717 Eh/α   predicted    -0.4238417E-04 (  -6.93%)
   displ. norm   :     0.1483939 α      lambda       -0.6793073E-04
   maximum displ.:     0.1140840 α      in ANC's #2, #4, #1, ...

........................................................................
.............................. CYCLE   42 ..............................
........................................................................

 iter      E             dE          RMSdq      gap      omega  full diag
   1    -69.4879738 -0.694880E+02  0.275E-02    2.89       0.0  T
   2    -69.4879740 -0.275438E-06  0.163E-02    2.89       1.0  T
   3    -69.4879734  0.675441E-06  0.468E-03    2.89       3.2  T
   4    -69.4879741 -0.774970E-06  0.934E-04    2.89      16.0  T
   5    -69.4879742 -0.176507E-07  0.403E-04    2.89      37.0  T
     SCC iter.                  ...        0 min,  0.012 sec
     gradient                   ...        0 min,  0.006 sec
 * total energy  :   -68.7165499 Eh     change       -0.4800610E-04 Eh
   gradient norm :     0.0042115 Eh/α   predicted    -0.3471386E-04 ( -27.69%)
   displ. norm   :     0.1792067 α      lambda       -0.8444216E-04
   maximum displ.:     0.1321521 α      in ANC's #2, #4, #1, ...
 * RMSD in coord.:     0.8708097 α      energy gain  -0.3368274E-02 Eh

generating ANC from exact Hessian ...
Using Lindh-Hessian (1995)
 Shifting diagonal of input Hessian by   9.866092110303145E-003
 Lowest  eigenvalues of input Hessian
    0.000000    0.000000    0.000000    0.000000    0.000000    0.000000
    0.010000    0.010030    0.010195    0.010386    0.010490    0.010907
    0.011692    0.012394    0.012759    0.013498    0.013887    0.015272
 Highest eigenvalues
    1.764534    1.818988    1.951538    2.030928    2.399832    2.402031
 

........................................................................
.............................. CYCLE   43 ..............................
........................................................................

 iter      E             dE          RMSdq      gap      omega  full diag
   1    -69.4877638 -0.694878E+02  0.275E-02    2.89       0.0  T
   2    -69.4877640 -0.160596E-06  0.163E-02    2.89       1.0  T
   3    -69.4877639  0.664689E-07  0.197E-03    2.89       7.6  T
   4    -69.4877640 -0.113145E-06  0.840E-04    2.89      17.8  T
   5    -69.4877641 -0.129497E-07  0.404E-04    2.89      36.9  T
     SCC iter.                  ...        0 min,  0.014 sec
     gradient                   ...        0 min,  0.010 sec
 * total energy  :   -68.7166120 Eh     change       -0.6214135E-04 Eh
   gradient norm :     0.0037759 Eh/α   predicted     0.0000000E+00 (-100.00%)
   displ. norm   :     0.0359412 α      lambda       -0.3779638E-04
   maximum displ.:     0.0281573 α      in ANC's #2, #8, #7, ...

........................................................................
.............................. CYCLE   44 ..............................
........................................................................

 iter      E             dE          RMSdq      gap      omega  full diag
   1    -69.4874959 -0.694875E+02  0.133E-02    2.89       0.0  T
   2    -69.4874960 -0.885923E-07  0.795E-03    2.89       1.9  T
   3    -69.4874958  0.199297E-06  0.245E-03    2.89       6.1  T
   4    -69.4874960 -0.223885E-06  0.569E-04    2.89      26.2  T
   5    -69.4874960 -0.978049E-08  0.193E-04    2.89      77.1  T
     SCC iter.                  ...        0 min,  0.022 sec
     gradient                   ...        0 min,  0.006 sec
 * total energy  :   -68.7166412 Eh     change       -0.2911728E-04 Eh
   gradient norm :     0.0016903 Eh/α   predicted    -0.1920273E-04 ( -34.05%)
   displ. norm   :     0.1106928 α      lambda       -0.3932850E-04
   maximum displ.:     0.0860579 α      in ANC's #2, #8, #19, ...

........................................................................
.............................. CYCLE   45 ..............................
........................................................................

 iter      E             dE          RMSdq      gap      omega  full diag
   1    -69.4870070 -0.694870E+02  0.364E-02    2.89       0.0  T
   2    -69.4870074 -0.404508E-06  0.216E-02    2.89       1.0  T
   3    -69.4870066  0.823854E-06  0.492E-03    2.89       3.0  T
   4    -69.4870075 -0.935992E-06  0.126E-03    2.89      11.8  T
   5    -69.4870076 -0.439229E-07  0.478E-04    2.89      31.2  T
   6    -69.4870076 -0.838071E-09  0.209E-04    2.89      71.3  T
     SCC iter.                  ...        0 min,  0.018 sec
     gradient                   ...        0 min,  0.005 sec
 * total energy  :   -68.7166728 Eh     change       -0.3166864E-04 Eh
   gradient norm :     0.0027242 Eh/α   predicted    -0.1977419E-04 ( -37.56%)
   displ. norm   :     0.0533620 α      lambda       -0.2259797E-04
   maximum displ.:     0.0414445 α      in ANC's #2, #8, #19, ...

........................................................................
.............................. CYCLE   46 ..............................
........................................................................

 iter      E             dE          RMSdq      gap      omega  full diag
   1    -69.4870925 -0.694871E+02  0.159E-02    2.89       0.0  T
   2    -69.4870925 -0.309074E-07  0.942E-03    2.89       1.6  T
   3    -69.4870925  0.210107E-08  0.707E-04    2.89      21.1  T
   4    -69.4870925 -0.125625E-07  0.347E-04    2.89      42.9  T
     SCC iter.                  ...        0 min,  0.010 sec
     gradient                   ...        0 min,  0.005 sec
 * total energy  :   -68.7166915 Eh     change       -0.1867170E-04 Eh
   gradient norm :     0.0026567 Eh/α   predicted    -0.1133499E-04 ( -39.29%)
   displ. norm   :     0.0957257 α      lambda       -0.4020574E-04
   maximum displ.:     0.0704996 α      in ANC's #2, #8, #19, ...

........................................................................
.............................. CYCLE   47 ..............................
........................................................................

 iter      E             dE          RMSdq      gap      omega  full diag
   1    -69.4873951 -0.694874E+02  0.273E-02    2.89       0.0  T
   2    -69.4873952 -0.954016E-07  0.161E-02    2.89       1.0  T
   3    -69.4873952  0.503608E-07  0.168E-03    2.89       8.9  T
   4    -69.4873953 -0.819422E-07  0.640E-04    2.89      23.3  T
   5    -69.4873953 -0.771855E-08  0.304E-04    2.89      49.1  T
     SCC iter.                  ...        0 min,  0.014 sec
     gradient                   ...        0 min,  0.006 sec
 * total energy  :   -68.7167252 Eh     change       -0.3370591E-04 Eh
   gradient norm :     0.0018834 Eh/α   predicted    -0.2028730E-04 ( -39.81%)
   displ. norm   :     0.2215106 α      lambda       -0.4724308E-04
   maximum displ.:     0.1616897 α      in ANC's #2, #8, #19, ...

........................................................................
.............................. CYCLE   48 ..............................
........................................................................

 iter      E             dE          RMSdq      gap      omega  full diag
   1    -69.4874643 -0.694875E+02  0.621E-02    2.89       0.0  T
   2    -69.4874647 -0.422480E-06  0.366E-02    2.89       1.0  T
   3    -69.4874646  0.974263E-07  0.297E-03    2.89       5.0  T
   4    -69.4874648 -0.238979E-06  0.139E-03    2.89      10.7  T
   5    -69.4874649 -0.365385E-07  0.622E-04    2.89      24.0  T
   6    -69.4874649 -0.200480E-08  0.169E-04    2.89      88.4  T
     SCC iter.                  ...        0 min,  0.014 sec
     gradient                   ...        0 min,  0.004 sec
 * total energy  :   -68.7167759 Eh     change       -0.5066778E-04 Eh
   gradient norm :     0.0022152 Eh/α   predicted    -0.2413726E-04 ( -52.36%)
   displ. norm   :     0.1119597 α      lambda       -0.2933855E-04
   maximum displ.:     0.0849428 α      in ANC's #2, #8, #19, ...

........................................................................
.............................. CYCLE   49 ..............................
........................................................................

 iter      E             dE          RMSdq      gap      omega  full diag
   1    -69.4874204 -0.694874E+02  0.301E-02    2.89       0.0  T
   2    -69.4874205 -0.933140E-07  0.178E-02    2.89       1.0  T
   3    -69.4874204  0.108550E-06  0.201E-03    2.89       7.4  T
   4    -69.4874205 -0.149418E-06  0.634E-04    2.89      23.5  T
   5    -69.4874205 -0.551830E-08  0.284E-04    2.89      52.6  T
     SCC iter.                  ...        0 min,  0.012 sec
     gradient                   ...        0 min,  0.004 sec
 * total energy  :   -68.7168009 Eh     change       -0.2505356E-04 Eh
   gradient norm :     0.0018780 Eh/α   predicted    -0.1485518E-04 ( -40.71%)
   displ. norm   :     0.1436854 α      lambda       -0.2612861E-04
   maximum displ.:     0.1126595 α      in ANC's #2, #8, #5, ...

........................................................................
.............................. CYCLE   50 ..............................
........................................................................

 iter      E             dE          RMSdq      gap      omega  full diag
   1    -69.4875572 -0.694876E+02  0.368E-02    2.90       0.0  T
   2    -69.4875573 -0.174122E-06  0.217E-02    2.90       1.0  T
   3    -69.4875571  0.207702E-06  0.269E-03    2.90       5.6  T
   4    -69.4875574 -0.268153E-06  0.845E-04    2.90      17.6  T
   5    -69.4875574 -0.132361E-07  0.382E-04    2.90      39.0  T
     SCC iter.                  ...        0 min,  0.012 sec
     gradient                   ...        0 min,  0.005 sec
 * total energy  :   -68.7168333 Eh     change       -0.3233961E-04 Eh
   gradient norm :     0.0009022 Eh/α   predicted    -0.1318493E-04 ( -59.23%)
   displ. norm   :     0.1070580 α      lambda       -0.1720052E-04
   maximum displ.:     0.0883118 α      in ANC's #2, #1, #6, ...

........................................................................
.............................. CYCLE   51 ..............................
........................................................................

 iter      E             dE          RMSdq      gap      omega  full diag
   1    -69.4875322 -0.694875E+02  0.252E-02    2.90       0.0  T
   2    -69.4875323 -0.836826E-07  0.148E-02    2.90       1.0  T
   3    -69.4875323  0.634816E-07  0.160E-03    2.90       9.3  T
   4    -69.4875324 -0.909536E-07  0.582E-04    2.90      25.6  T
   5    -69.4875324 -0.594149E-08  0.274E-04    2.90      54.5  T
     SCC iter.                  ...        0 min,  0.012 sec
     gradient                   ...        0 min,  0.005 sec
 * total energy  :   -68.7168568 Eh     change       -0.2356377E-04 Eh
   gradient norm :     0.0009585 Eh/α   predicted    -0.8648078E-05 ( -63.30%)
   displ. norm   :     0.0904769 α      lambda       -0.1638301E-04
   maximum displ.:     0.0744847 α      in ANC's #2, #1, #6, ...

........................................................................
.............................. CYCLE   52 ..............................
........................................................................

 iter      E             dE          RMSdq      gap      omega  full diag
   1    -69.4877517 -0.694878E+02  0.185E-02    2.90       0.0  T
   2    -69.4877517 -0.474562E-07  0.109E-02    2.90       1.4  T
   3    -69.4877518 -0.790374E-08  0.600E-04    2.90      24.8  T
   4    -69.4877518 -0.683870E-08  0.306E-04    2.90      48.7  T
     SCC iter.                  ...        0 min,  0.010 sec
     gradient                   ...        0 min,  0.004 sec
 * total energy  :   -68.7168798 Eh     change       -0.2298059E-04 Eh
   gradient norm :     0.0009439 Eh/α   predicted    -0.8227129E-05 ( -64.20%)
   displ. norm   :     0.1113371 α      lambda       -0.2073283E-04
   maximum displ.:     0.0866391 α      in ANC's #2, #1, #6, ...

........................................................................
.............................. CYCLE   53 ..............................
........................................................................

 iter      E             dE          RMSdq      gap      omega  full diag
   1    -69.4878065 -0.694878E+02  0.239E-02    2.90       0.0  T
   2    -69.4878065 -0.676610E-07  0.141E-02    2.90       1.1  T
   3    -69.4878065  0.130264E-07  0.116E-03    2.90      12.8  T
   4    -69.4878066 -0.347066E-07  0.483E-04    2.90      30.8  T
   5    -69.4878066 -0.421620E-08  0.261E-04    2.90      57.1  T
     SCC iter.                  ...        0 min,  0.012 sec
     gradient                   ...        0 min,  0.005 sec
 * total energy  :   -68.7169085 Eh     change       -0.2867944E-04 Eh
   gradient norm :     0.0008688 Eh/α   predicted    -0.1042569E-04 ( -63.65%)
   displ. norm   :     0.1430297 α      lambda       -0.2501571E-04
   maximum displ.:     0.1086954 α      in ANC's #2, #1, #6, ...

........................................................................
.............................. CYCLE   54 ..............................
........................................................................

 iter      E             dE          RMSdq      gap      omega  full diag
   1    -69.4875789 -0.694876E+02  0.307E-02    2.89       0.0  T
   2    -69.4875790 -0.969535E-07  0.181E-02    2.89       1.0  T
   3    -69.4875790  0.431712E-07  0.165E-03    2.89       9.0  T
   4    -69.4875791 -0.841885E-07  0.573E-04    2.89      26.0  T
   5    -69.4875791 -0.403865E-08  0.315E-04    2.89      47.3  T
     SCC iter.                  ...        0 min,  0.012 sec
     gradient                   ...        0 min,  0.004 sec
 * total energy  :   -68.7169425 Eh     change       -0.3398019E-04 Eh
   gradient norm :     0.0007249 Eh/α   predicted    -0.1262275E-04 ( -62.85%)
   displ. norm   :     0.1697753 α      lambda       -0.2731828E-04
   maximum displ.:     0.1269319 α      in ANC's #2, #1, #6, ...

........................................................................
.............................. CYCLE   55 ..............................
........................................................................

 iter      E             dE          RMSdq      gap      omega  full diag
   1    -69.4875433 -0.694875E+02  0.360E-02    2.89       0.0  T
   2    -69.4875434 -0.127898E-06  0.213E-02    2.89       1.0  T
   3    -69.4875433  0.833292E-07  0.210E-03    2.89       7.1  T
   4    -69.4875435 -0.142290E-06  0.666E-04    2.89      22.4  T
   5    -69.4875435 -0.515617E-08  0.355E-04    2.89      42.0  T
     SCC iter.                  ...        0 min,  0.012 sec
     gradient                   ...        0 min,  0.004 sec
 * total energy  :   -68.7169777 Eh     change       -0.3526989E-04 Eh
   gradient norm :     0.0008866 Eh/α   predicted    -0.1383809E-04 ( -60.77%)
   displ. norm   :     0.1807035 α      lambda       -0.2820237E-04
   maximum displ.:     0.1352897 α      in ANC's #2, #1, #6, ...

........................................................................
.............................. CYCLE   56 ..............................
........................................................................

 iter      E             dE          RMSdq      gap      omega  full diag
   1    -69.4876119 -0.694876E+02  0.372E-02    2.88       0.0  T
   2    -69.4876120 -0.132067E-06  0.219E-02    2.88       1.0  T
   3    -69.4876119  0.163240E-06  0.259E-03    2.88       5.8  T
   4    -69.4876121 -0.236470E-06  0.670E-04    2.88      22.2  T
   5    -69.4876121 -0.361321E-08  0.348E-04    2.88      42.9  T
     SCC iter.                  ...        0 min,  0.012 sec
     gradient                   ...        0 min,  0.004 sec
 * total energy  :   -68.7170144 Eh     change       -0.3661237E-04 Eh
   gradient norm :     0.0009598 Eh/α   predicted    -0.1430615E-04 ( -60.93%)
   displ. norm   :     0.1726330 α      lambda       -0.2480633E-04
   maximum displ.:     0.1311382 α      in ANC's #2, #1, #6, ...

........................................................................
.............................. CYCLE   57 ..............................
........................................................................

 iter      E             dE          RMSdq      gap      omega  full diag
   1    -69.4874590 -0.694875E+02  0.338E-02    2.88       0.0  T
   2    -69.4874591 -0.124915E-06  0.200E-02    2.88       1.0  T
   3    -69.4874589  0.277365E-06  0.297E-03    2.88       5.0  T
   4    -69.4874592 -0.346145E-06  0.665E-04    2.88      22.4  T
   5    -69.4874592 -0.459528E-08  0.343E-04    2.88      43.5  T
     SCC iter.                  ...        0 min,  0.016 sec
     gradient                   ...        0 min,  0.007 sec
 * total energy  :   -68.7170492 Eh     change       -0.3483795E-04 Eh
   gradient norm :     0.0009431 Eh/α   predicted    -0.1256990E-04 ( -63.92%)
   displ. norm   :     0.1747570 α      lambda       -0.2571565E-04
   maximum displ.:     0.1328033 α      in ANC's #2, #1, #6, ...

........................................................................
.............................. CYCLE   58 ..............................
........................................................................

 iter      E             dE          RMSdq      gap      omega  full diag
   1    -69.4875888 -0.694876E+02  0.321E-02    2.87       0.0  T
   2    -69.4875889 -0.992815E-07  0.190E-02    2.87       1.0  T
   3    -69.4875886  0.335123E-06  0.322E-03    2.87       4.6  T
   4    -69.4875890 -0.405448E-06  0.599E-04    2.87      24.9  T
   5    -69.4875890 -0.220810E-08  0.297E-04    2.87      50.1  T
     SCC iter.                  ...        0 min,  0.018 sec
     gradient                   ...        0 min,  0.007 sec
 * total energy  :   -68.7170857 Eh     change       -0.3650084E-04 Eh
   gradient norm :     0.0007065 Eh/α   predicted    -0.1303441E-04 ( -64.29%)
   displ. norm   :     0.2015825 α      lambda       -0.2911508E-04
   maximum displ.:     0.1531688 α      in ANC's #2, #1, #6, ...

........................................................................
.............................. CYCLE   59 ..............................
[...]
C5-O4-C3-H27= 70.29           C6-C5-O4-C3=171.60            H28-C5-O4-C3= 52.41           H29-C5-O4-C3=292.38           
C7-C6-C5-O4= 69.28            C7-C6-C5-H28=189.18           C7-C6-C5-H29=308.03           O8-C6-C5-O4=189.23            
O8-C6-C5-H28=309.12           O8-C6-C5-H29= 67.98           H30-C6-C5-O4=307.37           H30-C6-C5-H28= 67.27          
H30-C6-C5-H29=186.12          H31-C7-C6-C5= 63.81           H31-C7-C6-O8=302.93           H31-C7-C6-H30=183.95          
H32-C7-C6-C5=183.92           H32-C7-C6-O8= 63.04           H32-C7-C6-H30=304.07          H33-C7-C6-C5=304.11           
H33-C7-C6-O8=183.23           H33-C7-C6-H30= 64.26          C9-O8-C6-C5= 80.12            C9-O8-C6-C7=202.34            
C9-O8-C6-H30=322.60           O10-C9-O8-C6=359.23           C11-C9-O8-C6=179.10           
           -------------------------------------------------
          |                Final Singlepoint                |
           -------------------------------------------------

          ...................................................
          :                      SETUP                      :
          :.................................................:
          :  # basis functions                 108          :
          :  # atomic orbitals                 108          :
          :  # shells                           66          :
          :  # electrons                       120          :
          :  max. iterations                   250          :
          :  Hamiltonian                  GFN2-xTB          :
          :  restarted?                      false          :
          :  GBSA solvation                  false          :
          :  PC potential                    false          :
          :  electronic temp.          300.0000000     K    :
          :  accuracy                    1.0000000          :
          :  -> integral cutoff          0.2500000E+02      :
          :  -> integral neglect         0.1000000E-07      :
          :  -> SCF convergence          0.1000000E-05 Eh   :
          :  -> wf. convergence          0.1000000E-03 e    :
          :  Broyden damping             0.4000000          :
          :  net charge                          0          :
          :  unpaired electrons                  0          :
          ...................................................

 iter      E             dE          RMSdq      gap      omega  full diag
   1    -69.4884523 -0.694885E+02  0.470E-05    2.83       0.0  T
   2    -69.4884523 -0.321165E-11  0.368E-05    2.83     404.9  T
   3    -69.4884523 -0.301128E-10  0.188E-05    2.83     791.3  T

   *** convergence criteria satisfied after 3 iterations ***

         #    Occupation            Energy/Eh            Energy/eV
      -------------------------------------------------------------
         1        2.0000           -0.7477135             -20.3463
       ...           ...                  ...                  ...
        54        2.0000           -0.4394505             -11.9581
        55        2.0000           -0.4311288             -11.7316
        56        2.0000           -0.4257784             -11.5860
        57        2.0000           -0.4202908             -11.4367
        58        2.0000           -0.4112474             -11.1906
        59        2.0000           -0.4044311             -11.0051
        60        2.0000           -0.3877727             -10.5518 (HOMO)
        61                         -0.2839324              -7.7262 (LUMO)
        62                         -0.2662430              -7.2448
        63                         -0.1719429              -4.6788
        64                         -0.1561934              -4.2502
        65                         -0.0297684              -0.8100
       ...                                ...                  ...
       108                          0.7151330              19.4598
      -------------------------------------------------------------
                  HL-Gap            0.1038403 Eh            2.8256 eV
             Fermi-level           -0.3358525 Eh           -9.1390 eV

 SCC (total)                   0 d,  0 h,  0 min,  0.026 sec
 SCC setup                      ...        0 min,  0.002 sec (  6.266%)
 Dispersion                     ...        0 min,  0.000 sec (  1.812%)
 classical contributions        ...        0 min,  0.000 sec (  0.807%)
 integral evaluation            ...        0 min,  0.001 sec (  5.235%)
 iterations                     ...        0 min,  0.013 sec ( 48.785%)
 molecular gradient             ...        0 min,  0.009 sec ( 35.615%)
 printout                       ...        0 min,  0.000 sec (  1.380%)

         :::::::::::::::::::::::::::::::::::::::::::::::::::::
         ::                     SUMMARY                     ::
         :::::::::::::::::::::::::::::::::::::::::::::::::::::
         :: total energy             -68.718021610438 Eh    ::
         :: gradient norm              0.000199910999 Eh/a0 ::
         :: HOMO-LUMO gap              2.825638725542 eV    ::
         ::.................................................::
         :: SCC energy               -69.488094985517 Eh    ::
         :: -> isotropic ES            0.127949167658 Eh    ::
         :: -> anisotropic ES          0.001559065492 Eh    ::
         :: -> anisotropic XC          0.013965884664 Eh    ::
         :: -> dispersion             -0.036589312158 Eh    ::
         :: repulsion energy           0.770073375079 Eh    ::
         :: add. restraining           0.000000000000 Eh    ::
         :: total charge               0.000000000000 e     ::
         :::::::::::::::::::::::::::::::::::::::::::::::::::::

           -------------------------------------------------
          |                Property Printout                |
           -------------------------------------------------

    * Orbital Energies and Occupations

         #    Occupation            Energy/Eh            Energy/eV
      -------------------------------------------------------------
         1        2.0000           -0.7477135             -20.3463
       ...           ...                  ...                  ...
        48        2.0000           -0.4582108             -12.4686
        49        2.0000           -0.4569618             -12.4346
        50        2.0000           -0.4539096             -12.3515
        51        2.0000           -0.4485456             -12.2055
        52        2.0000           -0.4464585             -12.1488
        53        2.0000           -0.4424042             -12.0384
        54        2.0000           -0.4394505             -11.9581
        55        2.0000           -0.4311288             -11.7316
        56        2.0000           -0.4257784             -11.5860
        57        2.0000           -0.4202908             -11.4367
        58        2.0000           -0.4112474             -11.1906
        59        2.0000           -0.4044311             -11.0051
        60        2.0000           -0.3877727             -10.5518 (HOMO)
        61                         -0.2839324              -7.7262 (LUMO)
        62                         -0.2662430              -7.2448
        63                         -0.1719429              -4.6788
        64                         -0.1561934              -4.2502
        65                         -0.0297684              -0.8100
        66                         -0.0018269              -0.0497
        67                          0.0279041               0.7593
        68                          0.0336829               0.9166
        69                          0.0661922               1.8012
        70                          0.0759141               2.0657
        71                          0.0893750               2.4320
       ...                                ...                  ...
       108                          0.7151330              19.4598
      -------------------------------------------------------------
                  HL-Gap            0.1038403 Eh            2.8256 eV
             Fermi-level           -0.3358525 Eh           -9.1390 eV

     #   Z          covCN         q      C6AA      α(0)
     1   6 C        3.754    -0.119    22.846     6.816
     2   6 C        3.743     0.114    18.777     6.182
     3   6 C        3.703     0.073    19.497     6.313
     4   8 O        1.702    -0.322    19.374     5.943
     5   6 C        3.704     0.083    19.338     6.287
     6   6 C        3.749     0.116    18.744     6.175
     7   6 C        3.754    -0.120    22.854     6.817
     8   8 O        1.705    -0.269    18.464     5.802
     9   6 C        2.720     0.355    20.966     7.496
    10   8 O        0.857    -0.416    21.996     6.288
    11   6 C        2.887    -0.057    29.426     8.893
    12   6 C        2.838    -0.062    29.531     8.906
    13   8 O        1.701    -0.312    19.203     5.916
    14   6 C        3.695     0.073    19.520     6.321
    15   6 C        3.748     0.117    18.730     6.173
    16   6 C        3.753    -0.118    22.816     6.811
    17   8 O        1.706    -0.255    18.219     5.763
    18   6 C        2.723     0.357    20.936     7.490
    19   8 O        0.856    -0.423    22.154     6.311
    20   6 C        2.888    -0.057    29.418     8.892
    21   6 C        2.841    -0.061    29.508     8.902
    22   1 H        0.925     0.064     2.156     2.296
    23   1 H        0.925     0.046     2.367     2.406
    24   1 H        0.925     0.056     2.241     2.341
    25   1 H        0.923     0.033     2.551     2.498
    26   1 H        0.923     0.037     2.492     2.469
    27   1 H        0.923     0.023     2.683     2.562
    28   1 H        0.923     0.035     2.516     2.481
    29   1 H        0.923     0.027     2.632     2.537
    30   1 H        0.924     0.061     2.189     2.314
    31   1 H        0.925     0.059     2.216     2.328
    32   1 H        0.925     0.058     2.226     2.333
    33   1 H        0.925     0.068     2.104     2.268
    34   1 H        0.926     0.074     2.047     2.237
    35   1 H        0.926     0.074     2.046     2.237
    36   1 H        0.926     0.065     2.139     2.287
    37   1 H        0.924     0.049     2.335     2.390
    38   1 H        0.923     0.037     2.491     2.468
    39   1 H        0.923     0.048     2.349     2.397
    40   1 H        0.925     0.055     2.262     2.352
    41   1 H        0.925     0.063     2.166     2.302
    42   1 H        0.925     0.068     2.103     2.268
    43   1 H        0.926     0.065     2.138     2.286
    44   1 H        0.926     0.077     2.013     2.219
    45   1 H        0.926     0.060     2.194     2.316

 Mol. C6AA /au·bohr⁶  :      17951.909212
 Mol. C8AA /au·bohr⁸  :     394941.278271
 Mol. α(0) /au        :        201.085012


Wiberg/Mayer (AO) data.
largest (>0.10) Wiberg bond orders for each atom

 ---------------------------------------------------------------------------
     #   Z sym  total        # sym  WBO       # sym  WBO       # sym  WBO
 ---------------------------------------------------------------------------
     1   6 C    3.991 --     2 C    1.002    23 H    0.986    24 H    0.985
                            22 H    0.984
     2   6 C    3.957 --     1 C    1.002    13 O    0.980     3 C    0.976
                            25 H    0.959
     3   6 C    3.948 --     4 O    0.976     2 C    0.976    27 H    0.967
                            26 H    0.966
     4   8 O    2.072 --     5 C    0.987     3 C    0.976
     5   6 C    3.956 --     4 O    0.987     6 C    0.977    29 H    0.966
                            28 H    0.964
     6   6 C    3.927 --     7 C    1.008     5 C    0.977    30 H    0.957
                             8 O    0.932
     7   6 C    3.990 --     6 C    1.008    32 H    0.984    31 H    0.984
                            33 H    0.980
     8   8 O    2.305 --     9 C    1.122     6 C    0.932    10 O    0.171
     9   6 C    3.919 --    10 O    1.721     8 O    1.122    11 C    1.014
    10   8 O    2.029 --     9 C    1.721     8 O    0.171
    11   6 C    3.987 --    12 C    1.933     9 C    1.014    34 H    0.963
    12   6 C    3.983 --    11 C    1.933    36 H    0.975    35 H    0.971
    13   8 O    2.074 --    14 C    0.981     2 C    0.980
    14   6 C    3.953 --    13 O    0.981    15 C    0.980    38 H    0.965
                            37 H    0.963
    15   6 C    3.932 --    16 C    1.007    14 C    0.980    39 H    0.958
                            17 O    0.931
    16   6 C    3.989 --    15 C    1.007    40 H    0.985    42 H    0.982
                            41 H    0.982
    17   8 O    2.326 --    18 C    1.138    15 C    0.931    19 O    0.176
    18   6 C    3.920 --    19 O    1.713    17 O    1.138    20 C    1.007
    19   8 O    2.023 --    18 C    1.713    17 O    0.176
    20   6 C    3.988 --    21 C    1.935    18 C    1.007    43 H    0.965
    21   6 C    3.981 --    20 C    1.935    45 H    0.976    44 H    0.970
    22   1 H    0.995 --     1 C    0.984
    23   1 H    0.997 --     1 C    0.986
    24   1 H    0.997 --     1 C    0.985
    25   1 H    0.999 --     2 C    0.959
    26   1 H    0.999 --     3 C    0.966
    27   1 H    0.999 --     3 C    0.967
    28   1 H    0.999 --     5 C    0.964
    29   1 H    0.999 --     5 C    0.966
    30   1 H    0.996 --     6 C    0.957
    31   1 H    0.997 --     7 C    0.984
    32   1 H    0.997 --     7 C    0.984
    33   1 H    0.995 --     7 C    0.980
    34   1 H    0.994 --    11 C    0.963
    35   1 H    0.995 --    12 C    0.971
    36   1 H    0.996 --    12 C    0.975
    37   1 H    0.997 --    14 C    0.963
    38   1 H    0.999 --    14 C    0.965
    39   1 H    0.997 --    15 C    0.958
    40   1 H    0.997 --    16 C    0.985
    41   1 H    0.995 --    16 C    0.982
    42   1 H    0.995 --    16 C    0.982
    43   1 H    0.996 --    20 C    0.965
    44   1 H    0.994 --    21 C    0.970
    45   1 H    0.995 --    21 C    0.976
 ---------------------------------------------------------------------------

Topologies differ in total number of bonds
Writing topology from bond orders to xtbtopo.mol

molecular dipole:
                 x           y           z       tot (Debye)
 q only:       -1.219       0.455      -0.784
   full:       -1.481       0.448      -0.866       4.508
molecular quadrupole (traceless):
                xx          xy          yy          xz          yz          zz
 q only:       19.071       3.144      -6.681      -8.705      -1.630     -12.390
  q+dip:       20.013       2.049      -6.703      -6.991      -1.076     -13.310
   full:       18.689       2.527      -6.249      -7.266      -2.633     -12.440

           -------------------------------------------------
          |                Geometry Summary                 |
           -------------------------------------------------

      molecular mass/u    :      300.3480460
   center of mass at/Å    :        0.1194035      -0.1902042       0.1438416
  moments of inertia/u·Å² :        0.1026319E+04   0.4207294E+04   0.4745632E+04
rotational constants/cm⁻¹ :        0.1642533E-01   0.4006764E-02   0.3552241E-02

 * 42 selected distances

     #   Z          #   Z                                           value/Å
     1   6 C        2   6 C                                       1.5255547
     2   6 C        3   6 C                                       1.5383346 (max)
     3   6 C        4   8 O                                       1.4116754
     4   8 O        5   6 C                                       1.4047604
     5   6 C        6   6 C                                       1.5330497
     6   6 C        7   6 C                                       1.5189636
     6   6 C        8   8 O                                       1.4291036
     8   8 O        9   6 C                                       1.3395171
     9   6 C       10   8 O                                       1.2077942
    11   6 C       12   6 C                                       1.3247416
     2   6 C       13   8 O                                       1.4117112
    13   8 O       14   6 C                                       1.4138540
    14   6 C       15   6 C                                       1.5330778
    15   6 C       16   6 C                                       1.5204308
    15   6 C       17   8 O                                       1.4304508
    17   8 O       18   6 C                                       1.3340786
    18   6 C       19   8 O                                       1.2083169
    20   6 C       21   6 C                                       1.3243685
     1   6 C       22   1 H                                       1.0859760
     1   6 C       23   1 H                                       1.0859566
     1   6 C       24   1 H                                       1.0864666
     2   6 C       25   1 H                                       1.1003027
     3   6 C       26   1 H                                       1.0992429
     3   6 C       27   1 H                                       1.1006026
     5   6 C       28   1 H                                       1.1004349
     5   6 C       29   1 H                                       1.1014597
     6   6 C       30   1 H                                       1.0978390
     7   6 C       31   1 H                                       1.0870568
     7   6 C       32   1 H                                       1.0864539
     7   6 C       33   1 H                                       1.0854490
    11   6 C       34   1 H                                       1.0805276
    12   6 C       35   1 H                                       1.0768246
    12   6 C       36   1 H                                       1.0770070
    14   6 C       37   1 H                                       1.0941878
    14   6 C       38   1 H                                       1.1000572
    15   6 C       39   1 H                                       1.0989192
    16   6 C       40   1 H                                       1.0866071
    16   6 C       41   1 H                                       1.0864985
    16   6 C       42   1 H                                       1.0861572
    20   6 C       43   1 H                                       1.0791875
    21   6 C       44   1 H                                       1.0781450
    21   6 C       45   1 H                                       1.0765796 (min)

 * 3 distinct bonds (by element types)

   Z      Z             #   av. dist./Å        max./Å        min./Å
   1 H    6 C          24     1.0890808     1.1014597     1.0765796
   6 C    6 C           8     1.4773152     1.5383346     1.3243685
   6 C    8 O          10     1.3591262     1.4304508     1.2077942


optimized geometry written to: xtbopt.xyz


           -------------------------------------------------
          | TOTAL ENERGY              -68.718021610438 Eh   |
          | GRADIENT NORM               0.000199910999 Eh/α |
          | HOMO-LUMO GAP               2.825638725542 eV   |
           -------------------------------------------------

------------------------------------------------------------------------
 * finished run on 2025/12/01 at 14:20:12.703     
------------------------------------------------------------------------
 total:
 * wall-time:     0 d,  0 h,  0 min,  2.421 sec
 *  cpu-time:     0 d,  0 h,  0 min, 54.681 sec
 * ratio c/w:    22.586 speedup
 SCF:
 * wall-time:     0 d,  0 h,  0 min,  0.047 sec
 *  cpu-time:     0 d,  0 h,  0 min,  1.045 sec
 * ratio c/w:    22.096 speedup
 ANC optimizer:
 * wall-time:     0 d,  0 h,  0 min,  2.348 sec
 *  cpu-time:     0 d,  0 h,  0 min, 53.336 sec
 * ratio c/w:    22.718 speedup

normal termination of xtb
