      -----------------------------------------------------------      
     |                   =====================                   |     
     |                           x T B                           |     
     |                   =====================                   |     
     |                         S. Grimme                         |     
     |          Mulliken Center for Theoretical Chemistry        |     
     |                    University of Bonn                     |     
      -----------------------------------------------------------      

   * xtb version 6.7.1 (edcfbbe) compiled by 'albert@albert-system' on 2024-07-22

   xtb is free software: you can redistribute it and/or modify it under
   the terms of the GNU Lesser General Public License as published by
   the Free Software Foundation, either version 3 of the License, or
   (at your option) any later version.
   
   xtb is distributed in the hope that it will be useful,
   but WITHOUT ANY WARRANTY; without even the implied warranty of
   MERCHANTABILITY or FITNESS FOR A PARTICULAR PURPOSE.  See the
   GNU Lesser General Public License for more details.
   
   Cite this work as:
   * C. Bannwarth, E. Caldeweyher, S. Ehlert, A. Hansen, P. Pracht,
     J. Seibert, S. Spicher, S. Grimme, WIREs Comput. Mol. Sci., 2020, 11,
     e01493. DOI: 10.1002/wcms.1493
   
   for GFN2-xTB:
   * C. Bannwarth, S. Ehlert and S. Grimme., J. Chem. Theory Comput., 2019,
     15, 1652-1671. DOI: 10.1021/acs.jctc.8b01176
   for GFN1-xTB:
   * S. Grimme, C. Bannwarth, P. Shushkov, J. Chem. Theory Comput., 2017,
     13, 1989-2009. DOI: 10.1021/acs.jctc.7b00118
   for GFN0-xTB:
   * P. Pracht, E. Caldeweyher, S. Ehlert, S. Grimme, ChemRxiv, 2019, preprint.
     DOI: 10.26434/chemrxiv.8326202.v1
   for GFN-FF:
   * S. Spicher and S. Grimme, Angew. Chem. Int. Ed., 2020, 59, 15665-15673.
     DOI: 10.1002/anie.202004239
   
   for ALPB and GBSA implicit solvation:
   * S. Ehlert, M. Stahn, S. Spicher, S. Grimme, J. Chem. Theory Comput.,
     2021, 17, 4250-4261. DOI: 10.1021/acs.jctc.1c00471
   
   for ddCOSMO and CPCM-X implicit solvation:
   * M. Stahn, S. Ehlert, S. Grimme, J. Phys. Chem. A,
     2023, XX, XXXX-XXXX. DOI: 10.1021/acs.jpca.3c04382
   
   for DFT-D4:
   * E. Caldeweyher, C. Bannwarth and S. Grimme, J. Chem. Phys., 2017,
     147, 034112. DOI: 10.1063/1.4993215
   * E. Caldeweyher, S. Ehlert, A. Hansen, H. Neugebauer, S. Spicher,
     C. Bannwarth and S. Grimme, J. Chem. Phys., 2019, 150, 154122.
     DOI: 10.1063/1.5090222
   * E. Caldeweyher, J.-M. Mewes, S. Ehlert and S. Grimme, Phys. Chem. Chem. Phys.
     2020, 22, 8499-8512. DOI: 10.1039/D0CP00502A
   
   for sTDA-xTB:
   * S. Grimme and C. Bannwarth, J. Chem. Phys., 2016, 145, 054103.
     DOI: 10.1063/1.4959605
   
   in the mass-spec context:
   * V. Asgeirsson, C. Bauer and S. Grimme, Chem. Sci., 2017, 8, 4879.
     DOI: 10.1039/c7sc00601b
   * J. Koopman and S. Grimme, ACS Omega 2019, 4, 12, 15120-15133.
     DOI: 10.1021/acsomega.9b02011
   
   for metadynamics refer to:
   * S. Grimme, J. Chem. Theory Comput., 2019, 155, 2847-2862
     DOI: 10.1021/acs.jctc.9b00143
   
   for SPH calculations refer to:
   * S. Spicher and S. Grimme, J. Chem. Theory Comput., 2021, 17, 1701-1714
     DOI: 10.1021/acs.jctc.0c01306
   
   for ONIOM refer to:
   * C. Plett, A. Katbashev, S. Ehlert, S. Grimme, M. Bursch,
     Phys. Chem. Chem. Phys., 2023, 25, 17860-17868. DOI: 10.1039/D3CP02178E
   
   for DIPRO refer to:
   * J. Kohn, N. Gildemeister, S. Grimme, D. Fazzi, A. Hansen,
     J. Chem. Phys., 2023, just accepted.
   
   for PTB refer to:
   * S. Grimme, M. Mueller, A. Hansen, J. Chem. Phys., 2023, 158, 124111.
     DOI: 10.1063/5.0137838
   
   with help from (in alphabetical order)
   P. Atkinson, C. Bannwarth, F. Bohle, G. Brandenburg, E. Caldeweyher
   M. Checinski, S. Dohm, S. Ehlert, S. Ehrlich, I. Gerasimov, C. Hölzer
   A. Katbashev, J. Kohn, J. Koopman, C. Lavigne, S. Lehtola, F. März, M. Müller,
   F. Musil, H. Neugebauer, J. Pisarek, C. Plett, P. Pracht, F. Pultar,
   J. Seibert, P. Shushkov, S. Spicher, M. Stahn, M. Steiner, T. Strunk,
   J. Stückrath, T. Rose, and J. Unsleber
   
 * started run on 2025/12/01 at 14:20:08.241     
   ID    Z sym.   atoms
    1    6 C      1-3, 5-7, 9, 11, 12, 14-16, 18, 20, 21
    2    8 O      4, 8, 10, 13, 17, 19
    3    1 H      22-45

           -------------------------------------------------
          |                Calculation Setup                |
           -------------------------------------------------

          program call               : xtb pipeline_data/3_conformer_xyz/acrylates/rdkit/ZDQNWDNMNKSMHI-FRRDWIJNSA-N_conf181.xyz --opt --gfn 2-xTB --iterations 250
          coordinate file            : pipeline_data/3_conformer_xyz/acrylates/rdkit/ZDQNWDNMNKSMHI-FRRDWIJNSA-N_conf181.xyz
          omp threads                :                    24

########################################################################
[WARNING] Please study the warnings concerning your input carefully
-1- readin_getIntValue: could not parse '2-xTB'
########################################################################

           -------------------------------------------------
          |                 G F N 2 - x T B                 |
           -------------------------------------------------

        Reference                      10.1021/acs.jctc.8b01176
      * Hamiltonian:
        H0-scaling (s, p, d)           1.850000    2.230000    2.230000
        zeta-weighting                 0.500000
      * Dispersion:
        s8                             2.700000
        a1                             0.520000
        a2                             5.000000
        s9                             5.000000
      * Repulsion:
        kExp                           1.500000    1.000000
        rExp                           1.000000
      * Coulomb:
        alpha                          2.000000
        third order                    shell-resolved
        anisotropic                    true
        a3                             3.000000
        a5                             4.000000
        cn-shift                       1.200000
        cn-exp                         4.000000
        max-rad                        5.000000

q/qsh data taken from xtbrestart
CAMM data taken from xtbrestart

          ...................................................
          :                      SETUP                      :
          :.................................................:
          :  # basis functions                 108          :
          :  # atomic orbitals                 108          :
          :  # shells                           66          :
          :  # electrons                       120          :
          :  max. iterations                   250          :
          :  Hamiltonian                  GFN2-xTB          :
          :  restarted?                       true          :
          :  GBSA solvation                  false          :
          :  PC potential                    false          :
          :  electronic temp.          300.0000000     K    :
          :  accuracy                    1.0000000          :
          :  -> integral cutoff          0.2500000E+02      :
          :  -> integral neglect         0.1000000E-07      :
          :  -> SCF convergence          0.1000000E-05 Eh   :
          :  -> wf. convergence          0.1000000E-03 e    :
          :  Broyden damping             0.4000000          :
          :  net charge                          0          :
          :  unpaired electrons                  0          :
          ...................................................

 iter      E             dE          RMSdq      gap      omega  full diag
   1    -69.3673739 -0.693674E+02  0.490E+00    2.73       0.0  T
   2    -69.3765204 -0.914656E-02  0.290E+00    2.73       1.0  T
   3    -69.3632778  0.132427E-01  0.694E-01    2.65       1.0  T
   4    -69.3803221 -0.170443E-01  0.196E-01    2.73       1.0  T
   5    -69.3807359 -0.413788E-03  0.977E-02    2.75       1.0  T
   6    -69.3807814 -0.455397E-04  0.424E-02    2.77       1.0  T
   7    -69.3808114 -0.300081E-04  0.179E-02    2.76       1.0  T
   8    -69.3808190 -0.757926E-05  0.757E-03    2.76       2.0  T
   9    -69.3808198 -0.780076E-06  0.270E-03    2.76       5.5  T
  10    -69.3808199 -0.613998E-07  0.115E-03    2.76      13.0  T
  11    -69.3808199 -0.621432E-08  0.360E-04    2.76      41.5  T
  12    -69.3808199 -0.599513E-09  0.115E-04    2.76     130.1  T

   *** convergence criteria satisfied after 12 iterations ***

         #    Occupation            Energy/Eh            Energy/eV
      -------------------------------------------------------------
         1        2.0000           -0.7340140             -19.9735
       ...           ...                  ...                  ...
        54        2.0000           -0.4379323             -11.9167
        55        2.0000           -0.4355203             -11.8511
        56        2.0000           -0.4324308             -11.7670
        57        2.0000           -0.4156110             -11.3094
        58        2.0000           -0.4152886             -11.3006
        59        2.0000           -0.4039070             -10.9909
        60        2.0000           -0.3961614             -10.7801 (HOMO)
        61                         -0.2947190              -8.0197 (LUMO)
        62                         -0.2906490              -7.9090
        63                         -0.1826611              -4.9705
        64                         -0.1775427              -4.8312
        65                         -0.0507807              -1.3818
       ...                                ...                  ...
       108                          0.6066107              16.5067
      -------------------------------------------------------------
                  HL-Gap            0.1014424 Eh            2.7604 eV
             Fermi-level           -0.3454402 Eh           -9.3999 eV

 SCC (total)                   0 d,  0 h,  0 min,  0.099 sec
 SCC setup                      ...        0 min,  0.001 sec (  0.790%)
 Dispersion                     ...        0 min,  0.001 sec (  0.817%)
 classical contributions        ...        0 min,  0.000 sec (  0.330%)
 integral evaluation            ...        0 min,  0.003 sec (  2.573%)
 iterations                     ...        0 min,  0.088 sec ( 89.000%)
 molecular gradient             ...        0 min,  0.006 sec (  6.200%)
 printout                       ...        0 min,  0.000 sec (  0.254%)

         :::::::::::::::::::::::::::::::::::::::::::::::::::::
         ::                     SUMMARY                     ::
         :::::::::::::::::::::::::::::::::::::::::::::::::::::
         :: total energy             -68.669581099015 Eh    ::
         :: gradient norm              0.210757722428 Eh/a0 ::
         :: HOMO-LUMO gap              2.760388859533 eV    ::
         ::.................................................::
         :: SCC energy               -69.380796356772 Eh    ::
         :: -> isotropic ES            0.130853645818 Eh    ::
         :: -> anisotropic ES          0.000026283207 Eh    ::
         :: -> anisotropic XC          0.015325934087 Eh    ::
         :: -> dispersion             -0.034885284088 Eh    ::
         :: repulsion energy           0.711215257757 Eh    ::
         :: add. restraining           0.000000000000 Eh    ::
         :: total charge              -0.000000000000 e     ::
         :::::::::::::::::::::::::::::::::::::::::::::::::::::

      ----------------------------------------------------------- 
     |                   =====================                   |
     |                        A N C O P T                        |
     |                   =====================                   |
     |               Approximate Normal Coordinate               |
     |                Rational Function Optimizer                |
      ----------------------------------------------------------- 
      ----------------------------------------------------------- 
     |                   =====================                   |
     |                        A N C O P T                        |
     |                   =====================                   |
     |               Approximate Normal Coordinate               |
     |                Rational Function Optimizer                |
      ----------------------------------------------------------- 

          ...................................................
          :                      SETUP                      :
          :.................................................:
          :   optimization level            normal          :
          :   max. optcycles                   200          :
          :   ANC micro-cycles                  20          :
          :   degrees of freedom               129          :
          :.................................................:
          :   RF solver                   davidson          :
          :   write xtbopt.log                true          :
          :   linear?                        false          :
          :   energy convergence         0.5000000E-05 Eh   :
          :   grad. convergence          0.1000000E-02 Eh/α :
          :   maxmium RF displ.          1.0000000          :
          :   Hlow (freq-cutoff)         0.1000000E-01      :
          :   Hmax (freq-cutoff)         5.0000000          :
          :   S6 in model hess.         20.0000000          :
          ...................................................

generating ANC from exact Hessian ...
Using Lindh-Hessian (1995)
 Shifting diagonal of input Hessian by   9.887127573193192E-003
 Lowest  eigenvalues of input Hessian
    0.000000    0.000000    0.000000    0.000000    0.000000    0.000000
    0.010000    0.010175    0.010216    0.010494    0.010714    0.010966
    0.011471    0.011731    0.011980    0.013118    0.013677    0.014192
 Highest eigenvalues
    1.722749    1.765718    1.870534    1.961505    2.066553    2.095020
 

........................................................................
.............................. CYCLE    1 ..............................
........................................................................

 iter      E             dE          RMSdq      gap      omega  full diag
   1    -69.3808199 -0.693808E+02  0.456E-05    2.76       0.0  T
   2    -69.3808199 -0.107150E-10  0.278E-05    2.76     536.7  T
   3    -69.3808199 -0.103739E-11  0.177E-05    2.76     840.0  T
     SCC iter.                  ...        0 min,  0.007 sec
     gradient                   ...        0 min,  0.005 sec
 * total energy  :   -68.6695811 Eh     change       -0.8645884E-10 Eh
   gradient norm :     0.2107583 Eh/α   predicted     0.0000000E+00 (-100.00%)
   displ. norm   :     0.3894820 α      lambda       -0.4542084E-01
   maximum displ.:     0.1476457 α      in ANC's #30, #42, #32, ...

........................................................................
.............................. CYCLE    2 ..............................
........................................................................

 iter      E             dE          RMSdq      gap      omega  full diag
   1    -69.4472764 -0.694473E+02  0.282E-01    3.14       0.0  T
   2    -69.4479527 -0.676354E-03  0.178E-01    3.07       1.0  T
   3    -69.4478825  0.702734E-04  0.108E-01    3.05       1.0  T
   4    -69.4480382 -0.155711E-03  0.432E-02    3.05       1.0  T
   5    -69.4480896 -0.514062E-04  0.895E-03    3.05       1.7  T
   6    -69.4480909 -0.135564E-05  0.449E-03    3.05       3.3  T
   7    -69.4480911 -0.153684E-06  0.165E-03    3.05       9.0  T
   8    -69.4480911  0.126913E-07  0.109E-03    3.05      13.6  T
   9    -69.4480911 -0.318879E-07  0.315E-04    3.05      47.3  T
  10    -69.4480911 -0.886757E-09  0.117E-04    3.05     127.0  T
     SCC iter.                  ...        0 min,  0.023 sec
     gradient                   ...        0 min,  0.004 sec
 * total energy  :   -68.7020068 Eh     change       -0.3242568E-01 Eh
   gradient norm :     0.0880058 Eh/α   predicted    -0.2617800E-01 ( -19.27%)
   displ. norm   :     0.3674491 α      lambda       -0.1577703E-01
   maximum displ.:     0.1724838 α      in ANC's #30, #42, #32, ...

........................................................................
.............................. CYCLE    3 ..............................
........................................................................

 iter      E             dE          RMSdq      gap      omega  full diag
   1    -69.4823610 -0.694824E+02  0.206E-01    3.32       0.0  T
   2    -69.4826861 -0.325121E-03  0.129E-01    3.28       1.0  T
   3    -69.4826331  0.530201E-04  0.762E-02    3.27       1.0  T
   4    -69.4827171 -0.840644E-04  0.302E-02    3.26       1.0  T
   5    -69.4827419 -0.247636E-04  0.598E-03    3.26       2.5  T
   6    -69.4827424 -0.513867E-06  0.260E-03    3.27       5.7  T
   7    -69.4827425 -0.625228E-07  0.925E-04    3.27      16.1  T
   8    -69.4827425 -0.181987E-08  0.339E-04    3.27      44.0  T
     SCC iter.                  ...        0 min,  0.019 sec
     gradient                   ...        0 min,  0.004 sec
 * total energy  :   -68.7110632 Eh     change       -0.9056392E-02 Eh
   gradient norm :     0.0253697 Eh/α   predicted    -0.8953610E-02 (  -1.13%)
   displ. norm   :     0.2639260 α      lambda       -0.2446197E-02
   maximum displ.:     0.1315735 α      in ANC's #11, #30, #19, ...

........................................................................
.............................. CYCLE    4 ..............................
........................................................................

 iter      E             dE          RMSdq      gap      omega  full diag
   1    -69.4812423 -0.694812E+02  0.854E-02    3.30       0.0  T
   2    -69.4812698 -0.275075E-04  0.513E-02    3.30       1.0  T
   3    -69.4812657  0.412653E-05  0.202E-02    3.30       1.0  T
   4    -69.4812688 -0.313260E-05  0.952E-03    3.30       1.6  T
   5    -69.4812719 -0.309393E-05  0.173E-03    3.30       8.6  T
   6    -69.4812719 -0.512648E-07  0.846E-04    3.30      17.6  T
   7    -69.4812719 -0.389210E-08  0.293E-04    3.30      50.9  T
     SCC iter.                  ...        0 min,  0.016 sec
     gradient                   ...        0 min,  0.004 sec
 * total energy  :   -68.7127006 Eh     change       -0.1637449E-02 Eh
   gradient norm :     0.0118157 Eh/α   predicted    -0.1308424E-02 ( -20.09%)
   displ. norm   :     0.3209294 α      lambda       -0.1379373E-02
   maximum displ.:     0.1874754 α      in ANC's #11, #19, #18, ...

........................................................................
.............................. CYCLE    5 ..............................
........................................................................

 iter      E             dE          RMSdq      gap      omega  full diag
   1    -69.4802737 -0.694803E+02  0.818E-02    3.31       0.0  T
   2    -69.4802923 -0.186012E-04  0.491E-02    3.32       1.0  T
   3    -69.4802900  0.232626E-05  0.155E-02    3.32       1.0  T
   4    -69.4802923 -0.232902E-05  0.660E-03    3.32       2.3  T
   5    -69.4802937 -0.136794E-05  0.141E-03    3.32      10.6  T
   6    -69.4802937 -0.363068E-07  0.735E-04    3.32      20.3  T
   7    -69.4802937 -0.298303E-08  0.183E-04    3.32      81.3  T
     SCC iter.                  ...        0 min,  0.016 sec
     gradient                   ...        0 min,  0.004 sec
 * total energy  :   -68.7135600 Eh     change       -0.8593629E-03 Eh
   gradient norm :     0.0099866 Eh/α   predicted    -0.7607216E-03 ( -11.48%)
   displ. norm   :     0.3434266 α      lambda       -0.9653368E-03
   maximum displ.:     0.2011421 α      in ANC's #11, #19, #6, ...

........................................................................
.............................. CYCLE    6 ..............................
........................................................................

 iter      E             dE          RMSdq      gap      omega  full diag
   1    -69.4806210 -0.694806E+02  0.785E-02    3.31       0.0  T
   2    -69.4806283 -0.726321E-05  0.469E-02    3.32       1.0  T
   3    -69.4806260  0.224432E-05  0.111E-02    3.33       1.3  T
   4    -69.4806286 -0.254279E-05  0.422E-03    3.33       3.5  T
   5    -69.4806291 -0.577216E-06  0.122E-03    3.33      12.3  T
   6    -69.4806291 -0.187973E-07  0.614E-04    3.33      24.3  T
   7    -69.4806291 -0.156275E-08  0.126E-04    3.33     118.1  T
     SCC iter.                  ...        0 min,  0.016 sec
     gradient                   ...        0 min,  0.004 sec
 * total energy  :   -68.7141560 Eh     change       -0.5960063E-03 Eh
   gradient norm :     0.0118036 Eh/α   predicted    -0.5396147E-03 (  -9.46%)
   displ. norm   :     0.3005733 α      lambda       -0.6582154E-03
   maximum displ.:     0.1603044 α      in ANC's #11, #6, #10, ...

........................................................................
.............................. CYCLE    7 ..............................
........................................................................

 iter      E             dE          RMSdq      gap      omega  full diag
   1    -69.4824462 -0.694824E+02  0.564E-02    3.32       0.0  T
   2    -69.4824480 -0.180097E-05  0.338E-02    3.32       1.0  T
   3    -69.4824479  0.166525E-06  0.429E-03    3.33       3.5  T
   4    -69.4824482 -0.347750E-06  0.204E-03    3.33       7.3  T
   5    -69.4824483 -0.893641E-07  0.889E-04    3.33      16.8  T
   6    -69.4824483 -0.136689E-07  0.376E-04    3.33      39.6  T
     SCC iter.                  ...        0 min,  0.021 sec
     gradient                   ...        0 min,  0.009 sec
 * total energy  :   -68.7146690 Eh     change       -0.5130298E-03 Eh
   gradient norm :     0.0106002 Eh/α   predicted    -0.3588420E-03 ( -30.05%)
   displ. norm   :     0.4050340 α      lambda       -0.7646789E-03
   maximum displ.:     0.1818219 α      in ANC's #11, #6, #10, ...

........................................................................
.............................. CYCLE    8 ..............................
........................................................................

 iter      E             dE          RMSdq      gap      omega  full diag
   1    -69.4851405 -0.694851E+02  0.732E-02    3.32       0.0  T
   2    -69.4851477 -0.723476E-05  0.437E-02    3.33       1.0  T
   3    -69.4851468  0.887038E-06  0.950E-03    3.33       1.6  T
   4    -69.4851480 -0.115050E-05  0.370E-03    3.33       4.0  T
   5    -69.4851484 -0.400134E-06  0.127E-03    3.33      11.7  T
   6    -69.4851484 -0.246864E-07  0.630E-04    3.33      23.7  T
   7    -69.4851484 -0.275341E-08  0.172E-04    3.33      86.7  T
     SCC iter.                  ...        0 min,  0.028 sec
     gradient                   ...        0 min,  0.007 sec
 * total energy  :   -68.7152152 Eh     change       -0.5461593E-03 Eh
   gradient norm :     0.0075601 Eh/α   predicted    -0.4450661E-03 ( -18.51%)
   displ. norm   :     0.3811388 α      lambda       -0.4794469E-03
   maximum displ.:     0.1416004 α      in ANC's #11, #6, #5, ...

........................................................................
.............................. CYCLE    9 ..............................
........................................................................

 iter      E             dE          RMSdq      gap      omega  full diag
   1    -69.4851637 -0.694852E+02  0.686E-02    3.32       0.0  T
   2    -69.4851685 -0.480444E-05  0.410E-02    3.32       1.0  T
   3    -69.4851665  0.199266E-05  0.102E-02    3.32       1.5  T
   4    -69.4851687 -0.213919E-05  0.408E-03    3.32       3.7  T
   5    -69.4851692 -0.553886E-06  0.113E-03    3.32      13.2  T
   6    -69.4851692 -0.999752E-08  0.562E-04    3.32      26.5  T
   7    -69.4851692 -0.162918E-08  0.120E-04    3.32     124.1  T
     SCC iter.                  ...        0 min,  0.020 sec
     gradient                   ...        0 min,  0.004 sec
 * total energy  :   -68.7155431 Eh     change       -0.3279549E-03 Eh
   gradient norm :     0.0070904 Eh/α   predicted    -0.2745486E-03 ( -16.28%)
   displ. norm   :     0.3048286 α      lambda       -0.3468563E-03
   maximum displ.:     0.1180483 α      in ANC's #5, #6, #2, ...

........................................................................
.............................. CYCLE   10 ..............................
........................................................................

 iter      E             dE          RMSdq      gap      omega  full diag
   1    -69.4868065 -0.694868E+02  0.621E-02    3.31       0.0  T
   2    -69.4868083 -0.181481E-05  0.371E-02    3.31       1.0  T
   3    -69.4868061  0.220301E-05  0.897E-03    3.30       1.7  T
   4    -69.4868086 -0.252372E-05  0.270E-03    3.30       5.5  T
   5    -69.4868088 -0.208363E-06  0.100E-03    3.30      14.9  T
   6    -69.4868088 -0.456176E-08  0.420E-04    3.30      35.5  T
   7    -69.4868088 -0.112811E-08  0.101E-04    3.30     147.7  T
     SCC iter.                  ...        0 min,  0.017 sec
     gradient                   ...        0 min,  0.004 sec
 * total energy  :   -68.7157550 Eh     change       -0.2118370E-03 Eh
   gradient norm :     0.0060832 Eh/α   predicted    -0.1895545E-03 ( -10.52%)
   displ. norm   :     0.3252210 α      lambda       -0.2334977E-03
   maximum displ.:     0.1214013 α      in ANC's #5, #4, #6, ...

........................................................................
.............................. CYCLE   11 ..............................
........................................................................

 iter      E             dE          RMSdq      gap      omega  full diag
   1    -69.4835210 -0.694835E+02  0.627E-02    3.30       0.0  T
   2    -69.4835246 -0.358702E-05  0.371E-02    3.30       1.0  T
   3    -69.4835235  0.111824E-05  0.800E-03    3.30       1.9  T
   4    -69.4835247 -0.116303E-05  0.369E-03    3.30       4.0  T
   5    -69.4835251 -0.430220E-06  0.105E-03    3.30      14.3  T
   6    -69.4835251 -0.249503E-08  0.373E-04    3.30      39.9  T
   7    -69.4835251 -0.109821E-08  0.919E-05    3.30     162.2  T
     SCC iter.                  ...        0 min,  0.015 sec
     gradient                   ...        0 min,  0.005 sec
 * total energy  :   -68.7158477 Eh     change       -0.9273600E-04 Eh
   gradient norm :     0.0080314 Eh/α   predicted    -0.1291048E-03 (  39.22%)
   displ. norm   :     0.1490215 α      lambda       -0.2498926E-03
   maximum displ.:     0.0681965 α      in ANC's #5, #4, #19, ...

........................................................................
.............................. CYCLE   12 ..............................
........................................................................

 iter      E             dE          RMSdq      gap      omega  full diag
   1    -69.4867342 -0.694867E+02  0.381E-02    3.29       0.0  T
   2    -69.4867371 -0.288499E-05  0.222E-02    3.29       1.0  T
   3    -69.4867370  0.116957E-06  0.552E-03    3.30       2.7  T
   4    -69.4867373 -0.272198E-06  0.173E-03    3.30       8.6  T
   5    -69.4867373 -0.800665E-07  0.847E-04    3.30      17.6  T
   6    -69.4867373 -0.953669E-08  0.402E-04    3.30      37.1  T
     SCC iter.                  ...        0 min,  0.026 sec
     gradient                   ...        0 min,  0.006 sec
 * total energy  :   -68.7159849 Eh     change       -0.1371931E-03 Eh
   gradient norm :     0.0051307 Eh/α   predicted    -0.1277217E-03 (  -6.90%)
   displ. norm   :     0.1609561 α      lambda       -0.1485644E-03
   maximum displ.:     0.0745516 α      in ANC's #4, #5, #8, ...

........................................................................
.............................. CYCLE   13 ..............................
........................................................................

 iter      E             dE          RMSdq      gap      omega  full diag
   1    -69.4870342 -0.694870E+02  0.362E-02    3.29       0.0  T
   2    -69.4870353 -0.107285E-05  0.213E-02    3.29       1.0  T
   3    -69.4870349  0.384117E-06  0.446E-03    3.30       3.3  T
   4    -69.4870353 -0.439511E-06  0.174E-03    3.30       8.6  T
   5    -69.4870354 -0.101076E-06  0.559E-04    3.30      26.7  T
   6    -69.4870354 -0.299733E-08  0.275E-04    3.30      54.2  T
     SCC iter.                  ...        0 min,  0.013 sec
     gradient                   ...        0 min,  0.005 sec
 * total energy  :   -68.7160882 Eh     change       -0.1032789E-03 Eh
   gradient norm :     0.0042845 Eh/α   predicted    -0.7620852E-04 ( -26.21%)
   displ. norm   :     0.2789851 α      lambda       -0.1716603E-03
   maximum displ.:     0.1325344 α      in ANC's #4, #5, #8, ...

........................................................................
.............................. CYCLE   14 ..............................
........................................................................

 iter      E             dE          RMSdq      gap      omega  full diag
   1    -69.4861477 -0.694861E+02  0.586E-02    3.29       0.0  T
   2    -69.4861494 -0.169566E-05  0.345E-02    3.29       1.0  T
   3    -69.4861486  0.839660E-06  0.592E-03    3.30       2.5  T
   4    -69.4861495 -0.938415E-06  0.254E-03    3.30       5.9  T
   5    -69.4861497 -0.204859E-06  0.793E-04    3.30      18.8  T
   6    -69.4861497 -0.315913E-08  0.364E-04    3.30      41.0  T
     SCC iter.                  ...        0 min,  0.014 sec
     gradient                   ...        0 min,  0.005 sec
 * total energy  :   -68.7162161 Eh     change       -0.1278761E-03 Eh
   gradient norm :     0.0045052 Eh/α   predicted    -0.9251995E-04 ( -27.65%)
   displ. norm   :     0.3291923 α      lambda       -0.1686852E-03
   maximum displ.:     0.1559817 α      in ANC's #4, #5, #8, ...

........................................................................
.............................. CYCLE   15 ..............................
........................................................................

 iter      E             dE          RMSdq      gap      omega  full diag
   1    -69.4852098 -0.694852E+02  0.732E-02    3.29       0.0  T
   2    -69.4852109 -0.104494E-05  0.432E-02    3.29       1.0  T
   3    -69.4852101  0.759730E-06  0.570E-03    3.29       2.6  T
   4    -69.4852112 -0.104303E-05  0.199E-03    3.29       7.5  T
   5    -69.4852113 -0.797106E-07  0.819E-04    3.29      18.2  T
   6    -69.4852113 -0.190371E-08  0.275E-04    3.29      54.2  T
     SCC iter.                  ...        0 min,  0.014 sec
     gradient                   ...        0 min,  0.005 sec
 * total energy  :   -68.7163454 Eh     change       -0.1292984E-03 Eh
   gradient norm :     0.0054937 Eh/α   predicted    -0.9348545E-04 ( -27.70%)
   displ. norm   :     0.3847893 α      lambda       -0.1998559E-03
   maximum displ.:     0.1762691 α      in ANC's #4, #5, #8, ...

........................................................................
.............................. CYCLE   16 ..............................
........................................................................

 iter      E             dE          RMSdq      gap      omega  full diag
   1    -69.4848322 -0.694848E+02  0.939E-02    3.28       0.0  T
   2    -69.4848336 -0.137548E-05  0.555E-02    3.28       1.0  T
   3    -69.4848324  0.124988E-05  0.711E-03    3.28       2.1  T
   4    -69.4848341 -0.172561E-05  0.237E-03    3.28       6.3  T
   5    -69.4848342 -0.103811E-06  0.116E-03    3.28      12.9  T
   6    -69.4848342 -0.750570E-08  0.378E-04    3.28      39.5  T
   7    -69.4848342 -0.753232E-09  0.104E-04    3.28     143.8  T
     SCC iter.                  ...        0 min,  0.016 sec
     gradient                   ...        0 min,  0.005 sec
 * total energy  :   -68.7164990 Eh     change       -0.1536172E-03 Eh
   gradient norm :     0.0061889 Eh/α   predicted    -0.1147272E-03 ( -25.32%)
   displ. norm   :     0.4472385 α      lambda       -0.2333966E-03
   maximum displ.:     0.2101157 α      in ANC's #5, #4, #8, ...

........................................................................
.............................. CYCLE   17 ..............................
........................................................................

 iter      E             dE          RMSdq      gap      omega  full diag
   1    -69.4836943 -0.694837E+02  0.115E-01    3.26       0.0  T
   2    -69.4836971 -0.279331E-05  0.677E-02    3.26       1.0  T
   3    -69.4836952  0.192457E-05  0.857E-03    3.26       1.7  T
   4    -69.4836978 -0.256952E-05  0.331E-03    3.26       4.5  T
   5    -69.4836980 -0.280211E-06  0.149E-03    3.26      10.0  T
   6    -69.4836981 -0.123866E-07  0.546E-04    3.26      27.3  T
   7    -69.4836981 -0.173623E-08  0.114E-04    3.26     131.3  T
     SCC iter.                  ...        0 min,  0.016 sec
     gradient                   ...        0 min,  0.006 sec
 * total energy  :   -68.7166817 Eh     change       -0.1826919E-03 Eh
   gradient norm :     0.0068746 Eh/α   predicted    -0.1400424E-03 ( -23.35%)
   displ. norm   :     0.4274695 α      lambda       -0.2953181E-03
   maximum displ.:     0.1873127 α      in ANC's #5, #8, #4, ...

........................................................................
.............................. CYCLE   18 ..............................
........................................................................

 iter      E             dE          RMSdq      gap      omega  full diag
   1    -69.4859162 -0.694859E+02  0.122E-01    3.24       0.0  T
   2    -69.4859189 -0.275529E-05  0.720E-02    3.24       1.0  T
   3    -69.4859162  0.267850E-05  0.965E-03    3.24       1.5  T
   4    -69.4859197 -0.343963E-05  0.345E-03    3.24       4.3  T
   5    -69.4859200 -0.297861E-06  0.157E-03    3.24       9.5  T
   6    -69.4859200 -0.109629E-07  0.532E-04    3.24      28.0  T
   7    -69.4859200 -0.201017E-08  0.119E-04    3.24     124.9  T
     SCC iter.                  ...        0 min,  0.015 sec
     gradient                   ...        0 min,  0.005 sec
 * total energy  :   -68.7168871 Eh     change       -0.2054724E-03 Eh
   gradient norm :     0.0072952 Eh/α   predicted    -0.1746462E-03 ( -15.00%)
   displ. norm   :     0.5013607 α      lambda       -0.2866442E-03
   maximum displ.:     0.2568929 α      in ANC's #5, #8, #4, ...

........................................................................
.............................. CYCLE   19 ..............................
........................................................................

 iter      E             dE          RMSdq      gap      omega  full diag
   1    -69.4826508 -0.694827E+02  0.131E-01    3.22       0.0  T
   2    -69.4826545 -0.369808E-05  0.771E-02    3.21       1.0  T
   3    -69.4826510  0.356700E-05  0.112E-02    3.21       1.3  T
   4    -69.4826556 -0.461256E-05  0.383E-03    3.21       3.9  T
   5    -69.4826559 -0.363047E-06  0.180E-03    3.21       8.3  T
   6    -69.4826560 -0.160705E-07  0.627E-04    3.21      23.8  T
   7    -69.4826560 -0.229193E-08  0.146E-04    3.21     101.9  T
     SCC iter.                  ...        0 min,  0.016 sec
     gradient                   ...        0 min,  0.004 sec
 * total energy  :   -68.7170696 Eh     change       -0.1824890E-03 Eh
   gradient norm :     0.0097031 Eh/α   predicted    -0.1793511E-03 (  -1.72%)
   displ. norm   :     0.2942598 α      lambda       -0.3419016E-03
   maximum displ.:     0.1398318 α      in ANC's #5, #8, #4, ...

........................................................................
.............................. CYCLE   20 ..............................
........................................................................

 iter      E             dE          RMSdq      gap      omega  full diag
   1    -69.4880811 -0.694881E+02  0.876E-02    3.21       0.0  T
   2    -69.4880851 -0.403699E-05  0.520E-02    3.21       1.0  T
   3    -69.4880803  0.481016E-05  0.126E-02    3.21       1.2  T
   4    -69.4880857 -0.544592E-05  0.383E-03    3.21       3.9  T
   5    -69.4880862 -0.444334E-06  0.125E-03    3.21      11.9  T
   6    -69.4880862 -0.849822E-08  0.622E-04    3.21      24.0  T
   7    -69.4880862 -0.137072E-08  0.128E-04    3.21     116.2  T
     SCC iter.                  ...        0 min,  0.016 sec
     gradient                   ...        0 min,  0.004 sec
 * total energy  :   -68.7172791 Eh     change       -0.2094303E-03 Eh
   gradient norm :     0.0083824 Eh/α   predicted    -0.1857571E-03 ( -11.30%)
   displ. norm   :     0.5412052 α      lambda       -0.3106761E-03
   maximum displ.:     0.2798344 α      in ANC's #5, #8, #4, ...
 * RMSD in coord.:     0.7211673 α      energy gain  -0.4769796E-01 Eh

generating ANC from exact Hessian ...
Using Lindh-Hessian (1995)
 Shifting diagonal of input Hessian by   9.874680334637499E-003
 Lowest  eigenvalues of input Hessian
    0.000000    0.000000    0.000000    0.000000    0.000000    0.000000
    0.010000    0.010166    0.010203    0.010459    0.010692    0.010988
    0.011442    0.011986    0.012290    0.013070    0.013886    0.014012
 Highest eigenvalues
    1.748351    1.814060    1.948355    2.015228    2.383765    2.399154
 

........................................................................
.............................. CYCLE   21 ..............................
........................................................................

 iter      E             dE          RMSdq      gap      omega  full diag
   1    -69.4828971 -0.694829E+02  0.150E-01    3.19       0.0  T
   2    -69.4829020 -0.486916E-05  0.883E-02    3.19       1.0  T
   3    -69.4828988  0.321792E-05  0.113E-02    3.19       1.3  T
   4    -69.4829031 -0.431075E-05  0.416E-03    3.19       3.6  T
   5    -69.4829035 -0.414284E-06  0.185E-03    3.19       8.1  T
   6    -69.4829035 -0.839087E-08  0.632E-04    3.19      23.6  T
   7    -69.4829035 -0.450767E-08  0.154E-04    3.19      97.1  T
     SCC iter.                  ...        0 min,  0.016 sec
     gradient                   ...        0 min,  0.004 sec
 * total energy  :   -68.7174757 Eh     change       -0.1966791E-03 Eh
   gradient norm :     0.0114243 Eh/α   predicted     0.0000000E+00 (-100.00%)
   displ. norm   :     0.0667926 α      lambda       -0.2515601E-03
   maximum displ.:     0.0303800 α      in ANC's #5, #8, #26, ...

........................................................................
.............................. CYCLE   22 ..............................
........................................................................

 iter      E             dE          RMSdq      gap      omega  full diag
   1    -69.4876229 -0.694876E+02  0.314E-02    3.20       0.0  T
   2    -69.4876244 -0.149572E-05  0.187E-02    3.20       1.0  T
   3    -69.4876226  0.172596E-05  0.793E-03    3.21       1.9  T
   4    -69.4876246 -0.198678E-05  0.228E-03    3.21       6.5  T
   5    -69.4876248 -0.161307E-06  0.616E-04    3.21      24.2  T
   6    -69.4876248 -0.197792E-08  0.352E-04    3.21      42.4  T
     SCC iter.                  ...        0 min,  0.015 sec
     gradient                   ...        0 min,  0.005 sec
 * total energy  :   -68.7176481 Eh     change       -0.1723839E-03 Eh
   gradient norm :     0.0041410 Eh/α   predicted    -0.1263415E-03 ( -26.71%)
   displ. norm   :     0.1090561 α      lambda       -0.1397557E-03
   maximum displ.:     0.0567260 α      in ANC's #5, #8, #9, ...

........................................................................
.............................. CYCLE   23 ..............................
........................................................................

 iter      E             dE          RMSdq      gap      omega  full diag
   1    -69.4900774 -0.694901E+02  0.452E-02    3.21       0.0  T
   2    -69.4900783 -0.902351E-06  0.266E-02    3.21       1.0  T
   3    -69.4900767  0.152738E-05  0.700E-03    3.22       2.1  T
   4    -69.4900785 -0.176474E-05  0.184E-03    3.21       8.1  T
   5    -69.4900786 -0.915027E-07  0.715E-04    3.21      20.9  T
   6    -69.4900786 -0.203781E-08  0.329E-04    3.21      45.4  T
     SCC iter.                  ...        0 min,  0.017 sec
     gradient                   ...        0 min,  0.010 sec
 * total energy  :   -68.7177429 Eh     change       -0.9474138E-04 Eh
   gradient norm :     0.0030386 Eh/α   predicted    -0.7071977E-04 ( -25.35%)
   displ. norm   :     0.1733004 α      lambda       -0.1294819E-03
   maximum displ.:     0.0904777 α      in ANC's #5, #8, #9, ...

........................................................................
.............................. CYCLE   24 ..............................
........................................................................

 iter      E             dE          RMSdq      gap      omega  full diag
   1    -69.4903447 -0.694903E+02  0.713E-02    3.21       0.0  T
   2    -69.4903461 -0.135772E-05  0.420E-02    3.21       1.0  T
   3    -69.4903456  0.417048E-06  0.486E-03    3.22       3.1  T
   4    -69.4903463 -0.685183E-06  0.226E-03    3.22       6.6  T
   5    -69.4903465 -0.126230E-06  0.100E-03    3.22      14.9  T
   6    -69.4903465 -0.371361E-08  0.369E-04    3.22      40.4  T
   7    -69.4903465 -0.117610E-08  0.763E-05    3.22     195.3  T
     SCC iter.                  ...        0 min,  0.019 sec
     gradient                   ...        0 min,  0.006 sec
 * total energy  :   -68.7178388 Eh     change       -0.9598139E-04 Eh
   gradient norm :     0.0048356 Eh/α   predicted    -0.6668970E-04 ( -30.52%)
   displ. norm   :     0.3048033 α      lambda       -0.1826296E-03
   maximum displ.:     0.1636982 α      in ANC's #8, #5, #9, ...

........................................................................
.............................. CYCLE   25 ..............................
........................................................................

 iter      E             dE          RMSdq      gap      omega  full diag
   1    -69.4881340 -0.694881E+02  0.125E-01    3.20       0.0  T
   2    -69.4881378 -0.378462E-05  0.738E-02    3.20       1.0  T
   3    -69.4881381 -0.357611E-06  0.515E-03    3.21       2.9  T
   4    -69.4881386 -0.451040E-06  0.311E-03    3.21       4.8  T
   5    -69.4881388 -0.193567E-06  0.170E-03    3.21       8.8  T
   6    -69.4881388 -0.193133E-07  0.456E-04    3.20      32.7  T
   7    -69.4881388 -0.343643E-08  0.118E-04    3.20     126.6  T
     SCC iter.                  ...        0 min,  0.016 sec
     gradient                   ...        0 min,  0.005 sec
 * total energy  :   -68.7179756 Eh     change       -0.1368093E-03 Eh
   gradient norm :     0.0071225 Eh/α   predicted    -0.9980957E-04 ( -27.04%)
   displ. norm   :     0.2890812 α      lambda       -0.1628829E-03
   maximum displ.:     0.1599435 α      in ANC's #8, #5, #9, ...

........................................................................
.............................. CYCLE   26 ..............................
........................................................................

 iter      E             dE          RMSdq      gap      omega  full diag
   1    -69.4854868 -0.694855E+02  0.117E-01    3.19       0.0  T
   2    -69.4854892 -0.243538E-05  0.691E-02    3.19       1.0  T
   3    -69.4854894 -0.164908E-06  0.481E-03    3.19       3.1  T
   4    -69.4854899 -0.521381E-06  0.280E-03    3.19       5.3  T
   5    -69.4854900 -0.154110E-06  0.154E-03    3.19       9.7  T
   6    -69.4854901 -0.149330E-07  0.435E-04    3.19      34.2  T
   7    -69.4854901 -0.287154E-08  0.109E-04    3.19     136.5  T
     SCC iter.                  ...        0 min,  0.016 sec
     gradient                   ...        0 min,  0.008 sec
 * total energy  :   -68.7180967 Eh     change       -0.1210784E-03 Eh
   gradient norm :     0.0089077 Eh/α   predicted    -0.8824805E-04 ( -27.11%)
   displ. norm   :     0.2590061 α      lambda       -0.1937136E-03
   maximum displ.:     0.1457352 α      in ANC's #8, #5, #9, ...

........................................................................
.............................. CYCLE   27 ..............................
........................................................................

 iter      E             dE          RMSdq      gap      omega  full diag
   1    -69.4849508 -0.694850E+02  0.938E-02    3.18       0.0  T
   2    -69.4849520 -0.123352E-05  0.551E-02    3.18       1.0  T
   3    -69.4849523 -0.231596E-06  0.355E-03    3.17       4.2  T
   4    -69.4849525 -0.238490E-06  0.210E-03    3.17       7.1  T
   5    -69.4849526 -0.634763E-07  0.117E-03    3.17      12.7  T
   6    -69.4849526 -0.141474E-07  0.353E-04    3.17      42.3  T
   7    -69.4849526 -0.109424E-08  0.900E-05    3.17     165.6  T
     SCC iter.                  ...        0 min,  0.017 sec
     gradient                   ...        0 min,  0.010 sec
 * total energy  :   -68.7182406 Eh     change       -0.1438797E-03 Eh
   gradient norm :     0.0069919 Eh/α   predicted    -0.1033553E-03 ( -28.17%)
   displ. norm   :     0.2769280 α      lambda       -0.2002027E-03
   maximum displ.:     0.1530599 α      in ANC's #8, #5, #4, ...

........................................................................
.............................. CYCLE   28 ..............................
........................................................................

 iter      E             dE          RMSdq      gap      omega  full diag
   1    -69.4861127 -0.694861E+02  0.916E-02    3.16       0.0  T
   2    -69.4861140 -0.123850E-05  0.539E-02    3.16       1.0  T
   3    -69.4861142 -0.252426E-06  0.355E-03    3.16       4.2  T
   4    -69.4861145 -0.244690E-06  0.199E-03    3.16       7.5  T
   5    -69.4861145 -0.273587E-07  0.125E-03    3.16      11.9  T
   6    -69.4861145 -0.243997E-07  0.287E-04    3.16      52.0  T
   7    -69.4861145 -0.632127E-09  0.857E-05    3.16     174.0  T
     SCC iter.                  ...        0 min,  0.022 sec
     gradient                   ...        0 min,  0.006 sec
 * total energy  :   -68.7183780 Eh     change       -0.1374389E-03 Eh
   gradient norm :     0.0062541 Eh/α   predicted    -0.1077787E-03 ( -21.58%)
   displ. norm   :     0.2950668 α      lambda       -0.1538300E-03
   maximum displ.:     0.1683648 α      in ANC's #5, #8, #4, ...

........................................................................
.............................. CYCLE   29 ..............................
........................................................................

 iter      E             dE          RMSdq      gap      omega  full diag
   1    -69.4868930 -0.694869E+02  0.100E-01    3.14       0.0  T
   2    -69.4868943 -0.131733E-05  0.589E-02    3.14       1.0  T
   3    -69.4868945 -0.172481E-06  0.405E-03    3.14       3.7  T
   4    -69.4868949 -0.403464E-06  0.219E-03    3.14       6.8  T
   5    -69.4868950 -0.520051E-07  0.137E-03    3.14      10.9  T
   6    -69.4868950 -0.231305E-07  0.244E-04    3.14      61.1  T
   7    -69.4868950 -0.667498E-09  0.968E-05    3.14     154.0  T
     SCC iter.                  ...        0 min,  0.019 sec
     gradient                   ...        0 min,  0.004 sec
 * total energy  :   -68.7184788 Eh     change       -0.1007467E-03 Eh
   gradient norm :     0.0065370 Eh/α   predicted    -0.8361188E-04 ( -17.01%)
   displ. norm   :     0.2428553 α      lambda       -0.1396272E-03
   maximum displ.:     0.1441165 α      in ANC's #5, #8, #4, ...

........................................................................
.............................. CYCLE   30 ..............................
........................................................................

 iter      E             dE          RMSdq      gap      omega  full diag
   1    -69.4892778 -0.694893E+02  0.778E-02    3.14       0.0  T
   2    -69.4892789 -0.107666E-05  0.458E-02    3.14       1.0  T
   3    -69.4892788  0.554103E-07  0.375E-03    3.14       4.0  T
   4    -69.4892792 -0.408745E-06  0.162E-03    3.14       9.2  T
   5    -69.4892792 -0.175136E-07  0.109E-03    3.14      13.6  T
   6    -69.4892793 -0.167680E-07  0.304E-04    3.14      49.1  T
   7    -69.4892793 -0.113883E-08  0.867E-05    3.14     171.9  T
     SCC iter.                  ...        0 min,  0.018 sec
     gradient                   ...        0 min,  0.004 sec
 * total energy  :   -68.7185709 Eh     change       -0.9214564E-04 Eh
   gradient norm :     0.0047322 Eh/α   predicted    -0.7393202E-04 ( -19.77%)
   displ. norm   :     0.4201150 α      lambda       -0.1436488E-03
   maximum displ.:     0.2492100 α      in ANC's #5, #8, #9, ...

........................................................................
.............................. CYCLE   31 ..............................
........................................................................

 iter      E             dE          RMSdq      gap      omega  full diag
   1    -69.4852556 -0.694853E+02  0.157E-01    3.10       0.0  T
   2    -69.4852635 -0.785166E-05  0.928E-02    3.10       1.0  T
   3    -69.4852565  0.699157E-05  0.148E-02    3.11       1.0  T
   4    -69.4852647 -0.824845E-05  0.526E-03    3.10       2.8  T
   5    -69.4852656 -0.820068E-06  0.207E-03    3.10       7.2  T
   6    -69.4852656 -0.108245E-07  0.878E-04    3.10      17.0  T
   7    -69.4852656 -0.749918E-08  0.191E-04    3.10      78.2  T
     SCC iter.                  ...        0 min,  0.016 sec
     gradient                   ...        0 min,  0.004 sec
 * total energy  :   -68.7186030 Eh     change       -0.3202201E-04 Eh
   gradient norm :     0.0108097 Eh/α   predicted    -0.8450341E-04 ( 163.89%)
   displ. norm   :     0.1199095 α      lambda       -0.2090043E-03
   maximum displ.:     0.0640288 α      in ANC's #10, #4, #5, ...

........................................................................
.............................. CYCLE   32 ..............................
........................................................................

 iter      E             dE          RMSdq      gap      omega  full diag
   1    -69.4904999 -0.694905E+02  0.475E-02    3.13       0.0  T
   2    -69.4905047 -0.480223E-05  0.284E-02    3.13       1.0  T
   3    -69.4905015  0.317543E-05  0.120E-02    3.14       1.2  T
   4    -69.4905054 -0.389127E-05  0.379E-03    3.14       3.9  T
   5    -69.4905059 -0.505996E-06  0.792E-04    3.14      18.8  T
   6    -69.4905059 -0.305009E-08  0.453E-04    3.14      32.9  T
     SCC iter.                  ...        0 min,  0.017 sec
     gradient                   ...        0 min,  0.005 sec
 * total energy  :   -68.7186964 Eh     change       -0.9343990E-04 Eh
   gradient norm :     0.0041241 Eh/α   predicted    -0.1060048E-03 (  13.45%)
   displ. norm   :     0.1413722 α      lambda       -0.7104376E-04
   maximum displ.:     0.0855044 α      in ANC's #5, #8, #2, ...

........................................................................
.............................. CYCLE   33 ..............................
........................................................................

 iter      E             dE          RMSdq      gap      omega  full diag
   1    -69.4897466 -0.694897E+02  0.520E-02    3.14       0.0  T
   2    -69.4897479 -0.129771E-05  0.305E-02    3.14       1.0  T
   3    -69.4897476  0.284831E-06  0.384E-03    3.13       3.9  T
   4    -69.4897480 -0.357192E-06  0.178E-03    3.13       8.4  T
   5    -69.4897481 -0.103016E-06  0.630E-04    3.13      23.7  T
   6    -69.4897481 -0.313817E-08  0.335E-04    3.13      44.5  T
     SCC iter.                  ...        0 min,  0.016 sec
     gradient                   ...        0 min,  0.004 sec
 * total energy  :   -68.7187412 Eh     change       -0.4479738E-04 Eh
   gradient norm :     0.0044096 Eh/α   predicted    -0.3623579E-04 ( -19.11%)
   displ. norm   :     0.2405411 α      lambda       -0.7610719E-04
   maximum displ.:     0.1488533 α      in ANC's #5, #8, #10, ...

........................................................................
.............................. CYCLE   34 ..............................
........................................................................

 iter      E             dE          RMSdq      gap      omega  full diag
   1    -69.4887566 -0.694888E+02  0.881E-02    3.11       0.0  T
   2    -69.4887579 -0.130629E-05  0.519E-02    3.11       1.0  T
   3    -69.4887565  0.135323E-05  0.651E-03    3.11       2.3  T
   4    -69.4887582 -0.168214E-05  0.210E-03    3.11       7.1  T
   5    -69.4887583 -0.108971E-06  0.937E-04    3.11      15.9  T
   6    -69.4887583 -0.325062E-08  0.375E-04    3.11      39.8  T
     SCC iter.                  ...        0 min,  0.033 sec
     gradient                   ...        0 min,  0.004 sec
 * total energy  :   -68.7187851 Eh     change       -0.4387612E-04 Eh
   gradient norm :     0.0036738 Eh/α   predicted    -0.4025841E-04 (  -8.25%)
   displ. norm   :     0.2072282 α      lambda       -0.7000066E-04
   maximum displ.:     0.1161506 α      in ANC's #5, #2, #10, ...

........................................................................
.............................. CYCLE   35 ..............................
........................................................................

 iter      E             dE          RMSdq      gap      omega  full diag
   1    -69.4882194 -0.694882E+02  0.830E-02    3.12       0.0  T
   2    -69.4882223 -0.294641E-05  0.488E-02    3.12       1.0  T
   3    -69.4882219  0.405466E-06  0.473E-03    3.12       3.1  T
   4    -69.4882224 -0.549110E-06  0.192E-03    3.12       7.8  T
   5    -69.4882226 -0.123777E-06  0.773E-04    3.12      19.3  T
   6    -69.4882226 -0.781245E-08  0.407E-04    3.12      36.7  T
     SCC iter.                  ...        0 min,  0.019 sec
     gradient                   ...        0 min,  0.004 sec
 * total energy  :   -68.7188231 Eh     change       -0.3802603E-04 Eh
   gradient norm :     0.0038641 Eh/α   predicted    -0.3650333E-04 (  -4.00%)
   displ. norm   :     0.1228719 α      lambda       -0.5775765E-04
   maximum displ.:     0.0534004 α      in ANC's #10, #3, #12, ...

........................................................................
.............................. CYCLE   36 ..............................
........................................................................

 iter      E             dE          RMSdq      gap      omega  full diag
   1    -69.4904196 -0.694904E+02  0.420E-02    3.12       0.0  T
   2    -69.4904202 -0.675916E-06  0.248E-02    3.12       1.0  T
   3    -69.4904194  0.793064E-06  0.487E-03    3.12       3.1  T
   4    -69.4904203 -0.892250E-06  0.144E-03    3.12      10.4  T
   5    -69.4904204 -0.666194E-07  0.423E-04    3.12      35.3  T
   6    -69.4904204 -0.140290E-08  0.204E-04    3.12      73.1  T
     SCC iter.                  ...        0 min,  0.017 sec
     gradient                   ...        0 min,  0.004 sec
 * total energy  :   -68.7188606 Eh     change       -0.3747519E-04 Eh
   gradient norm :     0.0036144 Eh/α   predicted    -0.2931748E-04 ( -21.77%)
   displ. norm   :     0.2597133 α      lambda       -0.6135944E-04
   maximum displ.:     0.1504079 α      in ANC's #5, #2, #10, ...

........................................................................
.............................. CYCLE   37 ..............................
........................................................................

 iter      E             dE          RMSdq      gap      omega  full diag
   1    -69.4895772 -0.694896E+02  0.102E-01    3.11       0.0  T
   2    -69.4895779 -0.636609E-06  0.602E-02    3.11       1.0  T
   3    -69.4895763  0.151665E-05  0.668E-03    3.11       2.2  T
   4    -69.4895782 -0.184272E-05  0.133E-03    3.11      11.2  T
   5    -69.4895782 -0.251326E-07  0.695E-04    3.11      21.4  T
   6    -69.4895782 -0.157135E-08  0.187E-04    3.11      79.6  T
     SCC iter.                  ...        0 min,  0.027 sec
     gradient                   ...        0 min,  0.004 sec
 * total energy  :   -68.7188994 Eh     change       -0.3878194E-04 Eh
   gradient norm :     0.0037434 Eh/α   predicted    -0.3275021E-04 ( -15.55%)
   displ. norm   :     0.1522496 α      lambda       -0.4750423E-04
   maximum displ.:     0.0708536 α      in ANC's #3, #2, #5, ...

........................................................................
.............................. CYCLE   38 ..............................
........................................................................

 iter      E             dE          RMSdq      gap      omega  full diag
   1    -69.4902374 -0.694902E+02  0.533E-02    3.11       0.0  T
   2    -69.4902379 -0.520292E-06  0.315E-02    3.11       1.0  T
   3    -69.4902375  0.424359E-06  0.376E-03    3.11       4.0  T
   4    -69.4902380 -0.497298E-06  0.124E-03    3.11      12.0  T
   5    -69.4902380 -0.500011E-07  0.470E-04    3.11      31.7  T
   6    -69.4902381 -0.215236E-08  0.188E-04    3.11      79.2  T
     SCC iter.                  ...        0 min,  0.015 sec
     gradient                   ...        0 min,  0.004 sec
 * total energy  :   -68.7189288 Eh     change       -0.2945128E-04 Eh
   gradient norm :     0.0023181 Eh/α   predicted    -0.2430303E-04 ( -17.48%)
   displ. norm   :     0.1259609 α      lambda       -0.2752417E-04
   maximum displ.:     0.0619667 α      in ANC's #5, #3, #2, ...

........................................................................
.............................. CYCLE   39 ..............................
........................................................................

 iter      E             dE          RMSdq      gap      omega  full diag
   1    -69.4895751 -0.694896E+02  0.500E-02    3.10       0.0  T
   2    -69.4895756 -0.432607E-06  0.294E-02    3.10       1.0  T
   3    -69.4895750  0.551150E-06  0.392E-03    3.10       3.8  T
   4    -69.4895756 -0.607595E-06  0.120E-03    3.10      12.4  T
   5    -69.4895757 -0.519818E-07  0.354E-04    3.10      42.1  T
   6    -69.4895757 -0.106789E-08  0.171E-04    3.10      87.2  T
     SCC iter.                  ...        0 min,  0.031 sec
     gradient                   ...        0 min,  0.006 sec
 * total energy  :   -68.7189479 Eh     change       -0.1908808E-04 Eh
   gradient norm :     0.0019384 Eh/α   predicted    -0.1398384E-04 ( -26.74%)
   displ. norm   :     0.1625194 α      lambda       -0.2838325E-04
   maximum displ.:     0.0790913 α      in ANC's #3, #2, #5, ...

........................................................................
.............................. CYCLE   40 ..............................
........................................................................

 iter      E             dE          RMSdq      gap      omega  full diag
   1    -69.4892568 -0.694893E+02  0.566E-02    3.09       0.0  T
   2    -69.4892575 -0.776693E-06  0.334E-02    3.09       1.0  T
   3    -69.4892566  0.971140E-06  0.528E-03    3.09       2.8  T
   4    -69.4892577 -0.109860E-05  0.160E-03    3.09       9.3  T
   5    -69.4892577 -0.856197E-07  0.517E-04    3.09      28.8  T
   6    -69.4892578 -0.198422E-08  0.242E-04    3.09      61.7  T
     SCC iter.                  ...        0 min,  0.015 sec
     gradient                   ...        0 min,  0.005 sec
 * total energy  :   -68.7189670 Eh     change       -0.1912606E-04 Eh
   gradient norm :     0.0030935 Eh/α   predicted    -0.1436273E-04 ( -24.90%)
   displ. norm   :     0.0448473 α      lambda       -0.1704502E-04
   maximum displ.:     0.0183368 α      in ANC's #2, #7, #3, ...

........................................................................
.............................. CYCLE   41 ..............................
........................................................................

 iter      E             dE          RMSdq      gap      omega  full diag
   1    -69.4893300 -0.694893E+02  0.150E-02    3.09       0.0  T
   2    -69.4893301 -0.653791E-07  0.890E-03    3.09       1.7  T
   3    -69.4893300  0.719278E-07  0.151E-03    3.09       9.9  T
   4    -69.4893301 -0.830853E-07  0.499E-04    3.09      29.8  T
   5    -69.4893301 -0.719373E-08  0.185E-04    3.09      80.6  T
     SCC iter.                  ...        0 min,  0.012 sec
     gradient                   ...        0 min,  0.006 sec
 * total energy  :   -68.7189792 Eh     change       -0.1216231E-04 Eh
   gradient norm :     0.0021916 Eh/α   predicted    -0.8542962E-05 ( -29.76%)
   displ. norm   :     0.0912684 α      lambda       -0.2590834E-04
   maximum displ.:     0.0455916 α      in ANC's #5, #2, #12, ...

........................................................................
.............................. CYCLE   42 ..............................
........................................................................

 iter      E             dE          RMSdq      gap      omega  full diag
   1    -69.4891539 -0.694892E+02  0.299E-02    3.09       0.0  T
   2    -69.4891541 -0.218435E-06  0.177E-02    3.09       1.0  T
   3    -69.4891539  0.241415E-06  0.271E-03    3.09       5.5  T
   4    -69.4891542 -0.278331E-06  0.886E-04    3.09      16.8  T
   5    -69.4891542 -0.229741E-07  0.328E-04    3.09      45.5  T
     SCC iter.                  ...        0 min,  0.012 sec
     gradient                   ...        0 min,  0.006 sec
 * total energy  :   -68.7189982 Eh     change       -0.1901076E-04 Eh
   gradient norm :     0.0018421 Eh/α   predicted    -0.1306444E-04 ( -31.28%)
   displ. norm   :     0.2163524 α      lambda       -0.3100265E-04
   maximum displ.:     0.0927885 α      in ANC's #12, #5, #2, ...
 * RMSD in coord.:     0.5028476 α      energy gain  -0.1719142E-02 Eh

generating ANC from exact Hessian ...
Using Lindh-Hessian (1995)
 Shifting diagonal of input Hessian by   9.890443199586851E-003
 Lowest  eigenvalues of input Hessian
    0.000000    0.000000    0.000000    0.000000    0.000000    0.000000
    0.010000    0.010167    0.010210    0.010484    0.010684    0.011005
    0.011462    0.012223    0.012369    0.013211    0.014070    0.014316
 Highest eigenvalues
    1.756755    1.819557    1.956359    2.026953    2.395983    2.401425
 

........................................................................
.............................. CYCLE   43 ..............................
........................................................................

 iter      E             dE          RMSdq      gap      omega  full diag
   1    -69.4897156 -0.694897E+02  0.541E-02    3.10       0.0  T
   2    -69.4897163 -0.617866E-06  0.321E-02    3.10       1.0  T
   3    -69.4897159  0.342030E-06  0.371E-03    3.10       4.0  T
   4    -69.4897164 -0.460063E-06  0.158E-03    3.10       9.4  T
   5    -69.4897164 -0.593046E-07  0.694E-04    3.10      21.5  T
   6    -69.4897164 -0.395262E-08  0.236E-04    3.10      63.3  T
     SCC iter.                  ...        0 min,  0.014 sec
     gradient                   ...        0 min,  0.005 sec
 * total energy  :   -68.7190216 Eh     change       -0.2343576E-04 Eh
   gradient norm :     0.0031014 Eh/α   predicted     0.0000000E+00 (-100.00%)
   displ. norm   :     0.0217510 α      lambda       -0.1859100E-04
   maximum displ.:     0.0068110 α      in ANC's #5, #2, #18, ...

........................................................................
.............................. CYCLE   44 ..............................
........................................................................

 iter      E             dE          RMSdq      gap      omega  full diag
   1    -69.4898398 -0.694898E+02  0.114E-02    3.10       0.0  T
   2    -69.4898399 -0.561163E-07  0.677E-03    3.10       2.2  T
   3    -69.4898399  0.848871E-08  0.832E-04    3.10      17.9  T
   4    -69.4898399 -0.196458E-07  0.288E-04    3.10      51.7  T
     SCC iter.                  ...        0 min,  0.010 sec
     gradient                   ...        0 min,  0.005 sec
 * total energy  :   -68.7190350 Eh     change       -0.1336093E-04 Eh
   gradient norm :     0.0014088 Eh/α   predicted    -0.1025331E-04 ( -23.26%)
   displ. norm   :     0.0543991 α      lambda       -0.1564851E-04
   maximum displ.:     0.0213548 α      in ANC's #2, #5, #3, ...

........................................................................
.............................. CYCLE   45 ..............................
........................................................................

 iter      E             dE          RMSdq      gap      omega  full diag
   1    -69.4899767 -0.694900E+02  0.209E-02    3.10       0.0  T
   2    -69.4899769 -0.207061E-06  0.124E-02    3.10       1.2  T
   3    -69.4899768  0.951905E-07  0.199E-03    3.10       7.5  T
   4    -69.4899770 -0.129353E-06  0.826E-04    3.10      18.1  T
   5    -69.4899770 -0.169414E-07  0.358E-04    3.10      41.7  T
     SCC iter.                  ...        0 min,  0.012 sec
     gradient                   ...        0 min,  0.005 sec
 * total energy  :   -68.7190411 Eh     change       -0.6089410E-05 Eh
   gradient norm :     0.0021775 Eh/α   predicted    -0.7865127E-05 (  29.16%)
   displ. norm   :     0.0163627 α      lambda       -0.8335949E-05
   maximum displ.:     0.0074199 α      in ANC's #2, #5, #3, ...

........................................................................
.............................. CYCLE   46 ..............................
........................................................................

 iter      E             dE          RMSdq      gap      omega  full diag
   1    -69.4899222 -0.694899E+02  0.745E-03    3.10       0.0  T
   2    -69.4899222 -0.987801E-08  0.443E-03    3.10       3.4  T
   3    -69.4899222 -0.650644E-09  0.359E-04    3.10      41.6  T
   4    -69.4899222 -0.235002E-08  0.172E-04    3.10      86.5  T
     SCC iter.                  ...        0 min,  0.009 sec
     gradient                   ...        0 min,  0.005 sec
 * total energy  :   -68.7190476 Eh     change       -0.6513367E-05 Eh
   gradient norm :     0.0014069 Eh/α   predicted    -0.4197075E-05 ( -35.56%)
   displ. norm   :     0.0644119 α      lambda       -0.1124730E-04
   maximum displ.:     0.0307393 α      in ANC's #2, #5, #3, ...

........................................................................
.............................. CYCLE   47 ..............................
........................................................................

 iter      E             dE          RMSdq      gap      omega  full diag
   1    -69.4897593 -0.694898E+02  0.248E-02    3.10       0.0  T
   2    -69.4897594 -0.960412E-07  0.146E-02    3.10       1.0  T
   3    -69.4897594 -0.121968E-07  0.105E-03    3.10      14.2  T
   4    -69.4897594 -0.205913E-07  0.506E-04    3.10      29.4  T
   5    -69.4897594 -0.104114E-08  0.337E-04    3.10      44.2  T
     SCC iter.                  ...        0 min,  0.022 sec
     gradient                   ...        0 min,  0.006 sec
 * total energy  :   -68.7190560 Eh     change       -0.8354814E-05 Eh
   gradient norm :     0.0012416 Eh/α   predicted    -0.5638320E-05 ( -32.51%)
   displ. norm   :     0.0511569 α      lambda       -0.5445055E-05
   maximum displ.:     0.0257668 α      in ANC's #2, #5, #3, ...

........................................................................
.............................. CYCLE   48 ..............................
........................................................................

 iter      E             dE          RMSdq      gap      omega  full diag
   1    -69.4897557 -0.694898E+02  0.193E-02    3.10       0.0  T
   2    -69.4897557 -0.378796E-07  0.114E-02    3.10       1.3  T
   3    -69.4897557  0.310352E-08  0.888E-04    3.10      16.8  T
   4    -69.4897557 -0.221714E-07  0.415E-04    3.10      35.9  T
     SCC iter.                  ...        0 min,  0.016 sec
     gradient                   ...        0 min,  0.006 sec
 * total energy  :   -68.7190625 Eh     change       -0.6589506E-05 Eh
   gradient norm :     0.0010908 Eh/α   predicted    -0.2727603E-05 ( -58.61%)
   displ. norm   :     0.1400907 α      lambda       -0.1380589E-04
   maximum displ.:     0.0702638 α      in ANC's #2, #5, #3, ...

........................................................................
.............................. CYCLE   49 ..............................
........................................................................

 iter      E             dE          RMSdq      gap      omega  full diag
   1    -69.4897158 -0.694897E+02  0.528E-02    3.09       0.0  T
   2    -69.4897160 -0.280184E-06  0.310E-02    3.09       1.0  T
   3    -69.4897160  0.652801E-07  0.259E-03    3.09       5.8  T
   4    -69.4897162 -0.203790E-06  0.108E-03    3.09      13.8  T
   5    -69.4897162 -0.134710E-07  0.533E-04    3.09      28.0  T
   6    -69.4897162 -0.129683E-08  0.113E-04    3.09     132.3  T
     SCC iter.                  ...        0 min,  0.019 sec
     gradient                   ...        0 min,  0.010 sec
 * total energy  :   -68.7190766 Eh     change       -0.1408281E-04 Eh
   gradient norm :     0.0009505 Eh/α   predicted    -0.6963919E-05 ( -50.55%)
   displ. norm   :     0.1398294 α      lambda       -0.9448830E-05
   maximum displ.:     0.0732242 α      in ANC's #2, #5, #3, ...

........................................................................
.............................. CYCLE   50 ..............................
........................................................................

 iter      E             dE          RMSdq      gap      omega  full diag
   1    -69.4896962 -0.694897E+02  0.524E-02    3.09       0.0  T
   2    -69.4896964 -0.219243E-06  0.308E-02    3.09       1.0  T
   3    -69.4896964  0.579036E-07  0.232E-03    3.09       6.4  T
   4    -69.4896966 -0.175797E-06  0.952E-04    3.09      15.7  T
   5    -69.4896966 -0.871792E-08  0.486E-04    3.09      30.7  T
     SCC iter.                  ...        0 min,  0.020 sec
     gradient                   ...        0 min,  0.012 sec
 * total energy  :   -68.7190868 Eh     change       -0.1018010E-04 Eh
   gradient norm :     0.0011453 Eh/α   predicted    -0.4767311E-05 ( -53.17%)
   displ. norm   :     0.1643236 α      lambda       -0.1173293E-04
   maximum displ.:     0.0885510 α      in ANC's #2, #3, #5, ...

........................................................................
.............................. CYCLE   51 ..............................
........................................................................

 iter      E             dE          RMSdq      gap      omega  full diag
   1    -69.4897012 -0.694897E+02  0.633E-02    3.09       0.0  T
   2    -69.4897015 -0.335147E-06  0.373E-02    3.09       1.0  T
   3    -69.4897013  0.198544E-06  0.309E-03    3.09       4.8  T
   4    -69.4897016 -0.342053E-06  0.115E-03    3.09      13.0  T
   5    -69.4897017 -0.210105E-07  0.623E-04    3.09      23.9  T
   6    -69.4897017 -0.227045E-08  0.153E-04    3.09      97.7  T
     SCC iter.                  ...        0 min,  0.021 sec
     gradient                   ...        0 min,  0.004 sec
 * total energy  :   -68.7191009 Eh     change       -0.1410254E-04 Eh
   gradient norm :     0.0008840 Eh/α   predicted    -0.5938380E-05 ( -57.89%)
   displ. norm   :     0.2229697 α      lambda       -0.1591924E-04
   maximum displ.:     0.1225707 α      in ANC's #2, #3, #5, ...

........................................................................
.............................. CYCLE   52 ..............................
........................................................................

 iter      E             dE          RMSdq      gap      omega  full diag
   1    -69.4897096 -0.694897E+02  0.851E-02    3.09       0.0  T
   2    -69.4897102 -0.563385E-06  0.501E-02    3.09       1.0  T
   3    -69.4897099  0.257242E-06  0.365E-03    3.09       4.1  T
   4    -69.4897104 -0.466378E-06  0.142E-03    3.09      10.5  T
   5    -69.4897104 -0.387716E-07  0.750E-04    3.09      19.9  T
   6    -69.4897104 -0.324538E-08  0.211E-04    3.09      70.7  T
     SCC iter.                  ...        0 min,  0.016 sec
     gradient                   ...        0 min,  0.006 sec
 * total energy  :   -68.7191208 Eh     change       -0.1986282E-04 Eh
   gradient norm :     0.0010066 Eh/α   predicted    -0.8136404E-05 ( -59.04%)
   displ. norm   :     0.2988289 α      lambda       -0.1919510E-04
   maximum displ.:     0.1675652 α      in ANC's #2, #3, #5, ...

........................................................................
.............................. CYCLE   53 ..............................
........................................................................

 iter      E             dE          RMSdq      gap      omega  full diag
   1    -69.4892225 -0.694892E+02  0.112E-01    3.08       0.0  T
   2    -69.4892233 -0.712707E-06  0.656E-02    3.08       1.0  T
   3    -69.4892231  0.123388E-06  0.377E-03    3.08       3.9  T
   4    -69.4892236 -0.446432E-06  0.156E-03    3.08       9.5  T
   5    -69.4892236 -0.348402E-07  0.825E-04    3.08      18.1  T
   6    -69.4892236 -0.357838E-08  0.187E-04    3.08      79.8  T
     SCC iter.                  ...        0 min,  0.014 sec
     gradient                   ...        0 min,  0.005 sec
 * total energy  :   -68.7191430 Eh     change       -0.2225050E-04 Eh
   gradient norm :     0.0013257 Eh/α   predicted    -0.9979764E-05 ( -55.15%)
   displ. norm   :     0.2666430 α      lambda       -0.1800886E-04
   maximum displ.:     0.1544557 α      in ANC's #2, #3, #5, ...

........................................................................
.............................. CYCLE   54 ..............................
........................................................................

 iter      E             dE          RMSdq      gap      omega  full diag
   1    -69.4895521 -0.694896E+02  0.958E-02    3.08       0.0  T
   2    -69.4895525 -0.468185E-06  0.563E-02    3.08       1.0  T
   3    -69.4895525  0.328720E-07  0.279E-03    3.08       5.3  T
   4    -69.4895527 -0.245864E-06  0.125E-03    3.08      12.0  T
   5    -69.4895528 -0.201674E-07  0.676E-04    3.08      22.0  T
   6    -69.4895528 -0.377939E-08  0.147E-04    3.08     101.7  T
     SCC iter.                  ...        0 min,  0.017 sec
     gradient                   ...        0 min,  0.007 sec
 * total energy  :   -68.7191631 Eh     change       -0.2005885E-04 Eh
   gradient norm :     0.0014023 Eh/α   predicted    -0.9289382E-05 ( -53.69%)
   displ. norm   :     0.2566272 α      lambda       -0.1602856E-04
   maximum displ.:     0.1525707 α      in ANC's #2, #3, #5, ...

........................................................................
.............................. CYCLE   55 ..............................
........................................................................

 iter      E             dE          RMSdq      gap      omega  full diag
   1    -69.4894574 -0.694895E+02  0.888E-02    3.08       0.0  T
   2    -69.4894578 -0.409212E-06  0.522E-02    3.07       1.0  T
   3    -69.4894577  0.552515E-07  0.289E-03    3.08       5.2  T
   4    -69.4894580 -0.247331E-06  0.114E-03    3.07      13.0  T
   5    -69.4894580 -0.152096E-07  0.641E-04    3.07      23.3  T
   6    -69.4894580 -0.431548E-08  0.143E-04    3.07     104.2  T
     SCC iter.                  ...        0 min,  0.023 sec
     gradient                   ...        0 min,  0.007 sec
 * total energy  :   -68.7191833 Eh     change       -0.2020202E-04 Eh
   gradient norm :     0.0009973 Eh/α   predicted    -0.8251698E-05 ( -59.15%)
   displ. norm   :     0.2600523 α      lambda       -0.1960356E-04
   maximum displ.:     0.1582798 α      in ANC's #2, #3, #4, ...

........................................................................
.............................. CYCLE   56 ..............................
........................................................................

 iter      E             dE          RMSdq      gap      omega  full diag
   1    -69.4902440 -0.694902E+02  0.831E-02    3.07       0.0  T
   2    -69.4902445 -0.498219E-06  0.488E-02    3.07       1.0  T
   3    -69.4902443  0.262489E-06  0.353E-03    3.08       4.2  T
   4    -69.4902447 -0.419123E-06  0.134E-03    3.07      11.1  T
   5    -69.4902447 -0.405896E-07  0.578E-04    3.07      25.8  T
   6    -69.4902447 -0.916202E-09  0.169E-04    3.07      88.3  T
     SCC iter.                  ...        0 min,  0.015 sec
     gradient                   ...        0 min,  0.006 sec
 * total energy  :   -68.7192070 Eh     change       -0.2375409E-04 Eh
   gradient norm :     0.0013741 Eh/α   predicted    -0.1009699E-04 ( -57.49%)
   displ. norm   :     0.4747818 α      lambda       -0.3113574E-04
   maximum displ.:     0.2870095 α      in ANC's #2, #3, #4, ...

........................................................................
.............................. CYCLE   57 ..............................
........................................................................

 iter      E             dE          RMSdq      gap      omega  full diag
   1    -69.4871957 -0.694872E+02  0.158E-01    3.06       0.0  T
   2    -69.4871973 -0.162480E-05  0.931E-02    3.06       1.0  T
   3    -69.4871962  0.112696E-05  0.711E-03    3.07       2.1  T
   4    -69.4871980 -0.182863E-05  0.234E-03    3.06       6.4  T
   5    -69.4871981 -0.843040E-07  0.127E-03    3.06      11.8  T
   6    -69.4871981 -0.113077E-07  0.321E-04    3.06      46.4  T
   7    -69.4871981 -0.683627E-09  0.106E-04    3.06     140.1  T
     SCC iter.                  ...        0 min,  0.017 sec
     gradient                   ...        0 min,  0.005 sec
 * total energy  :   -68.7192255 Eh     change       -0.1844111E-04 Eh
   gradient norm :     0.0043948 Eh/α   predicted    -0.1712660E-04 (  -7.13%)
   displ. norm   :     0.0855878 α      lambda       -0.2642197E-04
   maximum displ.:     0.0528806 α      in ANC's #2, #3, #4, ...

........................................................................
.............................. CYCLE   58 ..............................
........................................................................

 iter      E             dE          RMSdq      gap      omega  full diag
   1    -69.4890052 -0.694890E+02  0.188E-02    3.07       0.0  T
   2    -69.4890053 -0.102162E-06  0.111E-02    3.07       1.3  T
   3    -69.4890047  0.570505E-06  0.393E-03    3.07       3.8  T
   4    -69.4890053 -0.637902E-06  0.523E-04    3.07      28.5  T
   5    -69.4890053 -0.646138E-08  0.226E-04    3.07      66.1  T
     SCC iter.                  ...        0 min,  0.012 sec
     gradient                   ...        0 min,  0.005 sec
 * total energy  :   -68.7192439 Eh     change       -0.1845933E-04 Eh
   gradient norm :     0.0024941 Eh/α   predicted    -0.1331220E-04 ( -27.88%)
   displ. norm   :     0.2058039 α      lambda       -0.2063079E-04
   maximum displ.:     0.1281470 α      in ANC's #2, #3, #4, ...

........................................................................
.............................. CYCLE   59 ..............................
[...]
H27-C3-C2-O13=317.78          H27-C3-C2-H25= 78.22          C5-O4-C3-C2=199.55            C5-O4-C3-H26=319.62           
C5-O4-C3-H27= 79.54           C6-C5-O4-C3=289.05            H28-C5-O4-C3= 51.76           H29-C5-O4-C3=169.78           
C7-C6-C5-O4=302.42            C7-C6-C5-H28=178.62           C7-C6-C5-H29= 59.85           O8-C6-C5-O4=183.45            
O8-C6-C5-H28= 59.64           O8-C6-C5-H29=300.88           H30-C6-C5-O4= 65.63           H30-C6-C5-H28=301.83          
H30-C6-C5-H29=183.06          H31-C7-C6-C5=294.91           H31-C7-C6-O8= 54.35           H31-C7-C6-H30=172.81          
H32-C7-C6-C5= 54.21           H32-C7-C6-O8=173.65           H32-C7-C6-H30=292.11          H33-C7-C6-C5=174.71           
H33-C7-C6-O8=294.15           H33-C7-C6-H30= 52.61          C9-O8-C6-C5=279.72            C9-O8-C6-C7=158.49            
C9-O8-C6-H30= 38.17           O10-C9-O8-C6=  0.28           C11-C9-O8-C6=180.47           
           -------------------------------------------------
          |                Final Singlepoint                |
           -------------------------------------------------

          ...................................................
          :                      SETUP                      :
          :.................................................:
          :  # basis functions                 108          :
          :  # atomic orbitals                 108          :
          :  # shells                           66          :
          :  # electrons                       120          :
          :  max. iterations                   250          :
          :  Hamiltonian                  GFN2-xTB          :
          :  restarted?                      false          :
          :  GBSA solvation                  false          :
          :  PC potential                    false          :
          :  electronic temp.          300.0000000     K    :
          :  accuracy                    1.0000000          :
          :  -> integral cutoff          0.2500000E+02      :
          :  -> integral neglect         0.1000000E-07      :
          :  -> SCF convergence          0.1000000E-05 Eh   :
          :  -> wf. convergence          0.1000000E-03 e    :
          :  Broyden damping             0.4000000          :
          :  net charge                          0          :
          :  unpaired electrons                  0          :
          ...................................................

 iter      E             dE          RMSdq      gap      omega  full diag
   1    -69.4898143 -0.694898E+02  0.871E-05    3.05       0.0  T
   2    -69.4898143 -0.212452E-10  0.558E-05    3.05     266.9  T
   3    -69.4898143  0.878231E-11  0.384E-05    3.05     387.9  T

   *** convergence criteria satisfied after 3 iterations ***

         #    Occupation            Energy/Eh            Energy/eV
      -------------------------------------------------------------
         1        2.0000           -0.7432115             -20.2238
       ...           ...                  ...                  ...
        54        2.0000           -0.4403208             -11.9817
        55        2.0000           -0.4373212             -11.9001
        56        2.0000           -0.4346593             -11.8277
        57        2.0000           -0.4159970             -11.3199
        58        2.0000           -0.4150899             -11.2952
        59        2.0000           -0.4055474             -11.0355
        60        2.0000           -0.3923153             -10.6754 (HOMO)
        61                         -0.2801456              -7.6232 (LUMO)
        62                         -0.2761318              -7.5139
        63                         -0.1684809              -4.5846
        64                         -0.1660360              -4.5181
        65                         -0.0312438              -0.8502
       ...                                ...                  ...
       108                          0.7063180              19.2199
      -------------------------------------------------------------
                  HL-Gap            0.1121697 Eh            3.0523 eV
             Fermi-level           -0.3362305 Eh           -9.1493 eV

 SCC (total)                   0 d,  0 h,  0 min,  0.018 sec
 SCC setup                      ...        0 min,  0.001 sec (  6.473%)
 Dispersion                     ...        0 min,  0.000 sec (  1.804%)
 classical contributions        ...        0 min,  0.000 sec (  0.214%)
 integral evaluation            ...        0 min,  0.001 sec (  8.040%)
 iterations                     ...        0 min,  0.009 sec ( 51.555%)
 molecular gradient             ...        0 min,  0.005 sec ( 28.034%)
 printout                       ...        0 min,  0.001 sec (  3.731%)

         :::::::::::::::::::::::::::::::::::::::::::::::::::::
         ::                     SUMMARY                     ::
         :::::::::::::::::::::::::::::::::::::::::::::::::::::
         :: total energy             -68.719393023880 Eh    ::
         :: gradient norm              0.000819296907 Eh/a0 ::
         :: HOMO-LUMO gap              3.052292343371 eV    ::
         ::.................................................::
         :: SCC energy               -69.489710579927 Eh    ::
         :: -> isotropic ES            0.126945958058 Eh    ::
         :: -> anisotropic ES          0.001107850437 Eh    ::
         :: -> anisotropic XC          0.014597239879 Eh    ::
         :: -> dispersion             -0.035545505820 Eh    ::
         :: repulsion energy           0.770317556048 Eh    ::
         :: add. restraining           0.000000000000 Eh    ::
         :: total charge              -0.000000000000 e     ::
         :::::::::::::::::::::::::::::::::::::::::::::::::::::

           -------------------------------------------------
          |                Property Printout                |
           -------------------------------------------------

    * Orbital Energies and Occupations

         #    Occupation            Energy/Eh            Energy/eV
      -------------------------------------------------------------
         1        2.0000           -0.7432115             -20.2238
       ...           ...                  ...                  ...
        48        2.0000           -0.4626061             -12.5882
        49        2.0000           -0.4588340             -12.4855
        50        2.0000           -0.4548817             -12.3780
        51        2.0000           -0.4508831             -12.2692
        52        2.0000           -0.4443402             -12.0911
        53        2.0000           -0.4429676             -12.0538
        54        2.0000           -0.4403208             -11.9817
        55        2.0000           -0.4373212             -11.9001
        56        2.0000           -0.4346593             -11.8277
        57        2.0000           -0.4159970             -11.3199
        58        2.0000           -0.4150899             -11.2952
        59        2.0000           -0.4055474             -11.0355
        60        2.0000           -0.3923153             -10.6754 (HOMO)
        61                         -0.2801456              -7.6232 (LUMO)
        62                         -0.2761318              -7.5139
        63                         -0.1684809              -4.5846
        64                         -0.1660360              -4.5181
        65                         -0.0312438              -0.8502
        66                         -0.0142556              -0.3879
        67                          0.0210825               0.5737
        68                          0.0636390               1.7317
        69                          0.0688224               1.8728
        70                          0.0745359               2.0282
        71                          0.0813425               2.2134
       ...                                ...                  ...
       108                          0.7063180              19.2199
      -------------------------------------------------------------
                  HL-Gap            0.1121697 Eh            3.0523 eV
             Fermi-level           -0.3362305 Eh           -9.1493 eV

     #   Z          covCN         q      C6AA      α(0)
     1   6 C        3.754    -0.118    22.811     6.810
     2   6 C        3.744     0.115    18.768     6.180
     3   6 C        3.696     0.069    19.594     6.332
     4   8 O        1.701    -0.317    19.294     5.930
     5   6 C        3.697     0.074    19.507     6.318
     6   6 C        3.745     0.109    18.865     6.196
     7   6 C        3.753    -0.116    22.784     6.807
     8   8 O        1.705    -0.273    18.530     5.812
     9   6 C        2.721     0.355    20.970     7.497
    10   8 O        0.856    -0.416    22.010     6.290
    11   6 C        2.888    -0.058    29.446     8.896
    12   6 C        2.842    -0.059    29.465     8.896
    13   8 O        1.701    -0.322    19.380     5.944
    14   6 C        3.696     0.080    19.417     6.303
    15   6 C        3.747     0.116    18.749     6.176
    16   6 C        3.754    -0.120    22.865     6.818
    17   8 O        1.704    -0.268    18.448     5.799
    18   6 C        2.718     0.355    20.974     7.497
    19   8 O        0.857    -0.416    22.013     6.290
    20   6 C        2.887    -0.057    29.423     8.893
    21   6 C        2.838    -0.062    29.544     8.908
    22   1 H        0.925     0.054     2.275     2.359
    23   1 H        0.925     0.059     2.213     2.326
    24   1 H        0.925     0.058     2.227     2.334
    25   1 H        0.923     0.033     2.540     2.492
    26   1 H        0.924     0.040     2.449     2.448
    27   1 H        0.923     0.032     2.557     2.501
    28   1 H        0.923     0.038     2.475     2.460
    29   1 H        0.924     0.058     2.219     2.329
    30   1 H        0.924     0.052     2.294     2.369
    31   1 H        0.925     0.059     2.213     2.326
    32   1 H        0.925     0.063     2.163     2.300
    33   1 H        0.925     0.055     2.258     2.350
    34   1 H        0.926     0.065     2.136     2.286
    35   1 H        0.926     0.064     2.151     2.293
    36   1 H        0.926     0.080     1.981     2.201
    37   1 H        0.924     0.037     2.483     2.464
    38   1 H        0.923     0.028     2.609     2.526
    39   1 H        0.924     0.060     2.195     2.317
    40   1 H        0.925     0.072     2.059     2.244
    41   1 H        0.925     0.056     2.246     2.344
    42   1 H        0.925     0.059     2.215     2.328
    43   1 H        0.926     0.072     2.059     2.244
    44   1 H        0.926     0.073     2.047     2.238
    45   1 H        0.926     0.064     2.151     2.293

 Mol. C6AA /au·bohr⁶  :      17931.844807
 Mol. C8AA /au·bohr⁸  :     394731.525493
 Mol. α(0) /au        :        200.963674


Wiberg/Mayer (AO) data.
largest (>0.10) Wiberg bond orders for each atom

 ---------------------------------------------------------------------------
     #   Z sym  total        # sym  WBO       # sym  WBO       # sym  WBO
 ---------------------------------------------------------------------------
     1   6 C    3.992 --     2 C    1.004    22 H    0.985    24 H    0.984
                            23 H    0.983
     2   6 C    3.949 --     1 C    1.004     3 C    0.975    13 O    0.967
                            25 H    0.960
     3   6 C    3.950 --     4 O    0.979     2 C    0.975    26 H    0.967
                            27 H    0.963
     4   8 O    2.080 --     5 C    0.995     3 C    0.979
     5   6 C    3.952 --     4 O    0.995    29 H    0.967     6 C    0.967
                            28 H    0.964
     6   6 C    3.926 --     7 C    1.009     5 C    0.967    30 H    0.958
                             8 O    0.929
     7   6 C    3.990 --     6 C    1.009    33 H    0.985    31 H    0.984
                            32 H    0.981
     8   8 O    2.306 --     9 C    1.123     6 C    0.929    10 O    0.173
     9   6 C    3.919 --    10 O    1.721     8 O    1.123    11 C    1.011
    10   8 O    2.031 --     9 C    1.721     8 O    0.173
    11   6 C    3.987 --    12 C    1.931     9 C    1.011    34 H    0.964
    12   6 C    3.978 --    11 C    1.931    35 H    0.975    36 H    0.970
    13   8 O    2.069 --    14 C    0.988     2 C    0.967
    14   6 C    3.957 --    13 O    0.988    15 C    0.977    38 H    0.966
                            37 H    0.964
    15   6 C    3.926 --    16 C    1.008    14 C    0.977    39 H    0.958
                            17 O    0.930
    16   6 C    3.989 --    15 C    1.008    41 H    0.985    42 H    0.984
                            40 H    0.979
    17   8 O    2.307 --    18 C    1.126    15 C    0.930    19 O    0.171
    18   6 C    3.919 --    19 O    1.720    17 O    1.126    20 C    1.012
    19   8 O    2.028 --    18 C    1.720    17 O    0.171
    20   6 C    3.987 --    21 C    1.934    18 C    1.012    43 H    0.963
    21   6 C    3.983 --    20 C    1.934    45 H    0.975    44 H    0.971
    22   1 H    0.997 --     1 C    0.985
    23   1 H    0.996 --     1 C    0.983
    24   1 H    0.997 --     1 C    0.984
    25   1 H    0.999 --     2 C    0.960
    26   1 H    0.998 --     3 C    0.967
    27   1 H    0.999 --     3 C    0.963
    28   1 H    0.999 --     5 C    0.964
    29   1 H    0.996 --     5 C    0.967
    30   1 H    0.997 --     6 C    0.958
    31   1 H    0.996 --     7 C    0.984
    32   1 H    0.995 --     7 C    0.981
    33   1 H    0.997 --     7 C    0.985
    34   1 H    0.996 --    11 C    0.964
    35   1 H    0.995 --    12 C    0.975
    36   1 H    0.994 --    12 C    0.970
    37   1 H    0.999 --    14 C    0.964
    38   1 H    0.999 --    14 C    0.966
    39   1 H    0.996 --    15 C    0.958
    40   1 H    0.994 --    16 C    0.979
    41   1 H    0.997 --    16 C    0.985
    42   1 H    0.997 --    16 C    0.984
    43   1 H    0.994 --    20 C    0.963
    44   1 H    0.995 --    21 C    0.971
    45   1 H    0.996 --    21 C    0.975
 ---------------------------------------------------------------------------

Topologies differ in total number of bonds
Writing topology from bond orders to xtbtopo.mol

molecular dipole:
                 x           y           z       tot (Debye)
 q only:       -0.396      -0.642      -0.421
   full:       -0.305      -0.508      -0.651       2.236
molecular quadrupole (traceless):
                xx          xy          yy          xz          yz          zz
 q only:       23.720       4.716     -16.151       2.947      -3.058      -7.570
  q+dip:       24.535       5.457     -16.036       4.263      -1.592      -8.500
   full:       24.377       3.980     -15.539       4.385      -2.293      -8.838

           -------------------------------------------------
          |                Geometry Summary                 |
           -------------------------------------------------

      molecular mass/u    :      300.3480460
   center of mass at/Å    :        0.0838148       0.2027062      -0.1885064
  moments of inertia/u·Å² :        0.1169401E+04   0.4627253E+04   0.5221894E+04
rotational constants/cm⁻¹ :        0.1441562E-01   0.3643119E-02   0.3228260E-02

 * 41 selected distances

     #   Z          #   Z                                           value/Å
     1   6 C        2   6 C                                       1.5236112
     2   6 C        3   6 C                                       1.5388840 (max)
     3   6 C        4   8 O                                       1.4142878
     4   8 O        5   6 C                                       1.4022985
     6   6 C        7   6 C                                       1.5198342
     6   6 C        8   8 O                                       1.4310466
     8   8 O        9   6 C                                       1.3393945
     9   6 C       10   8 O                                       1.2067881
    11   6 C       12   6 C                                       1.3246492
     2   6 C       13   8 O                                       1.4170872
    13   8 O       14   6 C                                       1.4071620
    14   6 C       15   6 C                                       1.5337101
    15   6 C       16   6 C                                       1.5192095
    15   6 C       17   8 O                                       1.4304639
    17   8 O       18   6 C                                       1.3379871
    18   6 C       19   8 O                                       1.2080326
    20   6 C       21   6 C                                       1.3246677
     1   6 C       22   1 H                                       1.0863620
     1   6 C       23   1 H                                       1.0857855
     1   6 C       24   1 H                                       1.0865710
     2   6 C       25   1 H                                       1.1001398
     3   6 C       26   1 H                                       1.0975187
     3   6 C       27   1 H                                       1.0987033
     5   6 C       28   1 H                                       1.0998387
     5   6 C       29   1 H                                       1.0938914
     6   6 C       30   1 H                                       1.0977763
     7   6 C       31   1 H                                       1.0869870
     7   6 C       32   1 H                                       1.0859972
     7   6 C       33   1 H                                       1.0864372
    11   6 C       34   1 H                                       1.0793189
    12   6 C       35   1 H                                       1.0763518 (min)
    12   6 C       36   1 H                                       1.0780739
    14   6 C       37   1 H                                       1.0970892
    14   6 C       38   1 H                                       1.1021656
    15   6 C       39   1 H                                       1.0974407
    16   6 C       40   1 H                                       1.0850877
    16   6 C       41   1 H                                       1.0864628
    16   6 C       42   1 H                                       1.0870661
    20   6 C       43   1 H                                       1.0810448
    21   6 C       44   1 H                                       1.0772420
    21   6 C       45   1 H                                       1.0771267

 * 3 distinct bonds (by element types)

   Z      Z             #   av. dist./Å        max./Å        min./Å
   1 H    6 C          24     1.0887699     1.1021656     1.0763518
   6 C    6 C           7     1.4692237     1.5388840     1.3246492
   6 C    8 O          10     1.3594548     1.4310466     1.2067881


optimized geometry written to: xtbopt.xyz


           -------------------------------------------------
          | TOTAL ENERGY              -68.719393023880 Eh   |
          | GRADIENT NORM               0.000819296907 Eh/α |
          | HOMO-LUMO GAP               3.052292343371 eV   |
           -------------------------------------------------

------------------------------------------------------------------------
 * finished run on 2025/12/01 at 14:20:10.273     
------------------------------------------------------------------------
 total:
 * wall-time:     0 d,  0 h,  0 min,  2.031 sec
 *  cpu-time:     0 d,  0 h,  0 min, 46.244 sec
 * ratio c/w:    22.765 speedup
 SCF:
 * wall-time:     0 d,  0 h,  0 min,  0.099 sec
 *  cpu-time:     0 d,  0 h,  0 min,  2.266 sec
 * ratio c/w:    22.885 speedup
 ANC optimizer:
 * wall-time:     0 d,  0 h,  0 min,  1.912 sec
 *  cpu-time:     0 d,  0 h,  0 min, 43.683 sec
 * ratio c/w:    22.850 speedup

normal termination of xtb
