12
 energy: -19.724196064684 gnorm: 0.000557335264 xtb: 6.7.1 (edcfbbe)
O            0.22296582347796       -1.32887658669028        0.41345989196713
C           -0.03306052022880       -0.20518786835389        0.06007706175996
O            0.90401695637200        0.72328278145923       -0.19098704185756
C            2.25082270870828        0.31082584453877       -0.01697969373438
C           -1.38923519088847        0.34307388834409       -0.15479274242153
C           -2.46659331525806       -0.40347204238205        0.03776912123870
H            2.47492098644107       -0.53628666491646       -0.66849182911538
H            2.42446215513841        0.01070780545602        1.01858054381467
H            2.86832628387498        1.16715924542452       -0.27571947039582
H           -1.42996927484556        1.37369894431802       -0.47218501652282
H           -3.46423134791654       -0.02755655346516       -0.10983811846029
H           -2.36242526487527       -1.42736979373281        0.35910629372734
