22
 energy: -34.615238329889 gnorm: 0.000180542461 xtb: 6.7.1 (edcfbbe)
C            4.79686710755127        0.31584986257121        0.01272037637413
O            3.43591026784151        0.70102268644537        0.11364711098556
C            2.53188829334380       -0.28825346783658       -0.02177229481570
O            2.83745063500240       -1.44065202325060       -0.21589931482721
C            1.16462235363460        0.23011582213709        0.10183879526077
C            0.11577864118599       -0.59643380247660        0.00070825639668
C           -1.28919962837757       -0.25575164345735        0.09777508957301
C           -1.74117703692104        1.04793702064472        0.32088780348304
C           -3.09244883476165        1.31893330102404        0.40548790326983
C           -4.02149418180760        0.29892367852868        0.26994457216701
C           -3.58965885112016       -0.99880715472107        0.04835787354315
C           -2.23879773137742       -1.27317575303327       -0.03679115594829
H            5.38378986741254        1.19763037356726        0.25678005211868
H            5.02055423603911       -0.02359021405686       -1.00122462310187
H            5.01380452127978       -0.49720627572724        0.70882996900387
H            1.08364043756499        1.29122448493741        0.27433033590775
H            0.33658710923583       -1.64348745228811       -0.17366201736762
H           -1.02994800046956        1.85187232209141        0.42842955342740
H           -3.42683417699323        2.33144798960094        0.57829931084413
H           -5.07729305548819        0.51547587582649        0.33686032344006
H           -4.30943606592907       -1.79703972153498       -0.05792589946865
H           -1.90460590684634       -2.28603590899195       -0.20960402026572
