42
 energy: -51.379708872014 gnorm: 0.000417988133 xtb: 6.7.1 (edcfbbe)
C            5.04527547627043       -1.69735772755955        1.25552921203431
C            5.03916158530611       -0.21930960881260        0.87270996534506
C            6.29515925020327        0.11116091326727        0.06777883638797
C            3.78950460312272        0.15459316205155        0.06758400577696
C            2.49715032217448        0.10937761052712        0.88012658386204
C            1.29964576119667        0.59255229966805        0.06448016412394
C            0.00877811121121        0.55836490309951        0.87977736137078
C           -1.19577341560211        1.12778328986755        0.13143823356302
C           -1.61361609353914        0.27971803429802       -1.06843342528913
C           -2.94098301517059        0.75254823116648       -1.65751998196784
O           -4.00581762385872        0.64436240042190       -0.71673158022232
C           -4.56443779155406       -0.56412066190050       -0.57113611278868
O           -4.23298502892723       -1.53588507502064       -1.20640984154769
C           -5.64386498361924       -0.55564185336887        0.45459977116295
C           -5.91448624892935        0.73261020838083        1.16232880143807
C           -6.30191686009816       -1.68748117239276        0.68294979994458
H            5.95579443383727       -1.94308115965254        1.79775820063862
H            5.00017999326400       -2.31880583879614        0.36337542480060
H            4.19837862260123       -1.94259088545979        1.89056324082986
H            5.04965064060513        0.37889496588269        1.79135893561490
H            6.31277873938069       -0.46192117345047       -0.85714623475245
H            6.32529733965502        1.16909611036544       -0.18385689356241
H            7.18971850112490       -0.13043507925686        0.63748538345366
H            3.70229824890880       -0.51662017837211       -0.79025450321537
H            3.91713175658595        1.16850841339909       -0.32079757601174
H            2.60770375041911        0.73864700148966        1.76689184336750
H            2.30451033259635       -0.90994292994050        1.21832208025509
H            1.48283591677280        1.61465536090133       -0.27607961180858
H            1.19499974811976       -0.03956400264354       -0.81884834423403
H           -0.20495803254449       -0.47131053538533        1.17593016597505
H            0.15670146323273        1.13933769380510        1.79375399310030
H           -0.96864384738574        2.14244588700388       -0.20485087731267
H           -2.04047873605349        1.18946866829849        0.82168534078030
H           -1.72128264711245       -0.76354544719632       -0.76517149649240
H           -0.86055551406171        0.33029586047920       -1.85516527142221
H           -2.89767254420028        1.81253079494465       -1.91756667326056
H           -3.18936420233980        0.15848420494401       -2.54346338565028
H           -6.19055936258212        1.50357017829760        0.44504543098484
H           -5.01878835089514        1.07313772999525        1.67907466916556
H           -6.71796369331759        0.60949807577241        1.88358761375062
H           -6.05534003842656       -2.58104563461629        0.13443011988605
H           -7.09316556637121       -1.75298103450055        1.41003563192640
