23
 energy: -32.642839884238 gnorm: 0.000532412210 xtb: 6.7.1 (edcfbbe)
C           -2.86962001357281       -0.62907638282344        0.18509137642094
N           -2.16520282735996        0.63075188062777        0.05638784067713
C           -2.99528252483577        1.62305122205624       -0.59595940505839
C           -0.89336565430626        0.47916891809871       -0.62550656323700
C            0.11900558774801       -0.26982553606016        0.23719456319916
O            1.42421217054776        0.04404403949340       -0.24247445262413
C            2.43515863707352       -0.67367709359647        0.26626824650355
O            2.29012197523705       -1.55064247769200        1.08123389529953
C            3.72724848082275       -0.24216016243917       -0.31042649470222
C            4.86636635202255       -0.80625469967969        0.06225740215067
H           -3.10081906660650       -1.08478615003574       -0.79075553294101
H           -3.80368522834652       -0.45717315666924        0.71703868691439
H           -2.26897989588632       -1.32618410746246        0.76421529459412
H           -2.46923979717009        2.57613476239574       -0.61440475196726
H           -3.26045597942764        1.34622556729144       -1.62850908128898
H           -3.91298226763911        1.74659367678890       -0.02329136954566
H           -0.99960039629653       -0.02915963109973       -1.60044076981635
H           -0.48518349761758        1.47615632525040       -0.80846774020637
H           -0.01589791527791       -1.35559880244312        0.20047207758740
H            0.02878893417864        0.05561749451531        1.27943999392095
H            3.66904609558246        0.55189912091147       -1.03904335143311
H            4.86179176462531       -1.59663736707673        0.79523302284432
H            5.81857606650551       -0.50846844035190       -0.34162788729102
