23
 energy: -32.642826298528 gnorm: 0.000913578734 xtb: 6.7.1 (edcfbbe)
C           -2.60054663867696       -1.29175794425039        0.63391754192563
N           -2.25149703256732        0.10577827702840        0.47241939286633
C           -3.33079769330784        0.84051809225800       -0.15642868340019
C           -1.00868808276386        0.28062999671095       -0.25605260589668
C            0.19541789158155       -0.18205865514099        0.55951690435044
O            1.36614997790746        0.36982852972282       -0.03782510348403
C            2.53964961722782       -0.05302937496093        0.45258325973280
O            2.64024075167314       -0.85342535109679        1.34931464150165
C            3.66682813028608        0.58886750395158       -0.25931083805169
C            4.92318748574134        0.33152972703034        0.07216011072090
H           -3.54209181914847       -1.35829993564969        1.17674537776289
H           -1.83340381084903       -1.79458062496414        1.21814170539170
H           -2.71323046768613       -1.81365484212365       -0.32957674897125
H           -4.23263403511906        0.72220085709642        0.44126379579804
H           -3.54155356313342        0.49754921445183       -1.18126633339816
H           -3.07418717298186        1.89795873908845       -0.18915267229243
H           -0.87668658470144        1.34794594676301       -0.44997782654411
H           -1.01680475033813       -0.24326476296785       -1.22892919563337
H            0.29510967262111       -1.27234963501930        0.58120768903160
H            0.10798242040504        0.17712801437695        1.59101666413764
H            3.38971261271376        1.26861975269935       -1.05076263389556
H            5.13984732319521       -0.35467187147495        0.87514993989593
H            5.75799676792059        0.78853934647101       -0.43100038154810
