22
 energy: -52.475994913874 gnorm: 0.000455321960 xtb: 6.7.1 (edcfbbe)
Br          -5.16596246596439        0.12643007011607        1.99130102788313
C           -3.54205694935352        0.20456691066580        1.04917522122307
C           -2.43086120086403        0.81693978703632        1.62288753253230
Br          -2.55930661744847        1.56377747990913        3.34209277457259
C           -1.23283742571703        0.87521088871117        0.91436438828520
Br           0.24492275679330        1.73335034074369        1.70986747568366
C           -1.11714562295875        0.32572183603116       -0.36405607176562
C            0.20257041912412        0.39366159989597       -1.07230821539672
O            1.16056148855237       -0.32361591034288       -0.30395574899058
C            2.45281418420926       -0.10008634122521       -0.62964790288579
O            2.78053194498938        0.64603493648217       -1.51415301394118
C            3.35256487536938       -0.88117276312115        0.23713026877411
C            4.66651864043542       -0.83204253941548        0.07072660220352
C           -2.23760412931505       -0.28898444738884       -0.92060906174271
Br          -2.17258598105591       -1.06030730933175       -2.64417700151530
C           -3.44616822268243       -0.34681282251028       -0.22565061572992
Br          -4.95094671061780       -1.16780286078902       -0.99646218430904
H            0.15030813162641       -0.03804293944532       -2.07573654093346
H            0.53561757290655        1.43694755408966       -1.17260792943193
H            2.87222274582022       -1.47755898311868        0.99704231390114
H            5.34627554607758       -1.38961514719029        0.69090936187448
H            5.09056902007324       -0.21660033980204       -0.70613168028833
