19
 energy: -30.115026954347 gnorm: 0.000802620889 xtb: 6.7.1 (edcfbbe)
C           -2.27950957740632        0.99041462664202       -0.79815602328829
C           -1.93675168730689       -0.47044812773604       -0.53616546791051
O           -3.08917408355844       -1.09874442818776       -0.02378949700858
C           -0.77156458467137       -0.58980646419028        0.45589933921161
O            0.40395066849027       -0.08532863470511       -0.16438892329654
C            1.53265892663347       -0.15293587117789        0.55980201634133
O            1.58430712075660       -0.62007815349635        1.66970134300926
C            2.67161784367673        0.41492632831075       -0.19230730622360
C            3.88382917663730        0.47260454960243        0.33868532769482
H           -2.63618092675551        1.44896576265473        0.11965912186659
H           -1.39770128124083        1.51609209925397       -1.14989852253106
H           -3.06444443438681        1.05452254039194       -1.54575543445390
H           -1.62789477244651       -0.94831748779214       -1.48020911741974
H           -2.90841188537493       -2.03240475195279        0.13233509764128
H           -0.60613274704657       -1.63680069966209        0.74291173636710
H           -0.98142248743781       -0.01981198661999        1.36806176417316
H            2.44114581311472        0.77316161648820       -1.18391003968497
H            4.72638954274536        0.88387218365683       -0.18988756139564
H            4.05529037557739        0.10011689851953        1.33562814690760
