15
 energy: -22.891434862192 gnorm: 0.000922100240 xtb: 6.7.1 (edcfbbe)
O            1.12564025575671       -1.06079641103644        0.98231599547815
C            0.89921688246910       -0.16261112568162        0.20925589827418
O           -0.33114569182740        0.17163455717737       -0.19896776715343
C           -1.40796229196920       -0.60069631455700        0.33278143626732
C           -2.70826349008774       -0.07476883714132       -0.24440326199133
C            1.91607932775453        0.71268998031353       -0.41386143725901
C            3.20523537146282        0.56757199478710       -0.14697970368696
H           -1.24994829990549       -1.65316981246793        0.07066840647043
H           -1.39354702774709       -0.51939043147674        1.42574984122169
H           -2.70105080658344       -0.16380369157416       -1.32662774642869
H           -3.54106312025258       -0.64570647199707        0.15392620761362
H           -2.83781304671584        0.97165514064756        0.01671675119727
H            1.53181168517017        1.46296856100922       -1.08798642294426
H            3.96013489215814        1.19426675344905       -0.58962641296606
H            3.53267436031729       -0.19984389145152        0.53562721590707
