55
 energy: -84.071218733629 gnorm: 0.000265040868 xtb: 6.7.1 (edcfbbe)
O            6.64451055944535        1.73418977641987       -2.13409750567089
C            5.98366045209045        1.43741616592652       -0.92617986743817
C            5.73803587613297       -0.07967535078329       -0.90029240926316
N            5.10086156454743       -0.53387489461828        0.31106758786053
C            6.00207708427924       -0.86408148959835        1.39541225962243
C            6.45631507633820       -2.33562031498371        1.35863448934951
O            5.43090846328197       -3.24345172660160        1.66030976435554
C            3.73862410754002       -0.49045584910078        0.47307319007439
C            2.89899955602937        0.08194564758436       -0.49965804037635
C            1.53426138376864        0.10700980012375       -0.34647325407293
C            0.91204135359519       -0.43567163144097        0.78471270215763
C           -0.50981324068032       -0.43539325166332        0.98150291850093
C           -1.44347711874186        0.14261590730551        0.19747172867245
C           -2.84877224206515        0.03768897117157        0.53116348773769
C           -3.81029423321968        0.79963604664212       -0.42603771794577
O           -3.24346448212729        0.74494394248908       -1.71113434942220
C           -3.98809478076610        1.40114311592288       -2.71841477914218
O           -3.86434512675155        2.17271905459794       -0.04447900992472
C           -3.91667229190260        2.42782789826261        1.34004002072762
C           -5.18270175117591        0.14365504087286       -0.40873151388470
C           -5.26423020349290       -1.22616932191745       -0.62657237413477
C           -6.49582417964172       -1.85395749963069       -0.64416123401783
C           -7.65405821599011       -1.11978817297710       -0.44866664438442
C           -7.57645609330136        0.24680424765704       -0.24652646006617
C           -6.34508559429329        0.87903917802831       -0.23050555760373
O           -3.28960201659675       -0.54796691744230        1.50227143975465
C            1.74672301563942       -1.01511855575942        1.74873320228357
C            3.11246463718337       -1.04609600674532        1.60330072948995
H            6.79517109822471        2.68302240665890       -2.19144380046061
H            5.02819059662422        1.97422932253278       -0.85469240071144
H            6.60092608980033        1.72546403135390       -0.06235163660816
H            6.70599454833453       -0.57696309741464       -0.99824078851702
H            5.14485550170507       -0.35637257320240       -1.77386266712070
H            5.52836495010951       -0.65441290920430        2.35552460567048
H            6.89076544754246       -0.23210731600104        1.31652489992682
H            7.22443563837738       -2.49289017985375        2.11925377336410
H            6.89053140625452       -2.55681472011520        0.37286222657380
H            4.72948293998687       -3.15220807726778        1.00451569685385
H            3.31564708820040        0.51998994531581       -1.39130639729342
H            0.93219030565470        0.55421600067530       -1.12180414247839
H           -0.86803652424652       -0.95677390927014        1.86266131248671
H           -1.20432286591317        0.69357052819961       -0.69593959514398
H           -4.13907580114540        2.45290164237699       -2.46650627737187
H           -3.39048121204523        1.31763216977926       -3.62404100546841
H           -4.95970963436202        0.91990370040602       -2.87097179567882
H           -4.63582125836156        1.77731031562620        1.84572651480688
H           -4.22915115969487        3.46722926849442        1.43677776017147
H           -2.93487415926125        2.29928812107130        1.80945025507752
H           -4.35857899065404       -1.79297606440621       -0.78498122451039
H           -6.55214565820238       -2.91974115917152       -0.81036494466599
H           -8.61562619997784       -1.61220150860858       -0.45880018484366
H           -8.47725322980376        0.82608069815259       -0.10350810635148
H           -6.28470216631788        1.94799637965862       -0.09012021842440
H            1.30407267209170       -1.45539138440533        2.63057344481927
H            3.69256301800631       -1.52929944120301        2.37269489272995
