55
 energy: -84.075359540840 gnorm: 0.000202687328 xtb: 6.7.1 (edcfbbe)
O            5.52238328212120       -3.28502740912663        1.75101425622390
C            5.07301395989673       -2.36804307765887        0.78787154987200
C            4.97972325967994       -0.93360176395811        1.34751753298228
N            4.66067628216923        0.03348860355567        0.32470334942455
C            5.79245531706200        0.64512139206226       -0.33001965047473
C            6.21696348869701        1.96427101633409        0.34704132640386
O            7.40326044191525        2.48101342997388       -0.19702823916656
C            3.36971451208102        0.33058508172257       -0.02197162930495
C            2.27821879687509       -0.37840997086544        0.51178559527999
C            0.98330001500835       -0.07673712165874        0.16710813713975
C            0.68575310024688        0.93845770193837       -0.74934656404496
C           -0.65193192169598        1.26879945855114       -1.15684372832029
C           -1.80311322907904        0.81133177625336       -0.62797568252874
C           -3.08646851339426        1.23435557275387       -1.16855859716135
C           -4.29559627357995        0.68390537512591       -0.36630899697516
O           -5.44239989087858        1.35577520657398       -0.81645482233630
C           -6.65807995333609        0.85298222383936       -0.30410205609862
O           -4.11462779706785        0.84726481936027        1.02643855394983
C           -3.95193534010574        2.19227213535964        1.42941882673905
C           -4.32060592611520       -0.80002131995927       -0.69065394858510
C           -4.03818989302140       -1.76434670434190        0.26560460529395
C           -4.05006924369739       -3.10392496545662       -0.08252646260902
C           -4.34005837842322       -3.48497715113825       -1.38136807733873
C           -4.62238872588459       -2.52206201465252       -2.33663936250903
C           -4.61041239706364       -1.18237347146214       -1.99541767897249
O           -3.23229525292473        1.89905940481632       -2.17014673926168
C            1.77038032217124        1.63915361030510       -1.28983129840650
C            3.06674981004792        1.35866655785705       -0.93189169717736
H            4.88631469225911       -3.32566823574973        2.47389348973199
H            5.81245087422798       -2.40025372908442       -0.01578778448771
H            4.10258870838412       -2.67060151824466        0.37121518615794
H            5.94672539093444       -0.67346159798283        1.78593917591211
H            4.23720294782191       -0.89157288986743        2.14985568615028
H            5.56709745404674        0.82155394504280       -1.38605342954492
H            6.63771379274633       -0.04695131220897       -0.28956694285980
H            6.43296090154946        1.78123794197022        1.40228237236063
H            5.39927681195358        2.69555928369236        0.28754349489129
H            7.26255724179305        2.69100274802556       -1.12706742307852
H            2.43881017167278       -1.19031649331612        1.20168775930173
H            0.18160248300533       -0.65578521414494        0.59871045900563
H           -0.74032618914731        1.97033455567728       -1.97892097315379
H           -1.83200178560274        0.13859926896019        0.21451845542015
H           -6.88280531871574       -0.13808307102492       -0.71266780039124
H           -7.42514589632015        1.56029079732463       -0.61262138121261
H           -6.62950122713506        0.78855296784150        0.78803681537236
H           -4.73068425415802        2.82771600683145        1.00009469879275
H           -2.97186635392007        2.57841255042679        1.12824014065380
H           -4.02994694041648        2.19191095224309        2.51511045146090
H           -3.82369942945751       -1.45788578000550        1.27718881569795
H           -3.83369595686393       -3.85292986603492        0.66544039614812
H           -4.34713134165385       -4.53140024222678       -1.64936070552913
H           -4.84960674363676       -2.81555098745313       -3.35081186657970
H           -4.82553447505284       -0.42007913179829       -2.72965748025585
H            1.58071574339144        2.43320274752136       -1.99778678821306
H            3.85150884657947        1.95518490748264       -1.36680832378411
