55
 energy: -84.065264935880 gnorm: 0.000411453565 xtb: 6.7.1 (edcfbbe)
O            4.68295783505141       -0.21779189135561       -3.18007680580932
C            5.81724230667606       -0.25969119465060       -2.34614247555386
C            5.44401159498489       -0.95095605519737       -1.02207493962468
N            4.94972349362935       -0.04778349905718       -0.01001408318852
C            5.95374612022442        0.54154342462283        0.84090746046483
C            6.29470763242468       -0.32970271816493        2.06784694131008
O            7.20447905717140        0.30445637567942        2.92910445458206
C            3.61080012527450        0.17558169769608        0.19268016328830
C            2.65772000417797       -0.19256589222428       -0.77208630589534
C            1.31713770830789        0.02603447660944       -0.57085731011710
C            0.83957479466617        0.63320921061861        0.59841230281185
C           -0.54944313503517        0.89197096336885        0.84846074414078
C           -1.59955541365347        0.57121735742054        0.06429565443301
C           -2.94949719655541        0.93788843905262        0.45846033501063
C           -4.08727603802688        0.52768888059552       -0.52207729179220
O           -4.38165909780216        1.61851016331862       -1.35752675808799
C           -3.32302532864502        2.09991892581533       -2.15823610590523
O           -3.68529959919164       -0.54747859674050       -1.37649101509450
C           -3.64221499572012       -1.82367426427019       -0.79204148195665
C           -5.36553002318207        0.19433511463779        0.23206727951947
C           -6.59214626956331        0.45816917219803       -0.36284124186830
C           -7.76843889122510        0.13752299039090        0.29005425891657
C           -7.73113282622926       -0.45696231955983        1.53973938509162
C           -6.51083789251464       -0.73162385300112        2.13135613580732
C           -5.33123828149342       -0.41135914325041        1.48163012762283
O           -3.21337652634255        1.58311024259827        1.45613800881219
C            1.79340750692369        1.01394811055877        1.55100451296375
C            3.13633765637471        0.79243150327967        1.36229093405857
H            4.88586010890102        0.27749166795210       -3.97953692617603
H            6.18487371531663        0.75462420598565       -2.13814127141754
H            6.62175066173762       -0.82889597186850       -2.83457572492253
H            6.33363349027622       -1.44938546078697       -0.62795384495863
H            4.69811220815697       -1.71695321358639       -1.23862805339690
H            6.86440710224857        0.69024722142948        0.24855122943927
H            5.62347758631746        1.52482046022253        1.18449443132782
H            5.39664963607004       -0.50799539365950        2.66199727758572
H            6.68258108590382       -1.30353672396322        1.73521950591211
H            8.02915676611970        0.46847757671751        2.45804114599058
H            2.97658784782613       -0.61692793231356       -1.70881014083213
H            0.62269759874316       -0.26521595530265       -1.34364229746471
H           -0.77861267391615        1.40717552151776        1.77519312824376
H           -1.48531861038643        0.05059155875120       -0.87277568214233
H           -2.90052593677688        1.30276171501927       -2.77416833113327
H           -3.77196172602321        2.85785733769100       -2.79793605077329
H           -2.53172594745429        2.55674802821323       -1.55389105483627
H           -4.64041901348956       -2.17703785872747       -0.51382926351319
H           -3.22575219285888       -2.48009589569279       -1.55513085103437
H           -2.99697579348568       -1.84238667953416        0.09397211993927
H           -6.60985793449175        0.92370270103113       -1.33488402366231
H           -8.71754892256069        0.35261240559023       -0.17907601938519
H           -8.64984360156612       -0.70539019589480        2.05119995531996
H           -6.47335433120478       -1.19710364071207        3.10547277685300
H           -4.38764209162017       -0.62736938276768        1.95974132716923
H            1.46184083871410        1.48803166048584        2.46389969278471
H            3.81673780878559        1.09505762320253        2.14121506117088
