71
 energy: -104.840052324704 gnorm: 0.000343276231 xtb: 6.7.1 (edcfbbe)
C           -7.98036995063405       -1.15436240895797       -3.15860489982784
C           -9.00134423573473       -0.30681641821237       -2.47102352388114
C          -10.24031087563374       -0.70225760699275       -2.19599704279190
C           -8.59848555817594        1.06768648975951       -2.06867611755352
O           -9.30631660477833        1.84338787462878       -1.47469855345219
O           -7.34562829689518        1.35683437356735       -2.45738967641992
C           -6.84691981758502        2.64253734914652       -2.10300899774058
C           -6.27614548927170        2.65035270396179       -0.68821843514412
C           -5.07695442175205        1.71499101309735       -0.56040913557892
O           -4.69543126437741        1.69586038975807        0.79656079126423
C           -3.67122062618115        0.88130485791077        1.18044277467794
C           -3.40397127828914        0.84285247468992        2.54718124219725
C           -2.39510447530416        0.04545055280739        3.04716570384320
C           -1.61363182357260       -0.73449930381104        2.20321575556703
C           -1.88190740988045       -0.68146996831473        0.84120970340820
C           -2.89376695570087        0.10874756053045        0.32570386020914
C           -0.52677942523512       -1.67543820493211        2.69723497130820
C           -1.07881703478804       -3.10293562715116        2.56901463780194
C           -0.14959483533762       -1.43626442298829        4.16658721283141
C            0.73497653656969       -1.44943446215619        1.88041477421884
C            1.17775256701275       -0.14232832039092        1.68123648429926
C            2.35119246299187        0.12183498489111        1.01230949620760
C            3.13163364797291       -0.92222752102825        0.51370347667513
O            4.28612356118590       -0.55633433570691       -0.11406616317521
C            5.15497318478658       -1.56307546805935       -0.58062146866928
C            6.42881809858196       -0.89433466465164       -1.08502955492618
C            7.15256678679636       -0.17163896718186        0.05092363059402
O            8.45939868177115        0.24252038642746       -0.33342782605721
C            8.55110335577106        1.36349235686006       -1.06543088406220
O            7.59570481231454        2.02041094503218       -1.39913435207188
C            9.95725519983485        1.71219767248604       -1.41029795845282
C           10.10560317186907        2.99374959970826       -2.16616493040242
C           10.97349418195655        0.92771131755515       -1.06854605908622
C            2.69264746160802       -2.22650882708992        0.69017227815299
C            1.51000139331092       -2.47735087931768        1.37061858931787
H           -7.62535566836904       -0.65811915276009       -4.05968683278037
H           -8.40287005552629       -2.11994678255631       -3.42273251219842
H           -7.12057364244014       -1.30755569918538       -2.50862589864549
H          -10.92523711334304       -0.03894383108381       -1.69560157359204
H          -10.59990179684780       -1.68237121251708       -2.45830058741948
H           -7.66021404383028        3.37191310638990       -2.17652671637481
H           -6.07297896963701        2.86648007742441       -2.84070811252944
H           -5.97567026219045        3.66493307531123       -0.42711434158265
H           -7.04900403773051        2.33400516321061        0.01396817980914
H           -5.35498047734377        0.70532784015319       -0.89380573608105
H           -4.25010678913010        2.07649717421676       -1.18898737426766
H           -4.00858374978701        1.44849875030013        3.20393311852589
H           -2.22699788604673        0.04111854579730        4.11206920744330
H           -1.28100820789550       -1.26695415119963        0.16005937340109
H           -3.06282374325445        0.11401891339487       -0.73994363314975
H           -1.23528640497870       -3.36808608510536        1.52647824720584
H           -2.03692450080480       -3.16374446023049        3.08179670817837
H           -0.40446788530427       -3.82451261529921        3.02422460042351
H            0.69650975355213       -2.06960536157832        4.42703438571989
H           -0.97682570516304       -1.68638436478145        4.82669919563171
H            0.13998995487544       -0.40137734802298        4.33004608927631
H            0.58643486230666        0.68009407202394        2.05665182635620
H            2.69336093790872        1.13363055978314        0.86281017067019
H            4.68243113373905       -2.12588465905123       -1.39840122993780
H            5.39912503051875       -2.26229625737793        0.23236884714947
H            7.08751448880546       -1.65415543123061       -1.50962913787739
H            6.17524145297168       -0.17022622562762       -1.85990762219926
H            7.30659377993790       -0.84143143293298        0.90037564957129
H            6.56665534944264        0.69826003746246        0.36213828394754
H           11.14766591455392        3.18865840444518       -2.40160847668301
H            9.70587364497028        3.81761246184606       -1.57734236146848
H            9.52619921272636        2.94754028897902       -3.08659854486608
H           10.82112090639693        0.01222028019401       -0.52511828462181
H           11.98864859044231        1.18284735235896       -1.32359958285386
H            3.25798081458061       -3.06194654171363        0.30672194536199
H            1.20792138682355       -3.50537598541112        1.49391592622567
