71
 energy: -104.838627382152 gnorm: 0.000709312269 xtb: 6.7.1 (edcfbbe)
C           10.79706266207909       -2.05067043332227       -2.75482460500806
C            9.64170228229814       -2.81137593175711       -2.18687667615408
C            9.62683042504325       -4.12951365447458       -2.02134758911827
C            8.48465187414382       -1.96459019567779       -1.78185141602342
O            8.51734922560763       -0.75953844229313       -1.73648796365538
O            7.39671246342044       -2.69028918610569       -1.48104465423918
C            6.23793610172926       -1.97690186062489       -1.06194358311092
C            6.29378367657745       -1.64591442813075        0.42868977409560
C            4.97624838245573       -1.04610554766414        0.90761938877136
O            4.77788983703825        0.16867291736880        0.22244496190765
C            3.67185346775319        0.91458188918150        0.50737100786983
C            3.55334138603326        2.11570097024208       -0.18838032128790
C            2.47462250367352        2.94977791362684        0.02254166003303
C            1.47603202537338        2.61407551285444        0.92902093380784
C            1.60467807375656        1.41479950078828        1.61818173243896
C            2.68079228719169        0.56846778598755        1.41799546842101
C            0.28861526369357        3.51148590731064        1.23869757507543
C            0.08502860218068        4.61753985429885        0.19297940518273
C            0.57099296421401        4.17563738090083        2.59407947326999
C           -0.97694071624112        2.66918353865843        1.24253626870308
C           -1.20342939146667        1.80054309881630        0.18218726595819
C           -2.35402075269123        1.03730707157181        0.09507599912036
C           -3.32293075835041        1.13248319356184        1.08670770755983
O           -4.49706902308735        0.43734755952459        1.11270317131122
C           -4.81315135023998       -0.40414238090721        0.02742855119036
C           -6.20962345877132       -0.96168554559845        0.27946713673340
C           -6.64008747830416       -1.91632941874754       -0.83097675176973
O           -7.92328780237307       -2.46944094499924       -0.56505221867504
C           -8.98467172017059       -1.72540522171586       -0.91924446348259
O           -8.88865191696462       -0.65152804907984       -1.46134091677883
C          -10.28185089871930       -2.37322253804956       -0.58541425470628
C          -11.48593063457705       -1.60150858768377       -1.02221824804805
C          -10.33390159046194       -3.53583051705905        0.05575223555894
C           -3.10445862081628        1.99809202912377        2.15619102409766
C           -1.95206727798065        2.75362969057899        2.22905133152318
H           11.07002598018069       -1.24040493569923       -2.08129177293346
H           11.65203638616501       -2.70149587194847       -2.91276036182609
H           10.51075436819947       -1.59784394167075       -3.70349506286022
H            8.77454791921262       -4.63535401037876       -1.60362835535606
H           10.46959211257340       -4.73946702116526       -2.30119545652149
H            6.14627412918549       -1.05095452900198       -1.63767198842354
H            5.39751644383984       -2.64008507657143       -1.28145542772162
H            6.50246405457241       -2.55427472307020        0.99664497439519
H            7.09720409710701       -0.92817346231612        0.59931993724734
H            4.14872339207534       -1.74072527014381        0.70009942346472
H            5.02418175281600       -0.87049677365619        1.99150709162748
H            4.32761804777030        2.37726431185204       -0.89238669693552
H            2.42358331963178        3.87143595852323       -0.53454088304583
H            0.84043272042481        1.12601718149047        2.32555971763463
H            2.73283718240586       -0.35308647741135        1.97686600540234
H            0.90299277943297        5.33362197667000        0.21828267213438
H           -0.83911316108733        5.15011380088850        0.40994923300013
H            0.00753501821615        4.19782592086877       -0.80679712885660
H            1.53891598617872        4.67184992988078        2.55495204049604
H           -0.18400249303321        4.92282883989105        2.82688021383129
H            0.60108937170929        3.43651744669003        3.39072425286175
H           -0.45828058706004        1.70870514873767       -0.59503236665023
H           -2.48082994817900        0.37551018248987       -0.74762409111808
H           -4.08442268199093       -1.22517261799719       -0.04598036740652
H           -4.79950739362250        0.16189023182514       -0.91440324615584
H           -6.91636838928952       -0.13239250341819        0.33589765018359
H           -6.21965900261108       -1.48438730237765        1.23737516626323
H           -5.96375068679923       -2.77169453618218       -0.89785378121379
H           -6.66902016229302       -1.38782952858504       -1.79050198169720
H          -11.46622057450464       -1.46585521034215       -2.10233226301402
H          -11.46956141936168       -0.60927119725276       -0.57457114785421
H          -12.40048395933697       -2.11349150870775       -0.73802633381708
H          -11.27509147134950       -3.99969404471634        0.29951020819339
H           -9.44040826404552       -4.05504599047482        0.35348751799054
H           -3.86038682352441        2.06484697886819        2.92289580842742
H           -1.82526515651424        3.41394869270906        3.07187738951857
