71
 energy: -104.838511793167 gnorm: 0.000709448426 xtb: 6.7.1 (edcfbbe)
C          -11.57652330785683        1.60371870436429       -0.65516368604411
C          -10.53228245791717        0.74218728331019       -1.28984219503961
C          -10.66711454004580        0.15682051990174       -2.47477241011355
C           -9.29765230254701        0.57376879724878       -0.47527788900876
O           -9.15644232887717        1.02057002394093        0.63728556730807
O           -8.34748657002879       -0.13140673458244       -1.10540373958482
C           -7.13127197780018       -0.31972623101446       -0.38776242959247
C           -6.13797558688318       -1.02182919305416       -1.30290836524576
C           -4.79216529058118       -1.20519562526547       -0.60966739309223
O           -4.27338688269188        0.07549640687857       -0.32961882586086
C           -3.10283241551914        0.17357081635453        0.36605635491169
C           -2.70075701169291        1.46340353104942        0.70416436134667
C           -1.53192088615894        1.67690024798684        1.40630949255319
C           -0.72245057581900        0.61438532374544        1.78887757044506
C           -1.13162498389005       -0.66761358142863        1.44358627376484
C           -2.30271082931686       -0.89760780798776        0.74428377714008
C            0.55709446808741        0.77658286672224        2.59345189799862
C            0.25782906226835        0.29149287677290        4.01920868138399
C            1.03645799446225        2.23309215384407        2.67202541127515
C            1.65999776284710       -0.01846549287395        1.91308057415991
C            2.53770607249591       -0.85411371243772        2.59272295505015
C            3.54753532823690       -1.51798757598688        1.92600008169214
C            3.71623992292293       -1.36330776220340        0.55181001747709
O            4.74359809195127       -2.06400370008506       -0.00815644191437
C            5.01453847037930       -1.88735875177038       -1.38172717133488
C            6.27297964652406       -2.68454009630649       -1.71508285666154
C            7.49509833828285       -2.10048536723327       -1.02154494069202
O            7.76297578003299       -0.81740177640765       -1.58506451380231
C            8.73804871613520       -0.10993055221856       -0.99965386118972
O            9.37786430672620       -0.52087530105168       -0.06210612458961
C            8.94374559850284        1.22535807445578       -1.62619749710452
C           10.00081251833075        2.05564066803092       -0.97187798017342
C            8.23390636221267        1.61701853884821       -2.67867888074076
C            2.84413224958503       -0.53006841996223       -0.13880960707343
C            1.83605405472957        0.12731059375427        0.54269332615614
H          -11.84068347461144        1.20254788281586        0.32161527563099
H          -11.18006568895044        2.60493223064907       -0.49344733814214
H          -12.46434632148380        1.66242104486923       -1.27798106540856
H          -11.56308344224227        0.27594872494739       -3.06086921532980
H           -9.88796348263561       -0.45736118373413       -2.89029192518024
H           -6.74099182166598        0.65304399362952       -0.07149037132952
H           -7.33301875145397       -0.91444703037707        0.51109247384390
H           -5.99993223404589       -0.41786312467602       -2.20009944094313
H           -6.53120703771177       -1.99583961773964       -1.59514386409569
H           -4.92209334728496       -1.77405887930789        0.32187947816161
H           -4.10941980368948       -1.75911120629096       -1.26912014010426
H           -3.32593974737793        2.29045138777705        0.40619125700862
H           -1.26019505794568        2.69095126706555        1.65154867959627
H           -0.51639278218193       -1.51226278387265        1.71847937950244
H           -2.57538362460512       -1.91229216078970        0.49923996387909
H           -0.61009514308669        0.82406119418791        4.40360919134981
H            0.03488710875052       -0.77231774529601        4.03092615698263
H            1.09732845490580        0.48803978789153        4.68178800946905
H            1.15611297477767        2.65811889863347        1.67863838910053
H            0.33821967604469        2.84234982495020        3.24112069740892
H            2.00242866274663        2.26553861497127        3.17253995688092
H            2.44528485140617       -0.99881299130593        3.65716646374026
H            4.22665063383099       -2.16713949086944        2.45650033968054
H            4.17121738181736       -2.25045570863651       -1.98604528038627
H            5.18300193351270       -0.82591910164839       -1.60626242589824
H            6.42684027042534       -2.67078759473805       -2.79432623174881
H            6.14197914635982       -3.71441930062772       -1.38387103564098
H            8.37301639304396       -2.74095108135035       -1.16085013839753
H            7.31393443696099       -1.99203602289437        0.05274649852598
H           10.09855025175856        3.01962926558261       -1.46240184634676
H            9.75527596005403        2.20417405096383        0.07826000120927
H           10.95427281225871        1.53119165185005       -1.00635511284114
H            7.48484622399763        0.98469422884845       -3.12147456424357
H            8.38621252076291        2.58373004988318       -3.12922274841476
H            2.93580057001589       -0.38586145942642       -1.20404350826729
H            1.16293670040233        0.76471463863534       -0.01265449331941
