37
 energy: -53.653855457305 gnorm: 0.000463836015 xtb: 6.7.1 (edcfbbe)
C           -0.60295240856708       -2.60535324201371        0.00229698961345
O           -0.44487809257497       -1.56663094155949        0.93582175751649
C           -0.34694880965891       -0.23684743271619        0.42149071549341
C            0.50126459872748       -0.18951668929491       -0.84845263303989
C            1.96012529655055       -0.13493802191639       -0.66862879122483
C            2.59529283656247       -0.88506913063704        0.31796186035330
C            3.97017079630736       -0.84096674777733        0.45403458599857
C            4.73130659397180       -0.04431990622011       -0.38449816612313
C            4.10771208362129        0.71338328887010       -1.36155578932262
C            2.73371318453440        0.66834059383643       -1.50369250659400
C           -0.05264477062342       -0.24418758446532       -2.05523566582082
O            0.34502348623262        0.52756467156918        1.38127085054388
C           -0.25537207669981        0.58681118159165        2.65688391633842
C           -1.72695710524005        0.37099929033012        0.18606121512723
C           -2.89381959470118       -0.28965268175221        0.53962318983445
C           -4.12400378263763        0.31755878420518        0.34803833585632
C           -4.19591289636899        1.59348542217799       -0.18121825692216
C           -3.03091608178880        2.26808522411371       -0.51019975154534
C           -1.80267023481235        1.66174620341886       -0.32657528048326
H            0.30868384210832       -2.76979070785983       -0.58253163868578
H           -0.81787490746318       -3.49496009036909        0.59376995438307
H           -1.43299281483194       -2.41549559385721       -0.68547492968346
H            2.00907497296093       -1.50406344801275        0.97858426534073
H            4.45142546430768       -1.43091033543505        1.22079246537056
H            5.80537189179493       -0.00892628303573       -0.27379404399990
H            4.69478492202419        1.34491232760467       -2.01297072885534
H            2.24943212594382        1.27472797814151       -2.25516773126847
H            0.55523213365387       -0.26104191603931       -2.94387319322212
H           -1.11862154882138       -0.28252461194328       -2.20239663791170
H            0.43330284196229        1.15987568066584        3.27433728182760
H           -0.38595099460269       -0.41331227900825        3.07604472269936
H           -1.22643476859362        1.09295182126169        2.61924097760995
H           -2.83984311442394       -1.27444486069153        0.97792700457014
H           -5.02722826188569       -0.20849573868907        0.61998450086021
H           -5.15583563415086        2.06619048503625       -0.32878618026985
H           -3.08039006929786        3.27083786883214       -0.90851163043014
H           -0.88966810351997        2.18397742164696       -0.57060103393575
