37
 energy: -53.653856314522 gnorm: 0.000675920952 xtb: 6.7.1 (edcfbbe)
C            0.45068259408881        1.31670540093009       -2.36670896024722
O           -0.23580186049472        0.53096773218335       -1.41685252864795
C            0.36537901310615        0.45370188892039       -0.14540153141717
C           -0.56266195640056       -0.41005958490283        0.70777395352420
C           -2.00341714983788       -0.30598946692762        0.43060735458335
C           -2.59834589616951        0.92065449147027        0.14627559820227
C           -3.95846729676704        1.00117425439999       -0.08754241587090
C           -4.74408486301592       -0.13834415493195       -0.04931248748712
C           -4.15978518466212       -1.36406133380837        0.22259900504125
C           -2.80116374372062       -1.44784906646519        0.46175376611996
C           -0.09164612121023       -1.18203756449134        1.68164442705134
O            0.45142046834355        1.78755165671673        0.36008984416748
C            0.51168694852975        1.94082915184820        1.75573606832321
C            1.74684967022713       -0.18252070123985       -0.27254258352205
C            2.91141501147079        0.52384398990238       -0.01139721310379
C            4.14610903032250       -0.08161974246304       -0.17854436465170
C            4.22606259352449       -1.38915624418844       -0.62283403212716
C            3.06538753361777       -2.08938402412316       -0.91243142557705
C            1.83225193932031       -1.48965708081660       -0.74057103901662
H            0.57999696656884        2.34085593865744       -2.00959373122750
H           -0.17793302781751        1.31104516247107       -3.25485409607599
H            1.43134619671575        0.89026585372594       -2.60559966560078
H           -1.99277954573150        1.81239064663402        0.10888139921539
H           -4.40870571419605        1.95947918119573       -0.30312841599180
H           -5.80615582647452       -0.07343142959316       -0.23624628643020
H           -4.76504140985598       -2.25900850386004        0.24414189929820
H           -2.34648987342454       -2.40844923170622        0.65534785933967
H            0.96045321530347       -1.26973678741952        1.89362733281455
H           -0.75633462537734       -1.75013676704324        2.31002397271032
H           -0.44147951593174        1.69116579720754        2.23484439024457
H            1.30094048020951        1.32733811836088        2.20225394061966
H            0.73416043464637        2.99461916695207        1.92187308926222
H            2.85363171193981        1.55263844540519        0.31000306676850
H            5.04709930715811        0.47485190804095        0.03420988311316
H            5.18951667701784       -1.85987506779363       -0.75281543464940
H            3.12244530494531       -3.10468255725281       -1.27625307687050
H            0.92345951403096       -2.02407847601073       -0.97404356189700
