37
 energy: -53.653852641837 gnorm: 0.000770972624 xtb: 6.7.1 (edcfbbe)
C            0.74016860575042       -1.25418622086277        2.31268085669177
O           -0.06537138698197       -0.92535197706787        1.20169056702671
C            0.38744113557672        0.15910474228888        0.42546214429272
C           -0.64747457823488        0.34810814810089       -0.68254250579813
C           -2.04604215507144        0.04569588160702       -0.34190662303645
C           -2.86446368122470       -0.59484245813924       -1.26999190616040
C           -4.18650863548227       -0.86688977339850       -0.97303727114898
C           -4.71342004225068       -0.50121599935057        0.25427076264173
C           -3.90641415875196        0.13121722716153        1.18477915910569
C           -2.58205392673808        0.40000659018987        0.89364584413145
C           -0.30385470032645        0.80948051627573       -1.88059756232019
O            0.44485052329417        1.29702467045090        1.28849642706997
C            0.34526346646029        2.56411346355433        0.68858438212954
C            1.76099407080221       -0.16825671772434       -0.15408684161728
C            1.87173698691013       -1.24684021736263       -1.02549909298810
C            3.10464114465934       -1.60745750373159       -1.53529761530732
C            4.24010233319897       -0.89732716483809       -1.17798430368361
C            4.13717503829039        0.16293992183846       -0.29551978538313
C            2.90344072824204        0.52193766983914        0.22211679409074
H            0.85147178903354       -0.39946348203564        2.98356865078716
H            0.21483273340919       -2.05908124204172        2.82268678427387
H            1.73169405857587       -1.60016400483082        1.99995351326566
H           -2.45261429006572       -0.89729346708379       -2.22173558360964
H           -4.80740157304941       -1.36985060605567       -1.70037885520452
H           -5.74693716494333       -0.71382826299961        0.48604558435954
H           -4.31190476411731        0.41522621338723        2.14520044912249
H           -1.95861613333737        0.88767980546045        1.62623192844582
H           -1.04618945695048        0.98764862581926       -2.63992783727275
H            0.71583735065622        1.03325809816715       -2.14426797010938
H            0.56536325091637        3.27711041154551        1.48251555428778
H            1.06662609224011        2.69055362917270       -0.12503878045996
H           -0.66120343820812        2.75331736448310        0.29955305321610
H            0.98403640775745       -1.80168324024472       -1.28973093898861
H            3.18177213526450       -2.44726183537844       -2.21004523053516
H            5.20289825393797       -1.17711456551431       -1.57985164022858
H            5.01982109840720        0.71139357970006       -0.00129215838378
H            2.83030288235101        1.33229117961163        0.93125304728639
