47
 energy: -73.488533614478 gnorm: 0.000500161553 xtb: 6.7.1 (edcfbbe)
O            4.96513463961749        1.77594319011636       -0.75079495778816
C            6.30907701006591        1.66420398712730       -0.36775158469799
C            6.55396153355122        0.64368208430457        0.74069904992914
S            6.27342552906583       -1.07009208528541        0.16866912439060
C            4.52131210090606       -1.11775745674488       -0.07648891191811
C            3.62354053461211       -0.60198914295388        0.85185395421827
C            2.26774746193329       -0.69353403290611        0.62841673117136
C            1.76622462348790       -1.31811324010714       -0.51925193151172
C            0.35457711167990       -1.44582523342490       -0.78983843209026
C           -0.66516079516861       -1.00500684002323       -0.03211719120027
C           -2.04178653368022       -1.25186082487853       -0.44329156886768
C           -3.14030062494133       -0.61294283984574        0.44164972516489
O           -2.61955140048400       -0.41066116846743        1.74161418046683
C           -3.51640854538458        0.22174581109329        2.63408046319889
O           -4.31057665609754       -1.38228832315843        0.47917461496475
C           -4.13362748995663       -2.72347999444992        0.89572147226630
C           -3.43664655246799        0.69293147330017       -0.28133484836793
C           -2.58902892502106        1.78042845521370       -0.10856809482691
C           -2.82917867925291        2.96061663688287       -0.78844155160461
C           -3.90741501846904        3.05815951142524       -1.65168915137470
C           -4.74424848192952        1.97009233779031       -1.83381982804362
C           -4.51026947101586        0.78746766799858       -1.15502901799078
O           -2.35423089097096       -1.87728741186538       -1.43504407875635
C            2.68480242558398       -1.85380958692570       -1.43007310028288
C            4.04142450685276       -1.75796719660316       -1.21390316400198
H            4.43626824873768        2.05307478528936        0.00613682608925
H            6.70326011722045        2.63790726868300       -0.03614900347526
H            6.84562370431699        1.36189495482211       -1.27014027043829
H            5.92827404722991        0.84002582605120        1.61118181786789
H            7.60022541735508        0.66452668762767        1.04132612278336
H            3.98203426715868       -0.14001986817209        1.76042131284976
H            1.58607932716724       -0.28801528471825        1.35990452573644
H            0.09308630178687       -1.95871934503685       -1.70861700060486
H           -0.52670039963843       -0.49105522040420        0.90345619067369
H           -3.71678765881383        1.25355856438223        2.32833406648023
H           -4.46331895192107       -0.32104558355571        2.69099383344384
H           -3.02476172542709        0.21070785852205        3.60494003600436
H           -3.66865853443539       -3.32243584263423        0.10838629713139
H           -5.13295418753651       -3.10234912882282        1.10157383932931
H           -3.52243767911085       -2.77713917010760        1.80180348478468
H           -1.74782408448113        1.70130090898787        0.56417822247597
H           -2.16999952474085        3.80453141696368       -0.64612284078748
H           -4.09202815175869        3.97973467071477       -2.18398233305221
H           -5.58288996540765        2.04087503496663       -2.51051005191228
H           -5.15232976611980       -0.06722417971475       -1.29035575270528
H            2.31928137076325       -2.34378611009640       -2.32047577460714
H            4.74376041513087       -2.16900302137166       -1.92247145054332
