47
 energy: -73.489563312776 gnorm: 0.000418550554 xtb: 6.7.1 (edcfbbe)
O            6.63964402045879       -0.53098582021683        3.25722995348171
C            6.29971394031034       -0.58195533401385        1.89645472827252
C            6.10273252983117       -2.01655368298898        1.40841448254124
S            5.81164087430459       -2.07744531935431       -0.38702539228743
C            4.24433391178417       -1.29980172770944       -0.61513800776275
C            3.26513649712686       -1.20483517492338        0.36830685687630
C            2.05832120287415       -0.60004517519368        0.08898688522932
C            1.78632107293611       -0.07388975863398       -1.17784530871739
C            0.54198810722736        0.57809227615898       -1.50800199152797
C           -0.55237398788234        0.68934928649283       -0.73618583945415
C           -1.72752020098727        1.41060995552024       -1.22162616432026
C           -2.89476653155778        1.44455100517095       -0.20375280118873
O           -3.77471245472200        2.46199510736141       -0.59822111258160
C           -4.99847350497985        2.49158772772904        0.10731618652236
O           -2.44666822206464        1.63041902045455        1.12270819321129
C           -1.77983184594075        2.85826326008496        1.33876510548991
C           -3.49909552381581        0.05498820341066       -0.33552281730920
C           -3.39513701395138       -0.88950781705475        0.67473091195026
C           -3.94148957996335       -2.14891395644384        0.49704344968672
C           -4.58645987905371       -2.46999131741142       -0.68501382044052
C           -4.68864796244585       -1.52672530471820       -1.69472896527956
C           -4.14372001266417       -0.26785851996270       -1.52435187335116
O           -1.83459066792515        1.88048233436614       -2.33082191336272
C            2.77839990320173       -0.18831646070792       -2.16054839795949
C            3.98363994000994       -0.79232950181052       -1.88770494671975
H            5.91237446589839       -0.88019411824462        3.78466878398105
H            5.39713109729054        0.01212993549245        1.69132503310577
H            7.13852457178258       -0.12849896285527        1.36338203340505
H            7.01618792563058       -2.59205918869391        1.55862137646427
H            5.28509614484019       -2.51853126820587        1.92824564903928
H            3.43090387701735       -1.60988356801220        1.35451395793683
H            1.31542057430729       -0.53304807437866        0.86843035365078
H            0.48814860655348        1.02484096382629       -2.49444444095579
H           -0.62012166943039        0.27202523018985        0.25608503339921
H           -4.83085242442465        2.51149605567744        1.18857269426180
H           -5.62151742435623        1.62576396580651       -0.13968362239185
H           -5.49788479507606        3.40576867468707       -0.20649175707125
H           -0.80625343571059        2.87344254432807        0.83619987120099
H           -1.64106031582914        2.93702139934679        2.41545736067411
H           -2.37603636143903        3.69992634977680        0.97801979997507
H           -2.90134011715541       -0.62683143400726        1.59672093001124
H           -3.86302979340162       -2.88198352584183        1.28656074092860
H           -5.00891016452412       -3.45473258741110       -0.82030163978267
H           -5.19062865577182       -1.77330617864070       -2.61845728992087
H           -4.20882510778688        0.47653949248916       -2.30417903543686
H            2.59087184081165        0.20666245942575       -3.14799911194774
H            4.74341854864714       -0.87772647031354       -2.64926412150905
