22
 energy: -34.614500620711 gnorm: 0.000686992599 xtb: 6.7.1 (edcfbbe)
C            3.60171226450198       -0.10303990379666        1.07956267197509
C            2.59577027319245        0.11066835388839       -0.00587301920175
C            2.90619708675752        0.37035632738121       -1.27137098186550
C            1.17946947389336        0.04826483742966        0.44982899549333
O            0.84391150149958        0.07021121079250        1.60676070361628
O            0.32463144645394       -0.05278309175125       -0.58629047735145
C           -1.04768499442546       -0.05769899162015       -0.37117229396005
C           -1.79549316845641       -0.96889806361776       -1.10593762982924
C           -3.17114605951399       -0.98830651411410       -0.97170465407820
C           -3.79895194589134       -0.10643383614012       -0.10735738902004
C           -3.04709571613466        0.80238724816381        0.61674273549984
C           -1.66947634341607        0.83653914348644        0.48772051554204
H            3.35010804153892        0.51578592590210        1.93894201781758
H            4.60406494243540        0.13440766451440        0.73472649976496
H            3.57396098050529       -1.14125243802772        1.40992486221771
H            2.14854069791422        0.52737032026955       -2.01924308072386
H            3.93183189520548        0.43743343828248       -1.59398972399414
H           -1.28794730210694       -1.64972985439278       -1.77162986252011
H           -3.75316109528316       -1.69773787744489       -1.54029091794552
H           -4.87290119335415       -0.12749304539097        0.00051152413268
H           -3.53321863439838        1.49467588990606        1.28768530696223
H           -1.08312215091751        1.54527325628005        1.05055319746825
