22
 energy: -34.614488554281 gnorm: 0.000644658748 xtb: 6.7.1 (edcfbbe)
C           -3.53917918977850        1.03737878603737        0.89685480185884
C           -2.59447487951584        0.09400917906833        0.22429365199562
C           -2.97265886098116       -0.90404062152237       -0.56683790477179
C           -1.15967997605786        0.32968445853495        0.54520671094065
O           -0.77764500875567        1.01978976657752        1.45596662677654
O           -0.34467664893522       -0.30648598492757       -0.31881565280940
C            1.03397089443720       -0.24801460410980       -0.15843760658348
C            1.79132080379278       -0.02918435325839       -1.30193967079291
C            3.17052079454921       -0.00872989304231       -1.21324171164989
C            3.79250594609918       -0.20249038893326        0.00928690336254
C            3.03087389865672       -0.42471692889929        1.14309359177580
C            1.64897826563464       -0.45243740910259        1.06761480507340
H           -3.40571427970690        2.04260335615188        0.49873247316912
H           -4.56971943998124        0.72852131227030        0.74849631415888
H           -3.31620733274164        1.08033795295997        1.96116535300215
H           -4.01314106948174       -1.08664431680569       -0.77825637673879
H           -2.25942031857518       -1.56862653446319       -1.02152998045779
H            1.28793352962345        0.12217309943022       -2.24426863014396
H            3.76015159096720        0.16367494588518       -2.10106256093350
H            4.86976083214567       -0.18106096834429        0.07685340414365
H            3.51210791045697       -0.58013643025958        2.09689491388472
H            1.05439253814797       -0.62560542324757        1.95022254473994
