47
 energy: -73.489814436349 gnorm: 0.000261024120 xtb: 6.7.1 (edcfbbe)
O           -1.41169743605765       -0.84217277718010        2.54524637222062
C           -1.24113372333277       -0.92553025763758        1.34737064765615
C           -0.01011589063242       -1.69388851966873        0.80221816884378
O           -0.25292014300828       -2.05492136776288       -0.54191462261053
C            0.81738444589129       -2.74069632272858       -1.16484587593168
O            0.29620513933714       -2.81696520821165        1.58381185066787
C           -0.76446223631165       -3.73924311463595        1.74928225997804
C            1.11860534152945       -0.68591426728461        0.94575217144972
C            1.91720017104740       -0.68238998593507        2.08155884789274
C            2.93758404243729        0.23950730939834        2.20606499110284
C            3.16162139480415        1.17144261631882        1.20082413288104
S            4.49510641681115        2.32549983406027        1.41404491743545
C            5.25349170024558        2.33585246775969       -0.24327084896082
C            5.73862029918019        0.94306911585280       -0.63735268346337
O            6.34031306927719        0.93335599295411       -1.90622631976335
C            2.33554887418139        1.20141754711751        0.08629194428592
C            1.31843002395575        0.27499396318887       -0.03804608498553
C           -2.11357608103414       -0.31417359871235        0.35154468741527
C           -3.21700386175697        0.34448508705978        0.74439567245364
C           -4.21809490349751        0.96493582804665       -0.09473625748114
C           -5.30205304236443        1.60733036907485        0.51326522232405
C           -6.28884993339368        2.20485066068123       -0.24557638624169
C           -6.21456213142651        2.17376730084850       -1.62904236164348
C           -5.14637830038362        1.54144189878201       -2.24711986228791
C           -4.15794479180348        0.94287505540556       -1.49184275894599
H            1.68720459486811       -2.08836827702757       -1.28993035105529
H            1.11365863860092       -3.61791339567238       -0.58452099837698
H            0.44291827022340       -3.04974883433342       -2.13859572634050
H           -1.22958170128352       -3.98227380989783        0.78899791125163
H           -0.31302456136900       -4.63208391173594        2.17756150541718
H           -1.52428532780394       -3.34882818058410        2.43147153035312
H            1.73946030502886       -1.41512536568324        2.85095807038537
H            3.57121842466629        0.24216931704794        3.07936524322006
H            6.09151998785705        3.02937040474415       -0.15686642818511
H            4.54674294942172        2.72657453720842       -0.97448446828969
H            4.88929838356594        0.25820992446255       -0.70803122309626
H            6.42497722535036        0.56504123101245        0.13321514998746
H            7.13724420635334        1.47504689051771       -1.88289678996815
H            2.47633441203915        1.94414369366524       -0.68384039528868
H            0.67802317429532        0.29475203455497       -0.90738303039258
H           -1.84747772975874       -0.46144491229456       -0.68096156856122
H           -3.38576068093628        0.41760666169938        1.81328765168043
H           -5.36212296993298        1.63201894000150        1.59174268361290
H           -7.11939119155613        2.69568569807209        0.23994079098467
H           -6.98606677528310        2.63943995006817       -2.22401879228496
H           -5.08790356885761        1.51590823510565       -3.32545951741688
H           -3.33430250915499        0.45088754237090       -1.98499007195788
