47
 energy: -73.489678689872 gnorm: 0.000413362874 xtb: 6.7.1 (edcfbbe)
O           -1.04552616907973       -1.73864373363123       -2.19152882114058
C           -0.98724926434950       -1.63367316181375       -0.98878878349188
C           -0.04264872315458       -2.51229586063543       -0.12969387209817
O            0.36475427417290       -3.59884204402463       -0.91589370414897
C            1.38127151104107       -4.39347344615593       -0.33994894055095
O           -0.65553022104326       -2.93569217400384        1.06933164865038
C           -1.81169050483452       -3.72659109520245        0.87427991450166
C            1.09741763090133       -1.56449165893616        0.20445158500521
C            1.32778461698804       -1.11551231606443        1.49787516253505
C            2.34846417362488       -0.21990780937133        1.74541949180335
C            3.15013687066887        0.23700831120907        0.70431925109374
S            4.44715385377823        1.36299148916892        1.13714623506683
C            4.72929009695875        2.32242689422273       -0.38300037153404
C            3.50140090540693        3.14792318043339       -0.76260684312119
O            3.71452787562241        3.89714114496930       -1.93054612312251
C            2.93382384963800       -0.22512676368218       -0.58713707017885
C            1.90577208111496       -1.11436523402800       -0.83282771045325
C           -1.70433959421776       -0.62856078593387       -0.20454184352947
C           -2.53092682719881        0.24133985680846       -0.80643919493297
C           -3.29788197244235        1.29847636023084       -0.18410299286677
C           -4.15552953978210        2.06652400833393       -0.97852768131002
C           -4.90522364018438        3.08804360940318       -0.42966355610968
C           -4.81198723555827        3.36679920198824        0.92455909458540
C           -3.96415523904890        2.61645655570838        1.72507005498908
C           -3.21462979976583        1.59305483462866        1.18041382862835
H            1.48822110825283       -5.25616800105208       -0.99392722847621
H            2.32966191505015       -3.84864971690531       -0.28693005346341
H            1.10357801826531       -4.72124020195895        0.66638490789732
H           -1.61414921337297       -4.54792331613779        0.18108469830326
H           -2.07179268765557       -4.12197068850412        1.85422763839942
H           -2.64020584269500       -3.12495476591196        0.48470123824796
H            0.70857719161335       -1.47655917358968        2.30314877744503
H            2.53603343480777        0.13483744362020        2.74732335810916
H            5.02841626533547        1.65810763088092       -1.19337913671407
H            5.57055394981921        2.97334950579939       -0.13686707351562
H            3.22380088779746        3.79459943503737        0.08204603584971
H            2.65701698473186        2.48972991612368       -0.98377016193898
H            4.42199829642664        4.53345726418007       -1.77570419893492
H            3.55555616727499        0.09794403722083       -1.40688170634236
H            1.72403942313461       -1.47230370053227       -1.83542715044714
H           -1.52643347463873       -0.63435287746431        0.85929145311354
H           -2.63765553868849        0.14778408917203       -1.88157354504187
H           -4.22886630085299        1.85122932601144       -2.03477305172491
H           -5.56328510766974        3.67083926870761       -1.05715215366579
H           -5.39587943256549        4.16666544018251        1.35501848161581
H           -3.88829589485876        2.83421696910918        2.78036604785213
H           -2.55536615879719        1.02035175237402        1.81388006515004
