39
 energy: -57.211330893026 gnorm: 0.000543705511 xtb: 6.7.1 (edcfbbe)
C            6.48455615121573       -0.14717371575567        1.58545742775506
C            6.55798809562311       -0.10864661685287        0.06043077889747
O            5.88662253335593       -1.17138974440647       -0.58956239269651
C            4.50215636693121       -1.28040948112460       -0.37142157534801
C            3.67693964028444       -0.13416520008671       -0.96896772444579
O            2.31780304390962       -0.44265173645263       -0.76401521474234
C            1.44680600022672        0.56045959888693       -1.22912092197015
C            0.02307358930647        0.16730434347366       -0.84832568485054
O           -0.82101194841947        1.26696090725397       -1.11857949955201
C           -2.19200976131127        0.99870898976129       -0.97415927536646
C           -2.62696989852502        0.86976789852877        0.49631081278695
O           -4.04159754140807        0.90693908331672        0.61848649140966
C           -4.69922560914007       -0.23033548677240        0.33490194063085
O           -4.14483795538535       -1.24183922040500       -0.02078203965743
C           -6.16954394027691       -0.10879325594476        0.52311811721039
C           -6.94992067843564       -1.30810022769035        0.08870097626006
C           -6.71274858123732        0.98344625452469        1.05011460906449
H            6.74999909620192       -1.13803488640833        1.94564897203329
H            5.48771606398437        0.10194124338655        1.94100303877650
H            7.18455062745443        0.57559046586565        1.99554614295914
H            6.19476601673080        0.86176923877347       -0.30571297929297
H            7.59610558157128       -0.22741511921558       -0.26076508506974
H            4.20902537335095       -2.21046887291365       -0.86349535717410
H            4.26288273788598       -1.36759905918336        0.69538058065097
H            3.89904365044652       -0.03323738753883       -2.04212137469048
H            3.91921239386951        0.82071261534917       -0.47677349996087
H            1.53151326430632        0.67906364538604       -2.31886979413994
H            1.68253609532711        1.52860329962870       -0.76219428467264
H            0.01240321095120       -0.09458563307878        0.21747783360828
H           -0.29255703266334       -0.71344884946260       -1.42305170617181
H           -2.70756914182720        1.85434196071227       -1.41968277776574
H           -2.47271242563162        0.08482843395042       -1.51578149333923
H           -2.25475050456476        1.72132192414284        1.06938256290946
H           -2.25393520726100       -0.06764755490999        0.92194699406611
H           -6.86260303298501       -1.43501708185381       -0.98946999022054
H           -6.53828434076731       -2.20268030819748        0.55182414633887
H           -7.99801914700649       -1.20691917936872        0.35412523010822
H           -6.11044345227111        1.82209958258916        1.35100666549829
H           -7.77696133381905        1.06669713209697        1.19405435016261
