24
 energy: -32.400318953761 gnorm: 0.000400191177 xtb: 6.7.1 (edcfbbe)
C            2.70363835625289       -0.36605395741491       -0.71068532738617
C            2.20753344809139        0.70544848476652        0.20544701623725
C            2.98844545355782        1.60072140436407        0.80027926997552
C            0.73849090237514        0.76825004263581        0.46701670977481
O            0.21869589585362        1.62066895613871        1.14821311338625
O            0.10047613077770       -0.22812933831621       -0.14400291234020
C           -1.33521350189990       -0.38271443997967       -0.04146021073506
C           -1.63417457980035       -1.63198807533807       -0.87153958944066
C           -2.04051710242602        0.83673951378798       -0.63447370368003
C           -1.74209371145134       -0.59799465339793        1.41610774682295
H            3.78355253794782       -0.30761962590892       -0.81638718088660
H            2.43296847563318       -1.34662635798476       -0.32320147485863
H            2.24159880773011       -0.26410100436326       -1.69106900382511
H            2.56242429525700        2.34700923810320        1.44936364153839
H            4.05574238725450        1.61566703601711        0.65984330735962
H           -2.70092640030070       -1.83475988761529       -0.86852892965527
H           -1.10899890740441       -2.48917358651307       -0.45832737555741
H           -1.30353391075200       -1.48649718426040       -1.89662853138566
H           -1.81659170954086        1.72376830263461       -0.04834173126427
H           -3.11466252147562        0.67435284236835       -0.63257816776991
H           -1.70961584878930        0.99912241864541       -1.65831903212075
H           -2.80719619253871       -0.80438265664298        1.47123470980943
H           -1.52329169474552        0.28913712641304        2.00379150225620
H           -1.19675360960660       -1.44084759813880        1.83599115374532
