24
 energy: -32.399532755357 gnorm: 0.000297718065 xtb: 6.7.1 (edcfbbe)
C            3.32467375982349        1.01440939720515       -0.03392707151513
C            2.26316188823506       -0.03877533587058       -0.02059210400168
C            2.51001185407265       -1.34339676267966       -0.01092775666387
C            0.86523588106915        0.48894108329033       -0.05941494389571
O            0.60344464396600        1.62817939748518       -0.36693279411726
O           -0.02257706991131       -0.44311125076689        0.27856567456301
C           -1.44504805252984       -0.16518604768320        0.28006796666112
C           -1.90981907631874        0.20924642060529       -1.12704499527558
C           -1.76834319840427        0.94444958589205        1.28014606879239
C           -2.07943770278932       -1.48491649976588        0.72127878153722
H            3.08006796459822        1.76832860586746       -0.77928673532732
H            3.36175446455071        1.51436859228478        0.93362711267174
H            4.29908949608725        0.58483837995695       -0.24793716443497
H            1.71546655675018       -2.06835401619788       -0.00941560895041
H            3.51843652332109       -1.72324937919793       -0.00774437778146
H           -2.98979593093562        0.32715596312328       -1.13544320510952
H           -1.45088201349542        1.14282847183838       -1.44050236095965
H           -1.63390791144222       -0.57229280960637       -1.83209394401653
H           -1.37469507946516        0.68828618938969        2.26164312613618
H           -1.32692291882309        1.88375865101052        0.95902542689536
H           -2.84540968512121        1.06705842351056        1.35299952897364
H           -1.72214960814068       -1.75730758512530        1.71090906604519
H           -3.16064501756402       -1.38780148926172        0.74810988298102
H           -1.81170976753278       -2.27745998530399        0.02734642679212
