24
 energy: -32.400319213165 gnorm: 0.000750756998 xtb: 6.7.1 (edcfbbe)
C            2.75605546340216       -0.44984292499732        0.39501579506478
C            2.18392997548650        0.20926836142620       -0.81806480698924
C            2.90877925204214        0.65246312652102       -1.83955863312621
C            0.70133380118870        0.37752747154315       -0.88313923615339
O            0.13114270991913        0.90824350668875       -1.80725697635949
O            0.11364886073676       -0.13110320631691        0.19801255645380
C           -1.32449999372628       -0.09872752974323        0.36219977325402
C           -1.56022516026305       -0.78220641585675        1.71001093010870
C           -2.00087128747869       -0.88359947224690       -0.76143603539349
C           -1.82091868829146        1.34619641171557        0.40012527940081
H            2.32708690180236       -1.44194661613871        0.52115870383056
H            2.51182073383962        0.12709570686186        1.28564817812052
H            3.83679990013637       -0.53383048120139        0.30917466540893
H            3.98145705938177        0.56463338204888       -1.86437424914666
H            2.42922594008629        1.11952516595592       -2.68317640940986
H           -2.62151155332768       -0.79657814849636        1.93938527388357
H           -1.03442403410452       -0.24689832212376        2.49639645572339
H           -1.18959431485256       -1.80352785933040        1.68087895856040
H           -1.58841115754029       -1.88912425583183       -0.81470592566920
H           -1.84307181443982       -0.38942562432768       -1.71608685970240
H           -3.06773638415112       -0.95057960768544       -0.56987781084253
H           -1.62994538175197        1.83550922004094       -0.55082548958657
H           -1.31063051125800        1.89700277269696        1.18776553763805
H           -2.88943931683633        1.35992633879742        0.59539132493192
