18
 energy: -26.062614001924 gnorm: 0.000920469526 xtb: 6.7.1 (edcfbbe)
C            2.76492439308256       -0.27440522571101        0.48440363600951
C            1.94444415476672        0.92948630035449        0.04218400871484
O            0.56751158794004        0.78140092456962        0.38732757612103
C           -0.18735650903803        0.04756240280218       -0.44072378611344
O            0.23464574688413       -0.47086607684379       -1.44601772238272
C           -1.60537686366080       -0.04809908418860        0.00717197156212
C           -2.42261162227716       -1.05474736595299       -0.73731926960754
C           -2.07963140316991        0.72692863980684        0.97614485332961
H            2.63857103399383       -0.44368927339397        1.55104433107471
H            2.44162901390485       -1.16100435196388       -0.05535404650530
H            3.81540005002813       -0.09682004686314        0.27313917434030
H            2.02652402608684        1.06413303752496       -1.04144947917764
H            2.26826112128148        1.83671659538774        0.55688093154676
H           -3.47683080990537       -0.95770973995954       -0.49422202189546
H           -2.08958109692085       -2.06108775265219       -0.48465024475538
H           -2.27704419882838       -0.92630325213367       -1.80783729807273
H           -1.45477396038576        1.44158007411566        1.48185334150613
H           -3.10870566378236        0.66692519510099        1.28846904430553
