18
 energy: -26.062004957013 gnorm: 0.000487260029 xtb: 6.7.1 (edcfbbe)
C            3.03225017626246        0.67985982159403        0.17560151646442
C            1.98310418973715       -0.41546941164027        0.15138812970653
O            0.69735605862505        0.19388559379451        0.03652680791377
C           -0.34925216180990       -0.64048913859224        0.01972509563985
O           -0.23521620937276       -1.84043358135406        0.10076432343925
C           -1.65463419697065        0.06451232965789       -0.10779069674304
C           -2.85042297953346       -0.82599956690682        0.00385942806520
C           -1.71696829925321        1.37502928766606       -0.31627262644163
H            2.85331985823522        1.34984385269773        1.01220904762383
H            2.99466783348901        1.25582363453457       -0.74502702431444
H            4.01886042634107        0.23783575877113        0.27851068406894
H            2.13080155090433       -1.09254228077296       -0.69792309196345
H            2.00965102483925       -1.01483760940638        1.06877407064792
H           -3.76627982075894       -0.27333439086527       -0.18307721117317
H           -2.76527241197336       -1.64622775419952       -0.70624446897597
H           -2.89124122580710       -1.26643951236851        0.99888208418780
H           -2.66212223880078        1.88247882019603       -0.41652576015654
H           -0.82860057415339        1.97650414719408       -0.39256130798941
