47
 energy: -74.312642568005 gnorm: 0.000633147469 xtb: 6.7.1 (edcfbbe)
O           -1.27607400567076       -2.27552843730656       -1.88027649322418
C           -1.18328943552134       -1.83506669043389       -0.75827988246519
C           -0.13525667503949       -2.36342667956610        0.25111458988312
O            0.31247611706665       -3.61091151648341       -0.20705363643798
C            1.41485007515216       -4.13667875312415        0.50302021301693
O           -0.65140908769836       -2.44646999143271        1.56270519579676
C           -1.74799345964785       -3.32931354657363        1.69370498823893
C            0.94413111076670       -1.29360229988831        0.20966892199219
C            1.68249610762139       -1.14280191818457       -0.95544007904331
C            2.65613016941649       -0.16547594498721       -1.05617756876800
C            2.89656744704840        0.68557983039822        0.01775099900404
O            3.81967287621608        1.68629110308475        0.03187700985048
C            4.58793869556260        1.91366473094915       -1.12838884902083
C            5.50915364245161        3.09734854883588       -0.84548823023980
O            6.26486749945787        3.33856317870542       -2.00951914890934
C            2.15255718743416        0.53094521516297        1.18905547043160
C            1.18541159853649       -0.44608524600558        1.28370315361329
C           -1.96019028581829       -0.70774018989514       -0.24125845687795
C           -2.92756021753548       -0.14707851488970       -0.98338774011291
C           -3.78062118757206        0.96292705979682       -0.61508919685634
C           -3.59610046238014        1.70110479999040        0.55803310280171
C           -4.43642737384457        2.75221856317745        0.86608740164742
C           -5.47817893722537        3.08898077043891        0.01534752745039
C           -5.67244932058655        2.36927149855250       -1.15266848947713
C           -4.83104274962316        1.32008048722422       -1.46638838432448
H            1.55665211565612       -5.14619480782281        0.12329165411490
H            1.21298343095440       -4.16796729664290        1.57794052514365
H            2.31870333585153       -3.54400696477037        0.32870035078272
H           -1.92919287301572       -3.42376327633270        2.76258588307720
H           -2.63994650329643       -2.92754035938167        1.20022979060818
H           -1.51861977728449       -4.30876429730395        1.26651291453338
H            1.48790368588881       -1.80068579267535       -1.78908020856807
H            3.21384905347292       -0.07487025386289       -1.97411640932332
H            3.94747503831423        2.15525976244767       -1.98605463427426
H            5.19740945829679        1.03617341182085       -1.37888157173968
H            4.89812843421810        3.97050702752070       -0.57929381162641
H            6.15743636381895        2.85284140518673        0.00684151949263
H            6.85233489055992        4.08495007057412       -1.85248781767485
H            2.35498918248304        1.19486665675567        2.01450625884920
H            0.61957304252474       -0.56936731425967        2.19305486412155
H           -1.71657694696590       -0.37674966313265        0.75577933500616
H           -3.09958966098070       -0.57288119822326       -1.96565555577504
H           -2.78440126871787        1.45442716092491        1.22451281012045
H           -4.28003424948487        3.31551511696543        1.77447046274951
H           -6.13381962680508        3.91100021567170        0.26124700548190
H           -6.48099839200794        2.62981614727646       -1.81967381279279
H           -4.98391606204552        0.76063719171552       -2.37807997026802
