46
 energy: -68.497462762318 gnorm: 0.000682093808 xtb: 6.7.1 (edcfbbe)
C            1.77397310568037        2.29743639483661       -1.24813270813132
C            2.42143720102618        1.01796292223382       -0.81171129529802
C            1.66746391921435       -0.15371780769251       -0.73379266338914
C            0.22920423317458       -0.12639555553544       -1.04736820702232
P           -0.78084234814989       -0.07493921027931        0.54210284479654
C           -2.03703109773766       -1.38822117852534        0.40193454554546
C           -2.58252119620449       -1.80809857676464       -0.80347761224414
C           -3.54115124225724       -2.80590485339129       -0.80379910893940
C           -3.95400278394030       -3.37926501162130        0.38791237867982
C           -3.40104778204226       -2.96483931868474        1.58895161522800
C           -2.44019549931947       -1.97057822123217        1.59612352158040
C           -1.69162221514294        1.48749250162233        0.32112185363785
C           -2.51417679381298        1.73818935608252       -0.76917358391976
C           -3.14736132198885        2.96301416853031       -0.87414222948179
C           -2.96195009538096        3.93167138115301        0.10038498610847
C           -2.13920279471790        3.67991544341867        1.18620423162030
C           -1.50167914774432        2.45732453919467        1.29607898612624
O            0.01627729060929       -0.11351701621505        1.77355284628615
O           -0.28268896425682       -0.06702968682805       -2.13442607624555
C            2.23415824844369       -1.34756112703043       -0.28466530358598
C            1.38963945928444       -2.58198297179201       -0.21762888260661
C            3.57486979383010       -1.35914327148995        0.06089787207971
C            4.34867686813739       -0.20834869858783       -0.01263355631896
C            5.78884410429363       -0.23465480135070        0.39902130200754
C            3.75740286200467        0.96987548705821       -0.44746081515377
H            1.29396265317093        2.17464165467661       -2.21778770318903
H            1.00458260427262        2.59040570484980       -0.53138692132774
H            2.50596791773245        3.09795869997134       -1.31755777249499
H           -2.24820449718043       -1.37406278963162       -1.73358380940671
H           -3.96720053904986       -3.13892868467435       -1.73894955372694
H           -4.70531872947342       -4.15525057596801        0.38041381361367
H           -3.71850945332012       -3.41691172261570        2.51679730134438
H           -1.98406570208024       -1.63664250413842        2.51725861412309
H           -2.64930289270309        0.98635573627796       -1.53084938053095
H           -3.78777730946930        3.16504623357444       -1.72024346369799
H           -3.45935542426011        4.88632740695420        0.01094934442055
H           -1.99339770326388        4.43587612668982        1.94384970917135
H           -0.85050983984828        2.23426109534633        2.12940058032102
H            0.54031238753914       -2.41343337067966        0.44805047482328
H            1.96210025152720       -3.42561504703000        0.15945821932006
H            0.99802653760404       -2.83661311677423       -1.20274423240532
H            4.02401112813286       -2.28098570610753        0.40199016121637
H            6.25114146867630       -1.18213484857485        0.13148086964438
H            5.86572964622322       -0.11726851368372        1.48027952557629
H            6.34286539153508        0.57502395595765       -0.06957361867236
H            4.34846830123836        1.87326237845234       -0.49945709946055
