15
 energy: -22.894641825744 gnorm: 0.000585188995 xtb: 6.7.1 (edcfbbe)
O           -0.81099679958745       -1.15842686582017        0.83367194719334
C           -0.41812478822381       -0.28597691648591        0.09816138995811
O           -1.24650115242109        0.49528251219291       -0.61334453244668
C           -2.63132878867273        0.22832594927176       -0.45612782578699
C            1.01727002617451        0.04153677549250       -0.11917552318444
C            1.40102020510376        0.85956500030520       -1.09302381284503
C            1.95633635830389       -0.64121077412328        0.82305542532019
H           -3.15301738999408        0.94773719508240       -1.08211294663672
H           -2.92440066649304        0.34523241910421        0.58949307155559
H           -2.86012460333850       -0.79226059866357       -0.77071188857223
H            0.68967124476428        1.32494434401111       -1.75200123121539
H            2.44151344300368        1.08547229872265       -1.25743709565156
H            2.98926248015247       -0.46642299486041        0.53842102699337
H            1.75321962750798       -1.70980088945935        0.83296797899824
H            1.79619780371992       -0.27399645477035        1.83543801632027
