15
 energy: -22.895406285198 gnorm: 0.000754412717 xtb: 6.7.1 (edcfbbe)
O            0.89822985409154       -1.65471280616494       -0.33555164730522
C            0.40335881651277       -0.57342127822803       -0.13080910611616
O            1.11341969404159        0.56594555741996       -0.12596548101685
C            2.50147423447859        0.43331924949626       -0.38013808466793
C           -1.03914301760081       -0.33433702093798        0.14252110777728
C           -1.85728250085459       -1.38195617654326        0.15857434520142
C           -1.47107391485299        1.07570740054432        0.38391409314145
H            2.97313088978497       -0.18022589829888        0.39034187919284
H            2.91054130608150        1.44040851680636       -0.36946969819135
H            2.66717740811496       -0.03908835259121       -1.35074448064974
H           -2.91159943829909       -1.28099338081311        0.35021519183052
H           -1.47659990868164       -2.37324722546597       -0.01998294299412
H           -2.54619931728088        1.12439573182754        0.53431541060656
H           -0.96840322708953        1.47586584013381        1.26305481446882
H           -1.19702987844639        1.70233984281516       -0.46229540127752
