51
 energy: -94.671957542819 gnorm: 0.000991755693 xtb: 6.7.1 (edcfbbe)
C            7.39368034647799       -0.22693012386300       -1.03166139006155
C            7.03641379775630        0.45348379870996        0.04771177954675
C            5.64057087764449        0.80727266533575        0.37771089225697
O            5.30719359815840        1.35036333255824        1.40055406073199
O            4.77300035792759        0.45990265349324       -0.59214369401210
C            3.40946755991833        0.77882041862250       -0.37355554893647
C            2.78044850182264       -0.14489302889274        0.67967372947981
N            1.32827420676522       -0.16828358900066        0.56720723566503
C            0.74549770554797       -1.25560589126622       -0.05605032010614
O            1.38534373976196       -2.17400943046535       -0.49787245617389
N           -0.63380787135405       -1.20753487655091       -0.14287550624525
C           -1.30308083658501       -2.33066206214942       -0.78316629242021
C           -1.59915503199985       -3.43600656689729        0.22797851254747
O           -2.25204091214532       -4.48937990633664       -0.46317482896842
C           -2.65660209725686       -5.52118022952173        0.29906551358168
O           -2.48484244300597       -5.56110635456047        1.49186461519396
C           -3.32469324532575       -6.58453322736340       -0.47825919805341
C           -3.49973159191324       -6.54530706896309       -1.79096177416527
C           -1.42926140842156       -0.20025908416360        0.37175578041564
O           -2.62956983571149       -0.21942751670533        0.29134846085927
N           -0.73913971905187        0.83111053149570        0.97810289117111
C           -1.51689745711101        1.94460269511536        1.50217305147397
C           -1.71749703183679        3.01624733389950        0.43311616994185
O           -2.50461137342081        4.05234871485230        0.99830059315958
C           -2.84288457228833        5.05355901781102        0.16499747011939
O           -2.51081524080977        5.08974993363208       -0.99249698347600
C           -3.65781461103372        6.06448091752095        0.86780654617449
C           -4.10435798595752        7.14301267181837        0.24075004244763
C            0.63933372992047        0.92190039632706        1.06469644874346
O            1.19372311906138        1.87189315028338        1.54886716769385
H            8.42417179839876       -0.46893624635937       -1.23127905640308
H            6.66341198051642       -0.55994298509365       -1.75070003195277
H            7.75400552081961        0.79134068372775        0.78146495638175
H            2.92429771654968        0.63436452750212       -1.34161680104885
H            3.31665793321894        1.82097193581664       -0.05071447433832
H            3.13381566625448       -1.16615589865856        0.52237311624566
H            3.04922519972864        0.20412022498619        1.67852761673914
H           -2.23751523414790       -1.96705520917409       -1.21338180685863
H           -0.64764217566075       -2.71670791428799       -1.56545696887390
H           -0.67034718581578       -3.81104174743653        0.67417705187764
H           -2.24859846353844       -3.06566780906690        1.03015947602353
H           -3.66254530008730       -7.41480922620226        0.12509264330866
H           -3.15420803593810       -5.71027330827806       -2.37657400996121
H           -3.99070178656009       -7.34558340613597       -2.31868576172713
H           -0.97635409509178        2.36835399502642        2.34985129295399
H           -2.48644676683963        1.56005846483692        1.82232908372630
H           -0.75300051620061        3.42512116120501        0.10902080137114
H           -2.23413170612807        2.60118853632509       -0.44080475496672
H           -3.85499878737955        5.85872364731761        1.90858327184228
H           -3.87565445773581        7.29703183099223       -0.80147949990709
H           -4.69958657988188        7.89127246817418        0.73496788697997
