45
 energy: -68.715648942006 gnorm: 0.000656068128 xtb: 6.7.1 (edcfbbe)
C           -0.27430408178703        0.48137411128044       -3.08129732706903
C           -0.74394558374482        0.89113182524313       -1.69025795545360
C            0.39744673652534        1.55532605153103       -0.89990130308121
O            1.49931276893795        0.67478528013640       -0.87599026349959
C            2.54942030516507        1.06232125096319       -0.03380278093181
C            2.28280041375916        0.74739115859261        1.45415005415965
C            1.90293180553894       -0.71164397478934        1.64470722937341
O            3.47649238923182        1.00265076706056        2.19857579483395
C            3.71983744998194        2.27063896224682        2.55034267661867
O            2.98645694819987        3.19286457614101        2.28323527731288
C            4.98124662040115        2.42226664019429        3.30790270984103
C            5.83117361095061        1.43148696839358        3.53377210155115
O           -1.21798141221122       -0.27434081250225       -1.05138661556614
C           -2.07993403457384       -0.06443183804860        0.03891824434573
C           -2.76131015954790       -1.39660106023662        0.38181119054690
C           -1.75179622299966       -2.45879853140674        0.78706598384929
O           -3.46084535695554       -1.89550369786982       -0.75772456343796
C           -4.60269723219982       -1.29200201874261       -1.09375114299146
O           -5.09960704276988       -0.38738313630156       -0.46419033496974
C           -5.20401109174628       -1.86019092606159       -2.32105182585719
C           -4.57452783509350       -2.70979733424426       -3.11884672531064
H           -1.09025631187961        0.00422484707530       -3.61612476521334
H            0.54651618963678       -0.22074438303150       -2.98080623867100
H            0.06102921445331        1.35310779778169       -3.63435616208060
H           -1.56448463097924        1.62591354287423       -1.76847921331663
H            0.67685264056302        2.50142879336995       -1.38710863443913
H            0.05362903757657        1.78716306647675        0.11601270523214
H            2.77225269567902        2.13301947306105       -0.14288193359434
H            3.41899934986215        0.48183890497583       -0.35704012045892
H            1.49650365716862        1.41166096579865        1.83612697184357
H            2.75082989339176       -1.34398459226080        1.39565863328435
H            1.61143877391684       -0.90116642824182        2.67438826834028
H            1.07888780974303       -0.95055765273459        0.97847267430861
H            5.16106695752840        3.42923670920895        3.65610216471438
H            6.74472774161189        1.58375922909897        4.08362777711897
H            5.63537906424855        0.43595821512446        3.17299405072943
H           -1.53742226346028        0.28775390117587        0.92898193876657
H           -2.84681962893794        0.68160041572193       -0.21571155172890
H           -3.48991916282676       -1.20888842545353        1.18283154961732
H           -2.25353599826258       -3.41183052517979        0.92928159071238
H           -1.01060132046174       -2.55853556909266       -0.00028169883927
H           -1.26269045454990       -2.17025618700351        1.71257565718810
H           -6.19952531026722       -1.49593024665055       -2.53083201174323
H           -3.57551024183090       -3.04406976444715       -2.89563731881038
H           -5.03350869703666       -3.09224734919871       -4.01531975722518
