45
 energy: -68.714533183481 gnorm: 0.000231597071 xtb: 6.7.1 (edcfbbe)
C            1.08543881944283       -1.60537114081224       -2.49583352934803
C            0.33909348671663       -0.97481060912461       -1.31928145415967
C           -0.74759108704145       -0.01095725899962       -1.80139324429593
O           -1.58318102120919        0.28476879134393       -0.71140667532160
C           -2.58030502926381        1.22805057872158       -1.01438994813755
C           -3.38018500145121        1.53197791145378        0.25800978832336
C           -2.48595674363026        2.05711082475514        1.37031278017423
O           -4.00571430098516        0.34327830964812        0.74272124738486
C           -5.09595501189296       -0.08288767937928        0.10073336394246
O           -5.59665796367986        0.49405124228240       -0.83639205776104
C           -5.63829647094052       -1.33729113781823        0.66992045263437
C           -5.03021276832123       -2.03846883139099        1.61491474045364
O            1.20733305421189       -0.22579974121265       -0.49126481842697
C            1.83760781035141       -0.96593484556655        0.52309295586507
C            2.64249629829904       -0.01070039051715        1.41301133839976
C            1.77575885249838        1.10860771346672        1.96718168630071
O            3.69942944141298        0.59295082034157        0.66431040160614
C            4.76941169379345       -0.16022479739626        0.39634838226640
O            4.90525255145269       -1.30314641532154        0.76404753215378
C            5.76096638459756        0.60140639346882       -0.39546569643842
C            6.89805149244555        0.04598125901926       -0.78665479285374
H            0.40515053066131       -2.19654088051414       -3.10198850677074
H            1.52799978707313       -0.82527364149680       -3.11009296680816
H            1.88014404261586       -2.25195722620482       -2.13255060797295
H           -0.15023194184793       -1.75818026742142       -0.72058784722495
H           -0.27143846865874        0.90533583033301       -2.17931937161857
H           -1.32682171031290       -0.47030925717311       -2.61703703315306
H           -3.25587888956016        0.83975196107860       -1.79135046805572
H           -2.13181448207496        2.16303296703360       -1.38431247756741
H           -4.16667770413465        2.25449349098535       -0.00148794010010
H           -1.68139839771725        1.34792983259217        1.53951635852643
H           -2.06512194688698        3.01605703840820        1.08333743984769
H           -3.06062632488756        2.17637533230533        2.28465288369004
H           -6.57523219692225       -1.64751241676044        0.22980861719311
H           -5.44778208090047       -2.95405378408771        1.99930042641102
H           -4.09075172527421       -1.71343066662115        2.02880706486579
H            2.51662423054935       -1.72200314256891        0.10452038397234
H            1.08936044396370       -1.48024274208257        1.14578666006883
H            3.09378365288890       -0.60603921364675        2.21942912023803
H            1.29773304033512        1.62579938631481        1.14102635970085
H            1.01380628423246        0.69273136537765        2.61970402167379
H            2.38622291434391        1.81054432113351        2.52847512990883
H            5.48661494059997        1.61901247399942       -0.62698458131223
H            7.11671447228677       -0.97705837585606       -0.52597424800276
H            7.63283504281370        0.57894761791609       -1.36520087030761
