45
 energy: -68.719393023880 gnorm: 0.000819296907 xtb: 6.7.1 (edcfbbe)
C           -0.14931594848645       -2.71998352466884        2.18238855177717
C           -0.50498435068568       -1.90981201064903        0.94202054624982
C            0.60685157559468       -0.89768587048327        0.61401887859842
O            1.66833841758703       -1.60727133746314        0.00578884250820
C            2.90844047238600       -0.95304029054670        0.02965177207961
C            2.98431172418751        0.27079713110011       -0.90570280202623
C            2.68245642567184       -0.10690828224579       -2.34657663949098
O            4.31137160403843        0.80423185335341       -0.85823180320067
C            4.62603728242412        1.58965022791470        0.18007489634229
O            3.86421216020848        1.86815145097826        1.07360539888979
C            6.02321671339341        2.06292339739931        0.07012487825077
C            6.54658863205917        2.87195674491315        0.97910350730708
O           -1.73730742313190       -1.25440916856704        1.18689367806647
C           -2.48425069615184       -0.95494319897847        0.03255388395706
C           -3.57329564852347        0.05346523370449        0.41902492329806
C           -4.53532795020158       -0.52755489045251        1.44123168007255
O           -4.33264202852828        0.41885469296368       -0.73687746616090
C           -3.77583829735582        1.28049770596835       -1.59580121468668
O           -2.66617407582914        1.73969534448256       -1.46493701614097
C           -4.66781881444394        1.61902586108853       -2.72716313872531
C           -5.90853463889870        1.17183487134754       -2.85121395551719
H           -0.89035920295105       -3.49659723582335        2.34944591160526
H            0.82706477333723       -3.17470329602717        2.04512757524086
H           -0.12891342140298       -2.06538615124657        3.04940781238736
H           -0.60285701165741       -2.58507417110177        0.07903191105895
H            0.94690580788893       -0.40639494262497        1.53464012562344
H            0.21622442966898       -0.12421665320472       -0.06148435417348
H            3.15835151501360       -0.63121835088329        1.05122904801109
H            3.63950583039256       -1.69619728360025       -0.30179848656398
H            2.29187189369090        1.04296025130078       -0.54597533495656
H            3.45548891564081       -0.77489993365206       -2.71772139448370
H            1.72461215668240       -0.61695452410370       -2.38872931844476
H            2.64872429655745        0.77904165588148       -2.97451008522511
H            6.56862619191293        1.70476779798514       -0.78963209391918
H            7.56060741862061        3.22792645572931        0.91923365442888
H            5.95236859735735        3.19870720559807        1.81718458594968
H           -1.85275509604509       -0.51271432380575       -0.74799176145613
H           -2.95054702028857       -1.86803411523683       -0.37192297893231
H           -3.07792787978038        0.94921579896451        0.81477419844374
H           -3.96421255479590       -0.86685305825458        2.29920546488083
H           -5.25609904671624        0.22297470627882        1.75363452322731
H           -5.06787439902991       -1.37005850063302        1.00730258170054
H           -4.21622863051673        2.28183450946664       -3.45201388416804
H           -6.34048870817937        0.51641430196518       -2.11345405366150
H           -6.52842399070755        1.44598591586532       -3.68834004802810
