42
 energy: -51.377468621142 gnorm: 0.000299781337 xtb: 6.7.1 (edcfbbe)
C           -6.08986916220810        0.01666905171953       -0.73400529546331
C           -5.72665048302205        0.22286449030491        0.73498569486767
C           -5.77944347371701        1.70681873054800        1.09244861593209
C           -4.37252234852606       -0.40862238699945        1.08932789133791
C           -3.16717278308054        0.17533680276969        0.35506708199706
C           -1.87155329370212       -0.51328700549691        0.77888175925177
C           -0.65518908076412        0.06077276238412        0.05630353488607
C            0.63941109623693       -0.62802160206887        0.48164765616892
C            1.85445179378745       -0.04578263917683       -0.23488829520250
C            3.13749983852223       -0.74438494279901        0.18881689858455
O            4.23199320303333       -0.13619184507944       -0.49410334329269
C            5.44638593235960       -0.62252036751852       -0.21047459474054
O            5.62872909135680       -1.52906801860494        0.56650983569210
C            6.53710547909352        0.07345562148590       -0.94794868534564
C            7.89096631543942       -0.53518547511978       -0.76808678504863
C            6.29702895445238        1.15268758294592       -1.68437107069564
H           -5.42119579062037        0.57798504988037       -1.38160262305352
H           -7.10539802086385        0.35884190140434       -0.92104225931039
H           -6.02901074220623       -1.03614096242032       -1.00052288965008
H           -6.48048979000247       -0.29436734947624        1.34168338469636
H           -6.79014956751451        2.08808071016503        0.96378991475920
H           -5.11826219138302        2.28414466452428        0.45120040571260
H           -5.48392501581912        1.86318486863302        2.12748792277574
H           -4.42525163898589       -1.47969518390332        0.87680899758789
H           -4.21203809139113       -0.29860289447023        2.16511729708458
H           -3.29491104585880        0.05463653971205       -0.72164489366011
H           -3.08515634110529        1.24211170547163        0.56812484831815
H           -1.94405245590759       -1.58295913126483        0.56841880463325
H           -1.73687360602239       -0.39882176447312        1.85707654121363
H           -0.58111986074943        1.13000816981460        0.26748405493922
H           -0.78776517955172       -0.05405923802892       -1.02189797352834
H            0.76948609810770       -0.51841634412608        1.56056097686148
H            0.56896282111810       -1.69622633608751        0.26516106736002
H            1.94382159357907        1.01870654507845       -0.01073819469925
H            1.73618353458190       -0.15019439168721       -1.31489872788313
H            3.11002871688707       -1.81162749024710       -0.06044092640694
H            3.29901611905474       -0.65693544549969        1.26966856113476
H            8.65728972487657        0.07315821017332       -1.23947574448003
H            8.10743601774978       -0.64223118222678        0.29308310824888
H            7.90720727693023       -1.53434153431454       -1.20124075088904
H            5.30584708348784        1.55835145762832       -1.78328213581156
H            7.08915127234705        1.65986966644723       -2.20976366488273
