23
 energy: -32.641629596617 gnorm: 0.000333970442 xtb: 6.7.1 (edcfbbe)
C           -2.69312864867070       -1.79781323195825       -0.27394340033990
N           -2.01879831932994       -0.65310678172281        0.30414737823663
C           -2.83231393188733        0.54031553091423        0.18606005372160
C           -0.69775322428283       -0.47594863095457       -0.26890869281197
C            0.16174681945356        0.45864005234323        0.57814502609209
O            1.51720294672455        0.29402454969614        0.17053894378211
C            2.39201979084772        1.18557949275957        0.65371261407552
O            2.08457769434688        2.07875841104154        1.40530421989274
C            3.77052166369013        0.96481474046097        0.16320033407888
C            4.10052011736568        0.04709858392551       -0.73295953950884
H           -2.09456004525819       -2.69138597468300       -0.10471564475952
H           -3.65389040370283       -1.92733751966136        0.22141370624068
H           -2.86856020495597       -1.69038238539189       -1.35581723391488
H           -2.35915048025980        1.36006108217777        0.72113404326063
H           -3.80305278981349        0.35049037608207        0.64074675714009
H           -2.98883116557281        0.84287652419047       -0.86166578145839
H           -0.73774706799443       -0.09859972943878       -1.30652496411340
H           -0.20020640030912       -1.44890195831560       -0.28346303785509
H            0.06285782099126        0.19675356279148        1.63727838016235
H           -0.11534077537698        1.51050890918310        0.45604504713774
H            4.49714360303379        1.63849888451126        0.59431475679140
H            5.11601188166728       -0.07398118201205       -1.07115622409804
H            3.36073211929348       -0.61096230593892       -1.15647674175224
