22
 energy: -52.474790740520 gnorm: 0.000471235191 xtb: 6.7.1 (edcfbbe)
Br          -4.89693901819370        0.83228147516825        1.74330878709860
C           -3.29624003832179        0.59795031428338        0.78673239088752
C           -2.54870648316421       -0.56569542074768        0.94983574310772
Br          -3.14484666381800       -1.90245679898858        2.12811179872282
C           -1.36423730960785       -0.73076566997643        0.23517900745726
Br          -0.39193175770866       -2.33142247596730        0.45935289382950
C           -0.90066183498318        0.25338742242741       -0.64040184931845
C            0.40303478196319        0.04294533694886       -1.35158955400210
O            1.42215808614116       -0.09562226904541       -0.37013273829191
C            2.57909324233096       -0.64074025760835       -0.80431610887108
O            2.75263880332437       -0.96038815929447       -1.95169552748267
C            3.57344749551948       -0.80000079573376        0.27231804180628
C            3.32556900422854       -0.56606474581846        1.55292634197218
C           -1.66115009290088        1.41185339684014       -0.79140450029619
Br          -1.11579928554418        2.79251020543256       -1.96044162808646
C           -2.85489721690909        1.58561849150217       -0.08961748410758
Br          -3.87220855366415        3.15051410946530       -0.31140088631586
H            0.64794771245052        0.88021229548534       -2.01110474083000
H            0.36989281415688       -0.86947930093906       -1.96470488137639
H            4.53369412947651       -1.15198037588957       -0.07553668804062
H            2.36043938964227       -0.22416194939404        1.88643570991263
H            4.07970179558183       -0.70849382815085        2.30814287222509
