22
 energy: -52.475897432674 gnorm: 0.000923053403 xtb: 6.7.1 (edcfbbe)
Br          -5.26582136354411        1.07569868702398       -1.36268964354655
C           -3.60008622415555        0.61233472027451       -0.62689143795412
C           -2.78363311797559       -0.31369172917045       -1.27134055852922
Br          -3.35204327941740       -1.10228687963995       -2.87903804596940
C           -1.55003375453689       -0.64845677896525       -0.71733507334214
Br          -0.47605742851518       -1.92008703761978       -1.60011688662099
C           -1.10639790775423       -0.06788878819154        0.47233349491018
C            0.25029315256860       -0.42990176398805        0.99764424318951
O            1.21181178382664       -0.04417014042606        0.02285230092503
C            2.48132534373099       -0.43218081041792        0.27260074235798
O            2.79097670327186       -1.04782382848409        1.25816398066533
C            3.37950543489641        0.00217102058077       -0.81176685573728
C            4.68162306320595       -0.23893132697610       -0.75598482936991
C           -1.93572748947811        0.85697093411950        1.10420656014424
Br          -1.41999300547077        1.68075477041698        2.72426230650865
C           -3.17839079983157        1.19379871209789        0.56581075442671
Br          -4.29004365676141        2.43466337531576        1.43542736958021
H            0.47310630080146        0.07183849881922        1.94344692577222
H            0.32587790858385       -1.51332105448886        1.16718830967369
H            2.90589555957452        0.51530213997329       -1.63487117184878
H            5.35567752803372        0.06755944707746       -1.53695709977109
H            5.10213324894644       -0.75235316733112        0.09349061453590
