25
 energy: -37.781040612223 gnorm: 0.000701564962 xtb: 6.7.1 (edcfbbe)
C            4.12472621864400        0.45912866260882       -1.83487415480205
C            3.78124560758239       -0.47609506866080       -0.69080859535561
O            2.39246515974144       -0.33611934450238       -0.39660664423057
C            1.92778989694585       -1.08264467355361        0.61796169931455
O            2.63004210994069       -1.83031675946465        1.25897290756453
C            0.49135890191344       -0.90015405792701        0.86489380357271
C           -0.28362505204905       -0.07705280012498        0.14740226584017
C           -1.70566900868505        0.15282753337538        0.32156729793521
C           -2.34790792517553        1.05773956349315       -0.52904456693526
C           -3.70037651331535        1.31004412702833       -0.40787322190651
C           -4.44201443150522        0.66285200908540        0.56707052772237
C           -3.82015816837357       -0.23695202024333        1.41884910860170
C           -2.46820595809498       -0.49102133085378        1.30014552370274
H            3.92498499218694        1.48868497700771       -1.55078250401663
H            5.17637831089782        0.35739098916059       -2.08618139151488
H            3.52523980715762        0.21673349618088       -2.70842637283353
H            4.36056823702744       -0.23811073256723        0.20886811895102
H            3.98357805931204       -1.52072017813608       -0.95484603060890
H            0.11598120767561       -1.49796236343934        1.68130759226360
H            0.18117478641350        0.48427326149770       -0.65328796754194
H           -1.77300975044419        1.56448279112681       -1.29111383585340
H           -4.17945944094270        2.01219677278398       -1.07435604814869
H           -5.49973615802549        0.85791765063245        0.66335046295908
H           -4.39608357148390       -0.74292700879390        2.17978854795973
H           -1.99928931734376       -1.19419549571411        1.97017147736057
