71
 energy: -104.838511791608 gnorm: 0.000711189710 xtb: 6.7.1 (edcfbbe)
C          -11.57652630693793        1.60371449072634       -0.65516329977705
C          -10.53227967036293        0.74219319672062       -1.28984704550441
C          -10.66710732616988        0.15683293628294       -2.47478069575941
C           -9.29765924392928        0.57375956578126       -0.47527305458518
O           -9.15644865110660        1.02055790972421        0.63729060452498
O           -8.34748441481774       -0.13140145955335       -1.10540942035574
C           -7.13127029716706       -0.31972079728196       -0.38776760859981
C           -6.13797298363061       -1.02182434367688       -1.30291222450484
C           -4.79216309017930       -1.20519017684850       -0.60967019746852
O           -4.27338386735652        0.07550198415841       -0.32962315485629
C           -3.10283056445379        0.17357542153017        0.36605429499334
C           -2.70075429770554        1.46340748277193        0.70416369362813
C           -1.53191867096736        1.67690259865374        1.40631037422691
C           -0.72244962513561        0.61438678978323        1.78887890977834
C           -1.13162513292316       -0.66761144684178        1.44358661253088
C           -2.30271040322914       -0.89760407228858        0.74428257153965
C            0.55709459525475        0.77658228684382        2.59345502250105
C            0.25782715675068        0.29148851712290        4.01921010453974
C            1.03645742540735        2.23309147347666        2.67203324776448
C            1.65999884640850       -0.01846470448784        1.91308334788736
C            2.53770664084308       -0.85411382419459        2.59272541995131
C            3.54753578565203       -1.51798796781235        1.92600261809721
C            3.71624097053947       -1.36330801044758        0.55181259144245
O            4.74359831070078       -2.06400505598458       -0.00815405849005
C            5.01453728350272       -1.88736147718103       -1.38172535761714
C            6.27297924832098       -2.68454121828365       -1.71508257339328
C            7.49509844740017       -2.10048539582746       -1.02154630294133
O            7.76297399125091       -0.81740133309074       -1.58506571998134
C            8.73804505395859       -0.10992842735499       -0.99965388294714
O            9.37786081691909       -0.52087244418903       -0.06210595056314
C            8.94374757114792        1.22535660808857       -1.62620365915156
C           10.00081290477720        2.05564031945979       -0.97188260957720
C            8.23391203967457        1.61701461701045       -2.67868876109996
C            2.84413430475305       -0.53006717533582       -0.13880655989680
C            1.83605638929196        0.12731244011569        0.54269636963675
H          -11.84068366567388        1.20254006462209        0.32161419221428
H          -11.18007367992913        2.60492850855771       -0.49344455274454
H          -12.46435056586611        1.66241521506884       -1.27797841024522
H          -11.56309254787591        0.27593176468538       -3.06086332029466
H           -9.88796919077953       -0.45737187210078       -2.89028623462992
H           -6.74098998068278        0.65304885497937       -0.07149373459063
H           -7.33301784247142       -0.91444246422383        0.51108663672761
H           -5.99992982503851       -0.41785929286666       -2.20010411182465
H           -6.53120352803425       -1.99583565086135       -1.59514635142697
H           -4.92209196615131       -1.77405173056136        0.32187759124826
H           -4.10941742911069       -1.75910708011818       -1.26912165774490
H           -3.32593568332447        2.29045643499390        0.40619059315719
H           -1.26019239415767        2.69095335687898        1.65155015773485
H           -0.51639434395371       -1.51226161654384        1.71847991653511
H           -2.57538377060727       -1.91228811332332        0.49923827837863
H           -0.61009772527447        0.82405556543444        4.40361081735973
H            0.03488555714136       -0.77232220854420        4.03092448062982
H            1.09732550335422        0.48803385746437        4.68179118554836
H            1.15611741214927        2.65811990134527        1.67864750026075
H            0.33821576033667        2.84234785389310        3.24112590182832
H            2.00242542454226        2.26553759302276        3.17255303832753
H            2.44528508282876       -0.99881402080720        3.65716880622076
H            4.22665033423389       -2.16714047113159        2.45650316791021
H            4.17121593034217       -2.25046063418278       -1.98604189127604
H            5.18299883172952       -0.82592188959288       -1.60626216123797
H            6.42683838893311       -2.67078762186726       -2.79432623615849
H            6.14198073925699       -3.71442096801293       -1.38387152356725
H            8.37301698447373       -2.74095012439611       -1.16085334847282
H            7.31393619679532       -1.99203674401167        0.05274547455620
H           10.09855392236696        3.01962708323486       -1.46240951443012
H            9.75527373746366        2.20417811402773        0.07825430251596
H           10.95427224435925        1.53118912858635       -1.00635523477365
H            7.48484483086877        0.98469446706238       -3.12147718286757
H            8.38621275895678        2.58372919745092       -3.12922734946863
H            2.93580311449693       -0.38585936765295       -1.20404033443768
H            1.16294014778844        0.76471760182802       -0.01265153713626
