37
 energy: -53.653852563507 gnorm: 0.000554257162 xtb: 6.7.1 (edcfbbe)
C           -0.25375115049847        0.56484670801816       -2.68562257624282
O            0.34695370137046        0.51123744632881       -1.40990383100852
C           -0.34956754332119       -0.24068783074656       -0.44368639558976
C            0.49929490646863       -0.18731700717255        0.82592977898117
C            1.95833171441827       -0.14154932417852        0.64584044289315
C            2.73639414790700        0.66334201930620        1.47542831758368
C            4.11049250955554        0.70079081246334        1.33225125761873
C            4.73004716945616       -0.06654063427967        0.36003407279905
C            3.96463415080994       -0.86531621722974       -0.47261600024467
C            2.58952706758322       -0.90138511736885       -0.33588097964812
C           -0.05547639776387       -0.22817782909403        2.03284386034742
O           -0.45742956964918       -1.57384408931529       -0.94679250061259
C           -0.61474576101093       -2.60466713227536       -0.00460643705510
C           -1.72526030621739        0.37904544977004       -0.21257328261437
C           -1.79082289805808        1.67486763123078        0.28842198417137
C           -3.01444240633800        2.29154663731523        0.46853959992401
C           -4.18455296919784        1.62271516372134        0.14653585041565
C           -4.12253281535176        0.34213170837736       -0.37246321869081
C           -2.89710715801443       -0.27596806184854       -0.55961932248643
H           -1.22608416948261        1.06858259250730       -2.64961339284159
H            0.43344651316069        1.13787353430497       -3.30462388589124
H           -0.38189496122595       -0.43698632081504       -3.10180919889679
H            2.25552070850161        1.27677237204537        2.22329839082782
H            4.70070646564396        1.33392094342199        1.97904521064622
H            5.80417744773613       -0.03704487568630        0.24896294354185
H            4.44281671722940       -1.46300695329861       -1.23538395902198
H            2.00008901662320       -1.52188531915471       -0.99214694717680
H           -1.12177908218664       -0.26024426858186        2.17946930917663
H            0.55130102834858       -0.24028635516067        2.92225264464148
H            0.29756340702697       -2.76512893689729        0.58032114800992
H           -0.83115083405075       -3.49880290982415       -0.58848872820777
H           -1.44364954439074       -2.40890779347002        0.68296971981231
H           -0.87340121553580        2.19214174683210        0.52732566003551
H           -3.05607948700393        3.29767097371589        0.85950544955691
H           -5.14095372945753        2.10339834973552        0.29116323643455
H           -5.03003216650232       -0.17840969274425       -0.64128346733264
H           -2.85058550657874       -1.26472841994164       -0.98999275385536
