18
 energy: -38.734334612141 gnorm: 0.000164708231 xtb: 6.7.1 (edcfbbe)
C            2.98126958048393       -0.22518494583934        0.12040007782553
C            1.62976063627203        0.35573978972894       -0.16947522957294
C            1.44152415901971        1.58275720480635       -0.64911376238191
C            0.48352417898580       -0.53774611285686        0.11548947934858
O            0.56013579211787       -1.65725093638969        0.55166435156313
O           -0.71347604088475        0.03568287608620       -0.16871430386625
C           -1.84276684886259       -0.77137368678339        0.08196920070551
C           -3.07350527543411        0.02437599410105       -0.33086334976110
F           -3.04755528127149        0.36991780078755       -1.62016770110756
F           -3.21271068264324        1.14946032841111        0.37482311372529
F           -4.18872271089921       -0.69525759398345       -0.14159581206719
H            3.57828617625037       -0.26933956598611       -0.78818443832009
H            3.51237515922579        0.38952141973183        0.84400858955073
H            2.87271172160566       -1.22956776284217        0.52033525821842
H            0.45902681156816        1.97157096353301       -0.84809306752575
H            2.27739565202484        2.23023534374773       -0.85535402300450
H           -1.91727104550360       -1.02399653099753        1.14701647659402
H           -1.80000098205516       -1.69954558525523       -0.50147285992392
