47
 energy: -73.484817790734 gnorm: 0.000486427510 xtb: 6.7.1 (edcfbbe)
O           -0.32040469261861       -3.33709957356989       -1.81645250300390
C           -0.62528330294478       -2.46602847704728       -1.03381970364373
C           -0.23556258024460       -2.58720429467992        0.46617316441983
O            0.17747681275217       -3.91842805167196        0.64886946389942
C            0.75412890318631       -4.19222975746876        1.90777622376835
O           -1.30198427304275       -2.26399763270194        1.33560243982942
C           -2.45827027641830       -3.05505606715140        1.14525455515143
C            0.90342709212197       -1.60520950517193        0.68715061236459
C            0.85631511752768       -0.63375116138090        1.67708050687258
C            1.90043822018934        0.25893317407434        1.82944220548198
C            2.99859671344161        0.18956912435496        0.98371485255931
S            4.35808997014339        1.31677286573858        1.10778668417876
C            3.51947020485984        2.91092911974505        1.43045819462620
C            2.47690330625931        3.24689547518324        0.36924180977194
O            2.97413193346221        3.19700080855286       -0.93761122289702
C            3.06877324341176       -0.80774573974293        0.01862596458638
C            2.02769157586457       -1.70185712684963       -0.12605198306217
C           -1.30527965684657       -1.24974307743948       -1.47607476938881
C           -1.57539582935933       -0.16808824647241       -0.72958490205070
C           -2.22759625693436        1.04695828070993       -1.17603226199645
C           -2.65332827476231        1.25503994832378       -2.49126064702140
C           -3.27374033949418        2.43457894883516       -2.85165650536645
C           -3.48307801423470        3.43259120958103       -1.91255502163529
C           -3.06385178564378        3.24432917476399       -0.60532273910242
C           -2.44266582961555        2.06605554332190       -0.24208281302673
H            0.87433260546867       -5.27264043982824        1.94799800553759
H            1.73067386127720       -3.70765519486629        2.01226296554973
H            0.10211294504976       -3.86062081574662        2.72183166889860
H           -2.20409502057780       -4.11688415216290        1.10555102540940
H           -3.10105870611809       -2.85838062776051        2.00100286377562
H           -2.97645714858951       -2.77638099278229        0.22158757404935
H            0.00350305646661       -0.58763645091871        2.33647065593251
H            1.85553391917705        1.00024857426707        2.61302348310996
H            4.33311662720800        3.63778485603166        1.41721275266781
H            3.07374745624558        2.90049632893833        2.42419641372382
H            1.65767447695408        2.52284873462209        0.39671309211443
H            2.06633750819450        4.24485046361818        0.59609956742225
H            3.79479874205167        3.70135560182951       -0.98616247421199
H            3.93711295579011       -0.86691998439191       -0.61863606925859
H            2.07491895182952       -2.47830551760009       -0.87462090256628
H           -1.56699018993994       -1.28534283761873       -2.52563942395383
H           -1.29914641148626       -0.17352163331862        0.31481619173252
H           -2.49634302983684        0.49071242302757       -3.23574810061100
H           -3.59730006294323        2.57985845860205       -3.87179870595632
H           -3.96996176455990        4.35276915490016       -2.19905990195693
H           -3.22359752647100        4.01906636171965        0.13019868076412
H           -2.11791822626060        1.92108272763501        0.77859303249116
