47
 energy: -74.313229044544 gnorm: 0.000350576805 xtb: 6.7.1 (edcfbbe)
O            0.79376110477417       -0.92473656698645       -2.71807858486880
C            0.93978205934028       -1.12783976587386       -1.53492536513480
C            0.17625325451921       -2.25047191272291       -0.79190449338639
O           -0.27364176599305       -3.17164533211163       -1.74819133765068
C           -1.16837776338753       -4.14575221684947       -1.25099922988704
O            0.96813153168278       -2.87300340854262        0.19754917735530
C            2.11837611424936       -3.51998737697024       -0.30957183995594
C           -0.95700959809726       -1.49475390141519       -0.11654833095308
C           -1.93098970434134       -0.91185815360909       -0.91515822631056
C           -2.96742330691698       -0.18736332064519       -0.35559854365493
C           -3.03927775874868       -0.03224061843646        1.02564297416963
O           -4.00934910504072        0.64683799646764        1.70096390720211
C           -4.98798813549090        1.36604973257070        0.98942885938941
C           -4.45297135118164        2.69367645151766        0.44083936601959
O           -5.50474394068391        3.31685389985162       -0.25869897642668
C           -2.05976274462611       -0.62450233628502        1.82560032147634
C           -1.02864164182797       -1.34492105632154        1.26237484115130
C            1.75838234149743       -0.30192136639941       -0.64628336118785
C            2.50554565096986        0.69712635519214       -1.14128199700727
C            3.37132348524609        1.59369508767027       -0.40565058937065
C            3.52398550001790        1.53060840821968        0.98288947453888
C            4.36311579721001        2.40938700552499        1.63823340812096
C            5.06739255211263        3.36869203580599        0.92660111484168
C            4.92627159669103        3.44511736368222       -0.44976770936582
C            4.08769070308941        2.56785112854462       -1.10867775606543
H           -0.75376429672348       -4.65058060882265       -0.37321774914471
H           -1.30577644004927       -4.86100074007625       -2.05912342281795
H           -2.13143162553445       -3.69983743024543       -0.98221587524880
H            2.53844783801475       -4.07888829067797        0.52442373992281
H            1.86032990045684       -4.20251490193388       -1.12317630177992
H            2.85170821275327       -2.79300620844178       -0.67616236579489
H           -1.87002201346671       -1.02921371873134       -1.98706967805231
H           -3.70714253058309        0.24727828006397       -1.00872101147213
H           -5.41709199813474        0.77767108761745        0.17123646892686
H           -5.78006204080449        1.57443561941462        1.71263851536237
H           -3.59566575885300        2.50543077679354       -0.22132177247182
H           -4.10912397205781        3.31463976908154        1.27967189278002
H           -5.20082570514355        4.16675991372521       -0.59370344170172
H           -2.13393456966753       -0.50460587812010        2.89481946806080
H           -0.28026305547017       -1.80727168032543        1.88552710499396
H            1.72850046585232       -0.55338174440177        0.40203512246228
H            2.46076665911539        0.85493040217134       -2.21327184787269
H            2.98068450752364        0.79055081963125        1.54925523579771
H            4.47078680112995        2.34903002911650        2.71120181231296
H            5.72304056269619        4.05355931251169        1.44339704123391
H            5.47223135379322        4.19133871154230       -1.00824629478454
H            3.97876983012794        2.62977534817298       -2.18216474381754
