47
 energy: -74.312642568003 gnorm: 0.000633130942 xtb: 6.7.1 (edcfbbe)
O           -1.27607422183072       -2.27552858099181       -1.88027637743220
C           -1.18328952644597       -1.83506675159216       -0.75827981008042
C           -0.13525670387940       -2.36342671324527        0.25111460785518
O            0.31247609015157       -3.61091154606292       -0.20705362135754
C            1.41485010762911       -4.13667874580598        0.50302016660890
O           -0.65140906781593       -2.44647002629633        1.56270524130334
C           -1.74799339655156       -3.32931362949540        1.69370508453072
C            0.94413106967210       -1.29360232151609        0.20966890391606
C            1.68249593072738       -1.14280182856173       -0.95544017068091
C            2.65613001733515       -0.16547588072476       -1.05617766216911
C            2.89656745574654        0.68557975698318        0.01775098046766
O            3.81967294325989        1.68629096980877        0.03187702547314
C            4.58793860766550        1.91366478433271       -1.12838889342912
C            5.50915362203772        3.09734852345200       -0.84548815865857
O            6.26486736258259        3.33856337188321       -2.00951910663987
C            2.15255731515323        0.53094504666308        1.18905551624163
C            1.18541169830602       -0.44608538544663        1.28370319934431
C           -1.96019030253533       -0.70774019115578       -0.24125839979505
C           -2.92756026428174       -0.14707854444373       -0.98338765926802
C           -3.78062118337650        0.96292709093712       -0.61508918390003
C           -3.59610036717022        1.70110495776875        0.55803301931618
C           -4.43642724095045        2.75221877005040        0.86608724812030
C           -5.47817884954065        3.08898089833882        0.01534739994517
C           -5.67244932228635        2.36927150343646       -1.15266852472564
C           -4.83104279030229        1.32008044298494       -1.46638834836783
H            1.55665220256563       -5.14619477024842        0.12329152735290
H            1.21298349250995       -4.16796737155194        1.57794048941073
H            2.31870332294097       -3.54400687563989        0.32870031044244
H           -1.92919281751196       -3.42376328888947        2.76258598689252
H           -2.63994645679901       -2.92754052403617        1.20022984238758
H           -1.51861965216399       -4.30876439572203        1.26651308025442
H            1.48790346626769       -1.80068568215080       -1.78908034358492
H            3.21384885258977       -0.07487014718355       -1.97411655467058
H            3.94747483940137        2.15525999897024       -1.98605453599500
H            5.19740930299222        1.03617349889278       -1.37888187325693
H            4.89812847713338        3.97050696949994       -0.57929349833846
H            6.15743641899323        2.85284118122055        0.00684147166459
H            6.85233480285372        4.08495019574746       -1.85248768000440
H            2.35498944381579        1.19486637708152        2.01450635671647
H            0.61957325049291       -0.56936755123099        2.19305495562922
H           -1.71657686954303       -0.37674959070128        0.75577933439319
H           -3.09958976960566       -0.57288130813548       -1.96565542448177
H           -2.78440113715059        1.45442737622099        1.22451270538944
H           -4.28003404976021        3.31551542331812        1.77447023694116
H           -6.13381950446478        3.91100038569456        0.26124681994310
H           -6.48099843029938        2.62981608786640       -1.81967382761404
H           -4.98391616855553        0.76063703967382       -2.37807985608154
