46
 energy: -67.061482786996 gnorm: 0.000629175235 xtb: 6.7.1 (edcfbbe)
C           -6.98144395957210        0.53179067233563        0.74872102507435
C           -6.23447259552244       -0.29225167717103        1.46807948244085
C           -4.77012818917263       -0.15055857176430        1.62988401014632
O           -4.08524847169051       -0.94493485235451        2.22879701756601
O           -4.29130634050402        0.95774388838840        1.05087893499724
C           -2.88654077434271        1.17425541703556        1.14248522581454
C           -2.11566928831030        0.37061825244931        0.09883842173176
C           -2.46062789650191        0.75412571730122       -1.34269320301821
C           -1.26570409749529        0.24737080484586       -2.14730155881125
C           -0.05468550847319        0.53340010888051       -1.24988903759164
C            0.98488240189176       -0.59276965805635       -1.17019487901369
C            0.33247002040563       -1.56075692695110       -0.18334004646168
C            0.17537836033749       -0.51349362966094        0.91731800456062
C            1.62476023227860       -0.04460148149458        1.08936920455892
C            2.17470020028787       -0.05230879812478       -0.35510615605832
C            3.42135011505665       -0.91426610383403       -0.50849648763622
O            4.47407227067899       -0.32019440605446        0.24860565901944
C            5.68743937392405       -0.86259937504170        0.10080166737170
O            5.91077950619908       -1.80668058036516       -0.61852700848259
C            6.72511385017871       -0.18217943643802        0.90752375714526
C            6.48436009812412        0.84794427904002        1.70459345422641
C           -0.59955412605231        0.59947202610757        0.19996738030280
H           -6.54687090760887        1.37215354356175        0.23411987083947
H           -8.04492310959164        0.39284938298207        0.64969831101162
H           -6.64892185860083       -1.14478209219358        1.98647678564538
H           -2.75266887425677        2.24743785498283        0.98705622506781
H           -2.54642480007520        0.89653944781015        2.14644247402986
H           -2.34238205366576       -0.68699770106879        0.25867862842476
H           -3.40470510066001        0.32472577789292       -1.67476555231590
H           -2.53021716386969        1.84071965264813       -1.42324487001049
H           -1.18352218350797        0.74069219028812       -3.11490743433269
H           -1.36369574167070       -0.82388406731395       -2.32449133691336
H            0.41058438226280        1.47384941489408       -1.55110035030521
H            1.26738089934107       -1.00135792021315       -2.13904949984015
H           -0.61340596953802       -1.96261007325188       -0.53676076608050
H            0.98070567836273       -2.38537657538617        0.10347770049219
H           -0.29505379765575       -0.84633042097166        1.84057319385450
H            1.68718323329559        0.94102260334788        1.54820810639200
H            2.18260591186836       -0.74110126115853        1.71504134729216
H            2.44118583855938        0.95705522574496       -0.67872860796983
H            3.73144183850011       -0.97470535827628       -1.55856714622542
H            3.25802792092812       -1.93557929812930       -0.14758076557770
H            7.71314999260396       -0.60334199112596        0.78909155551670
H            5.49141120714683        1.25197751567259        1.80840434045010
H            7.26806669667898        1.31780060689903        2.27492749791913
H           -0.40887922057159        1.57011687328706        0.66337042478495
