45
 energy: -68.714510877881 gnorm: 0.000618961324 xtb: 6.7.1 (edcfbbe)
C            1.05602710301452       -1.79905675942223       -1.28736690232898
C            0.73809323839785       -0.67365638386612       -0.31059930902510
C           -0.59264967746901       -0.94541993213908        0.41048801085977
O           -1.64127033980039       -0.84421539370149       -0.52178812908199
C           -2.89354603274519       -1.18884068578865        0.01702571009001
C           -3.95734958214419       -1.02227321797461       -1.06623877945008
C           -5.24139982319674       -1.77737192362917       -0.73913334634379
O           -4.23736073978241        0.37538132195403       -1.17565123067649
C           -4.52601648488247        0.85071827778722       -2.39266630166323
O           -4.57405066659760        0.17165709633498       -3.38934126356676
C           -4.79227374723069        2.30709942919252       -2.38717482968996
C           -4.82818461545629        3.05121599246266       -1.29215413587170
O            1.79563766944227       -0.58864343602653        0.62621023044817
C            2.02529295016308        0.69709680534208        1.14999557824672
C            3.11276001880958        0.61366512158230        2.22893954215625
C            2.74308763688486       -0.36711057465994        3.33056850274880
O            4.34607216344256        0.17378381290588        1.66089796625353
C            5.07286954312434        1.07589446406570        0.99402429564280
O            4.75753041644166        2.23364563000346        0.85654971434066
C            6.31503292557194        0.46188241782211        0.47430311988928
C            7.20536062898425        1.17657677843101       -0.19741065110626
H            1.95148424978371       -1.55902422185659       -1.85343245000926
H            0.21935600261878       -1.92914474644954       -1.96669643794705
H            1.22804280246297       -2.72053903968317       -0.73759691309674
H            0.63942497691812        0.27290503764378       -0.86108346706419
H           -0.56596508157020       -1.95189261315076        0.85511332495111
H           -0.73704406959948       -0.21911771793912        1.22608344623887
H           -3.13977913976300       -0.54000748716681        0.87113217317594
H           -2.88249784423288       -2.23322236368790        0.36471515768924
H           -3.54816607468198       -1.36568472628468       -2.02437633295004
H           -5.04405404234929       -2.84354335950290       -0.68138409647335
H           -5.64684795092096       -1.43434430717963        0.21000079028231
H           -5.97511867841617       -1.59913806153954       -1.52137919824738
H           -4.97179302657007        2.71834679871627       -3.37021502177296
H           -5.03370043769676        4.10786482843394       -1.33175205211010
H           -4.65051570084185        2.62232444934543       -0.32060679705970
H            1.11630684110802        1.11207444844121        1.60841199316083
H            2.35342464217100        1.38236122724423        0.35458052688642
H            3.26292888973114        1.62672940335013        2.62852473687555
H            2.56140998333361       -1.34174480615352        2.88808603467437
H            3.55540107062819       -0.44440245308147        4.04783801054209
H            1.84575886704793       -0.02823204555108        3.83989124660895
H            6.43222268445682       -0.59063044197216        0.68163943644658
H            8.11439441710061        0.75041657489733       -0.58572610927084
H            7.03166403432051        2.22561478248678       -0.37569279341543
