45
 energy: -68.715648941551 gnorm: 0.000656065478 xtb: 6.7.1 (edcfbbe)
C           -0.27430427941606        0.48137430080636       -3.08129741462569
C           -0.74394567766784        0.89113193017328       -1.69025797638880
C            0.39744668581124        1.55532608177580       -0.89990126092370
O            1.49931299362399        0.67478569416900       -0.87599066291777
C            2.54942033301018        1.06232132861270       -0.03380273037832
C            2.28280022524549        0.74739121382649        1.45415004187142
C            1.90293183880208       -0.71164399392536        1.64470725738044
O            3.47649223215068        1.00265090663833        2.19857575208105
C            3.71983768615632        2.27063912095956        2.55034238578050
O            2.98645737707527        3.19286488899981        2.28323502529844
C            4.98124673538711        2.42226653901325        3.30790276116529
C            5.83117348735682        1.43148672006023        3.53377242060760
O           -1.21798165880356       -0.27434073531422       -1.05138681240753
C           -2.07993417253386       -0.06443179391645        0.03891813705866
C           -2.76131021416485       -1.39660103222783        0.38181119317678
C           -1.75179628756360       -2.45879845550269        0.78706611490185
O           -3.46084535325367       -1.89550379276396       -0.75772453742088
C           -4.60269695166218       -1.29200191727951       -1.09375138487887
O           -5.09960676272477       -0.38738281872637       -0.46419087374842
C           -5.20401100045600       -1.86019130219096       -2.32105178863740
C           -4.57452770609253       -2.70979790992079       -3.11884645010347
H           -1.09025672290619        0.00422576183535       -3.61612510793097
H            0.54651542443423       -0.22074479187073       -2.98080634495605
H            0.06102974735456        1.35310784605447       -3.63435597444456
H           -1.56448463268930        1.62591377139193       -1.76847910827659
H            0.67685208222845        2.50142912060526       -1.38710834342754
H            0.05362909548605        1.78716264978603        0.11601290048983
H            2.77225304948324        2.13301951295627       -0.14288169881440
H            3.41899929157376        0.48183876257854       -0.35703992546803
H            1.49650336476969        1.41166088918724        1.83612698303057
H            2.75082979605133       -1.34398455467246        1.39565806534642
H            1.61143944718638       -0.90116661780086        2.67438845095305
H            1.07888743955440       -0.95055769432969        0.97847323005784
H            5.16106720707007        3.42923663548485        3.65610206057209
H            6.74472774477169        1.58375894132591        4.08362790278000
H            5.63537894640132        0.43595801898176        3.17299414201634
H           -1.53742231616767        0.28775398364771        0.92898177171600
H           -2.84681984636268        0.68160041509772       -0.21571159280045
H           -3.48991925216788       -1.20888832068727        1.18283149930115
H           -2.25353608922770       -3.41183042031382        0.92928173568861
H           -1.01060135613949       -2.55853555449545       -0.00028154482157
H           -1.26269057348738       -2.17025607653868        1.71257579328773
H           -6.19952518977458       -1.49593058752324       -2.53083208733661
H           -3.57550988285848       -3.04406989309896       -2.89563732579488
H           -5.03350830491374       -3.09224777083969       -4.01531967805899
