      -----------------------------------------------------------      
     |                   =====================                   |     
     |                           x T B                           |     
     |                   =====================                   |     
     |                         S. Grimme                         |     
     |          Mulliken Center for Theoretical Chemistry        |     
     |                    University of Bonn                     |     
      -----------------------------------------------------------      

   * xtb version 6.7.1 (edcfbbe) compiled by 'albert@albert-system' on 2024-07-22

   xtb is free software: you can redistribute it and/or modify it under
   the terms of the GNU Lesser General Public License as published by
   the Free Software Foundation, either version 3 of the License, or
   (at your option) any later version.
   
   xtb is distributed in the hope that it will be useful,
   but WITHOUT ANY WARRANTY; without even the implied warranty of
   MERCHANTABILITY or FITNESS FOR A PARTICULAR PURPOSE.  See the
   GNU Lesser General Public License for more details.
   
   Cite this work as:
   * C. Bannwarth, E. Caldeweyher, S. Ehlert, A. Hansen, P. Pracht,
     J. Seibert, S. Spicher, S. Grimme, WIREs Comput. Mol. Sci., 2020, 11,
     e01493. DOI: 10.1002/wcms.1493
   
   for GFN2-xTB:
   * C. Bannwarth, S. Ehlert and S. Grimme., J. Chem. Theory Comput., 2019,
     15, 1652-1671. DOI: 10.1021/acs.jctc.8b01176
   for GFN1-xTB:
   * S. Grimme, C. Bannwarth, P. Shushkov, J. Chem. Theory Comput., 2017,
     13, 1989-2009. DOI: 10.1021/acs.jctc.7b00118
   for GFN0-xTB:
   * P. Pracht, E. Caldeweyher, S. Ehlert, S. Grimme, ChemRxiv, 2019, preprint.
     DOI: 10.26434/chemrxiv.8326202.v1
   for GFN-FF:
   * S. Spicher and S. Grimme, Angew. Chem. Int. Ed., 2020, 59, 15665-15673.
     DOI: 10.1002/anie.202004239
   
   for ALPB and GBSA implicit solvation:
   * S. Ehlert, M. Stahn, S. Spicher, S. Grimme, J. Chem. Theory Comput.,
     2021, 17, 4250-4261. DOI: 10.1021/acs.jctc.1c00471
   
   for ddCOSMO and CPCM-X implicit solvation:
   * M. Stahn, S. Ehlert, S. Grimme, J. Phys. Chem. A,
     2023, XX, XXXX-XXXX. DOI: 10.1021/acs.jpca.3c04382
   
   for DFT-D4:
   * E. Caldeweyher, C. Bannwarth and S. Grimme, J. Chem. Phys., 2017,
     147, 034112. DOI: 10.1063/1.4993215
   * E. Caldeweyher, S. Ehlert, A. Hansen, H. Neugebauer, S. Spicher,
     C. Bannwarth and S. Grimme, J. Chem. Phys., 2019, 150, 154122.
     DOI: 10.1063/1.5090222
   * E. Caldeweyher, J.-M. Mewes, S. Ehlert and S. Grimme, Phys. Chem. Chem. Phys.
     2020, 22, 8499-8512. DOI: 10.1039/D0CP00502A
   
   for sTDA-xTB:
   * S. Grimme and C. Bannwarth, J. Chem. Phys., 2016, 145, 054103.
     DOI: 10.1063/1.4959605
   
   in the mass-spec context:
   * V. Asgeirsson, C. Bauer and S. Grimme, Chem. Sci., 2017, 8, 4879.
     DOI: 10.1039/c7sc00601b
   * J. Koopman and S. Grimme, ACS Omega 2019, 4, 12, 15120-15133.
     DOI: 10.1021/acsomega.9b02011
   
   for metadynamics refer to:
   * S. Grimme, J. Chem. Theory Comput., 2019, 155, 2847-2862
     DOI: 10.1021/acs.jctc.9b00143
   
   for SPH calculations refer to:
   * S. Spicher and S. Grimme, J. Chem. Theory Comput., 2021, 17, 1701-1714
     DOI: 10.1021/acs.jctc.0c01306
   
   for ONIOM refer to:
   * C. Plett, A. Katbashev, S. Ehlert, S. Grimme, M. Bursch,
     Phys. Chem. Chem. Phys., 2023, 25, 17860-17868. DOI: 10.1039/D3CP02178E
   
   for DIPRO refer to:
   * J. Kohn, N. Gildemeister, S. Grimme, D. Fazzi, A. Hansen,
     J. Chem. Phys., 2023, just accepted.
   
   for PTB refer to:
   * S. Grimme, M. Mueller, A. Hansen, J. Chem. Phys., 2023, 158, 124111.
     DOI: 10.1063/5.0137838
   
   with help from (in alphabetical order)
   P. Atkinson, C. Bannwarth, F. Bohle, G. Brandenburg, E. Caldeweyher
   M. Checinski, S. Dohm, S. Ehlert, S. Ehrlich, I. Gerasimov, C. Hölzer
   A. Katbashev, J. Kohn, J. Koopman, C. Lavigne, S. Lehtola, F. März, M. Müller,
   F. Musil, H. Neugebauer, J. Pisarek, C. Plett, P. Pracht, F. Pultar,
   J. Seibert, P. Shushkov, S. Spicher, M. Stahn, M. Steiner, T. Strunk,
   J. Stückrath, T. Rose, and J. Unsleber
   
 * started run on 2025/12/01 at 14:22:06.138     
   ID    Z sym.   atoms
    1    6 C      1, 3, 5-12
    2    8 O      2, 4
    3    1 H      13-22

           -------------------------------------------------
          |                Calculation Setup                |
           -------------------------------------------------

          program call               : xtb pipeline_data/3_conformer_xyz/acrylates/rdkit/CCRCUPLGCSFEDV-BQYQJAHWSA-N_conf184.xyz --opt --gfn 2-xTB --iterations 250
          coordinate file            : pipeline_data/3_conformer_xyz/acrylates/rdkit/CCRCUPLGCSFEDV-BQYQJAHWSA-N_conf184.xyz
          omp threads                :                    24

########################################################################
[WARNING] Please study the warnings concerning your input carefully
-1- readin_getIntValue: could not parse '2-xTB'
########################################################################

           -------------------------------------------------
          |                 G F N 2 - x T B                 |
           -------------------------------------------------

        Reference                      10.1021/acs.jctc.8b01176
      * Hamiltonian:
        H0-scaling (s, p, d)           1.850000    2.230000    2.230000
        zeta-weighting                 0.500000
      * Dispersion:
        s8                             2.700000
        a1                             0.520000
        a2                             5.000000
        s9                             5.000000
      * Repulsion:
        kExp                           1.500000    1.000000
        rExp                           1.000000
      * Coulomb:
        alpha                          2.000000
        third order                    shell-resolved
        anisotropic                    true
        a3                             3.000000
        a5                             4.000000
        cn-shift                       1.200000
        cn-exp                         4.000000
        max-rad                        5.000000

q/qsh data taken from xtbrestart
CAMM data taken from xtbrestart

          ...................................................
          :                      SETUP                      :
          :.................................................:
          :  # basis functions                  58          :
          :  # atomic orbitals                  58          :
          :  # shells                           34          :
          :  # electrons                        62          :
          :  max. iterations                   250          :
          :  Hamiltonian                  GFN2-xTB          :
          :  restarted?                       true          :
          :  GBSA solvation                  false          :
          :  PC potential                    false          :
          :  electronic temp.          300.0000000     K    :
          :  accuracy                    1.0000000          :
          :  -> integral cutoff          0.2500000E+02      :
          :  -> integral neglect         0.1000000E-07      :
          :  -> SCF convergence          0.1000000E-05 Eh   :
          :  -> wf. convergence          0.1000000E-03 e    :
          :  Broyden damping             0.4000000          :
          :  net charge                          0          :
          :  unpaired electrons                  0          :
          ...................................................

 iter      E             dE          RMSdq      gap      omega  full diag
   1    -35.1158803 -0.351159E+02  0.184E+00    3.00       0.0  T
   2    -35.1173811 -0.150085E-02  0.109E+00    3.06       1.0  T
   3    -35.1155757  0.180539E-02  0.382E-01    3.07       1.0  T
   4    -35.1179840 -0.240826E-02  0.100E-01    3.07       1.0  T
   5    -35.1180389 -0.549590E-04  0.519E-02    3.07       1.0  T
   6    -35.1180486 -0.966542E-05  0.212E-02    3.07       1.0  T
   7    -35.1180521 -0.349863E-05  0.748E-03    3.07       2.8  T
   8    -35.1180527 -0.582130E-06  0.347E-03    3.07       6.1  T
   9    -35.1180528 -0.949197E-07  0.108E-03    3.07      19.7  T
  10    -35.1180528 -0.122800E-08  0.510E-04    3.07      41.8  T
  11    -35.1180528 -0.187088E-08  0.179E-04    3.07     118.8  T

   *** convergence criteria satisfied after 11 iterations ***

         #    Occupation            Energy/Eh            Energy/eV
      -------------------------------------------------------------
         1        2.0000           -0.7274584             -19.7952
       ...           ...                  ...                  ...
        25        2.0000           -0.4522708             -12.3069
        26        2.0000           -0.4381759             -11.9234
        27        2.0000           -0.4360896             -11.8666
        28        2.0000           -0.4290425             -11.6748
        29        2.0000           -0.4156770             -11.3111
        30        2.0000           -0.4112194             -11.1898
        31        2.0000           -0.4042805             -11.0010 (HOMO)
        32                         -0.2915795              -7.9343 (LUMO)
        33                         -0.2351762              -6.3995
        34                         -0.2194349              -5.9711
        35                         -0.1599145              -4.3515
        36                         -0.0843307              -2.2948
       ...                                ...                  ...
        58                          0.7039199              19.1546
      -------------------------------------------------------------
                  HL-Gap            0.1127010 Eh            3.0667 eV
             Fermi-level           -0.3479300 Eh           -9.4677 eV

 SCC (total)                   0 d,  0 h,  0 min,  0.029 sec
 SCC setup                      ...        0 min,  0.000 sec (  0.703%)
 Dispersion                     ...        0 min,  0.000 sec (  0.711%)
 classical contributions        ...        0 min,  0.000 sec (  0.150%)
 integral evaluation            ...        0 min,  0.001 sec (  2.562%)
 iterations                     ...        0 min,  0.026 sec ( 87.958%)
 molecular gradient             ...        0 min,  0.002 sec (  7.289%)
 printout                       ...        0 min,  0.000 sec (  0.508%)

         :::::::::::::::::::::::::::::::::::::::::::::::::::::
         ::                     SUMMARY                     ::
         :::::::::::::::::::::::::::::::::::::::::::::::::::::
         :: total energy             -34.603374098615 Eh    ::
         :: gradient norm              0.099049698421 Eh/a0 ::
         :: HOMO-LUMO gap              3.066749989335 eV    ::
         ::.................................................::
         :: SCC energy               -35.118196578861 Eh    ::
         :: -> isotropic ES            0.047650072800 Eh    ::
         :: -> anisotropic ES          0.000690473911 Eh    ::
         :: -> anisotropic XC          0.014339614442 Eh    ::
         :: -> dispersion             -0.017443424348 Eh    ::
         :: repulsion energy           0.514822480246 Eh    ::
         :: add. restraining           0.000000000000 Eh    ::
         :: total charge              -0.000000000000 e     ::
         :::::::::::::::::::::::::::::::::::::::::::::::::::::

      ----------------------------------------------------------- 
     |                   =====================                   |
     |                        A N C O P T                        |
     |                   =====================                   |
     |               Approximate Normal Coordinate               |
     |                Rational Function Optimizer                |
      ----------------------------------------------------------- 
      ----------------------------------------------------------- 
     |                   =====================                   |
     |                        A N C O P T                        |
     |                   =====================                   |
     |               Approximate Normal Coordinate               |
     |                Rational Function Optimizer                |
      ----------------------------------------------------------- 

          ...................................................
          :                      SETUP                      :
          :.................................................:
          :   optimization level            normal          :
          :   max. optcycles                   200          :
          :   ANC micro-cycles                  20          :
          :   degrees of freedom                60          :
          :.................................................:
          :   RF solver                   davidson          :
          :   write xtbopt.log                true          :
          :   linear?                        false          :
          :   energy convergence         0.5000000E-05 Eh   :
          :   grad. convergence          0.1000000E-02 Eh/α :
          :   maxmium RF displ.          1.0000000          :
          :   Hlow (freq-cutoff)         0.1000000E-01      :
          :   Hmax (freq-cutoff)         5.0000000          :
          :   S6 in model hess.         20.0000000          :
          ...................................................

generating ANC from exact Hessian ...
Using Lindh-Hessian (1995)
 Shifting diagonal of input Hessian by   9.158275553534614E-003
 Lowest  eigenvalues of input Hessian
    0.000000    0.000000    0.000000    0.000000    0.000000    0.000000
    0.010000    0.011132    0.011283    0.013842    0.015242    0.020591
    0.020667    0.024749    0.029482    0.032036    0.032075    0.035456
 Highest eigenvalues
    1.725975    1.911313    1.973887    2.050922    2.135540    2.158650
 

........................................................................
.............................. CYCLE    1 ..............................
........................................................................

 iter      E             dE          RMSdq      gap      omega  full diag
   1    -35.1180528 -0.351181E+02  0.718E-05    3.07       0.0  T
   2    -35.1180528 -0.908784E-11  0.423E-05    3.07     503.8  T
   3    -35.1180528  0.497380E-12  0.245E-05    3.07     870.9  T
     SCC iter.                  ...        0 min,  0.003 sec
     gradient                   ...        0 min,  0.002 sec
 * total energy  :   -34.6033741 Eh     change       -0.2389839E-09 Eh
   gradient norm :     0.0990502 Eh/α   predicted     0.0000000E+00 (-100.00%)
   displ. norm   :     0.2987573 α      lambda       -0.1306278E-01
   maximum displ.:     0.1591821 α      in ANC's #15, #10, #13, ...

........................................................................
.............................. CYCLE    2 ..............................
........................................................................

 iter      E             dE          RMSdq      gap      omega  full diag
   1    -35.1309464 -0.351309E+02  0.204E-01    3.04       0.0  T
   2    -35.1310919 -0.145564E-03  0.138E-01    3.02       1.0  T
   3    -35.1310753  0.166517E-04  0.688E-02    3.01       1.0  T
   4    -35.1311154 -0.401602E-04  0.314E-02    3.01       1.0  T
   5    -35.1311296 -0.141632E-04  0.628E-03    3.01       3.4  T
   6    -35.1311300 -0.364613E-06  0.272E-03    3.01       7.8  T
   7    -35.1311300 -0.465923E-07  0.126E-03    3.01      16.9  T
   8    -35.1311300 -0.118535E-07  0.403E-04    3.01      53.0  T
   9    -35.1311300 -0.869825E-09  0.176E-04    3.01     121.1  T
     SCC iter.                  ...        0 min,  0.007 sec
     gradient                   ...        0 min,  0.002 sec
 * total energy  :   -34.6124925 Eh     change       -0.9118446E-02 Eh
   gradient norm :     0.0369764 Eh/α   predicted    -0.7117654E-02 ( -21.94%)
   displ. norm   :     0.2792770 α      lambda       -0.4273435E-02
   maximum displ.:     0.1797783 α      in ANC's #10, #15, #13, ...

........................................................................
.............................. CYCLE    3 ..............................
........................................................................

 iter      E             dE          RMSdq      gap      omega  full diag
   1    -35.1394816 -0.351395E+02  0.157E-01    3.02       0.0  T
   2    -35.1395403 -0.587588E-04  0.100E-01    3.01       1.0  T
   3    -35.1395136  0.267201E-04  0.577E-02    3.00       1.0  T
   4    -35.1395539 -0.403255E-04  0.202E-02    3.00       1.1  T
   5    -35.1395594 -0.543500E-05  0.422E-03    3.00       5.1  T
   6    -35.1395595 -0.163724E-06  0.183E-03    3.00      11.7  T
   7    -35.1395596 -0.239823E-07  0.843E-04    3.00      25.3  T
   8    -35.1395596 -0.485394E-08  0.315E-04    3.00      67.6  T
     SCC iter.                  ...        0 min,  0.006 sec
     gradient                   ...        0 min,  0.002 sec
 * total energy  :   -34.6149233 Eh     change       -0.2430761E-02 Eh
   gradient norm :     0.0122567 Eh/α   predicted    -0.2303965E-02 (  -5.22%)
   displ. norm   :     0.0886773 α      lambda       -0.3658868E-03
   maximum displ.:     0.0636612 α      in ANC's #10, #15, #13, ...

........................................................................
.............................. CYCLE    4 ..............................
........................................................................

 iter      E             dE          RMSdq      gap      omega  full diag
   1    -35.1408959 -0.351409E+02  0.430E-02    3.02       0.0  T
   2    -35.1408968 -0.956827E-06  0.256E-02    3.02       1.0  T
   3    -35.1408947  0.210730E-05  0.122E-02    3.02       1.7  T
   4    -35.1408971 -0.237083E-05  0.240E-03    3.02       8.9  T
   5    -35.1408972 -0.849863E-07  0.640E-04    3.02      33.3  T
   6    -35.1408972 -0.927891E-09  0.375E-04    3.02      56.8  T
     SCC iter.                  ...        0 min,  0.005 sec
     gradient                   ...        0 min,  0.002 sec
 * total energy  :   -34.6151633 Eh     change       -0.2399449E-03 Eh
   gradient norm :     0.0065992 Eh/α   predicted    -0.1843921E-03 ( -23.15%)
   displ. norm   :     0.0511930 α      lambda       -0.1187774E-03
   maximum displ.:     0.0304191 α      in ANC's #10, #18, #7, ...

........................................................................
.............................. CYCLE    5 ..............................
........................................................................

 iter      E             dE          RMSdq      gap      omega  full diag
   1    -35.1418927 -0.351419E+02  0.308E-02    3.03       0.0  T
   2    -35.1418929 -0.182870E-06  0.184E-02    3.03       1.2  T
   3    -35.1418925  0.364045E-06  0.463E-03    3.03       4.6  T
   4    -35.1418929 -0.423594E-06  0.102E-03    3.03      20.9  T
   5    -35.1418929 -0.987462E-08  0.457E-04    3.03      46.7  T
   6    -35.1418929 -0.105455E-08  0.280E-04    3.03      76.1  T
     SCC iter.                  ...        0 min,  0.005 sec
     gradient                   ...        0 min,  0.002 sec
 * total energy  :   -34.6152266 Eh     change       -0.6333499E-04 Eh
   gradient norm :     0.0018955 Eh/α   predicted    -0.5954662E-04 (  -5.98%)
   displ. norm   :     0.0276435 α      lambda       -0.1871349E-04
   maximum displ.:     0.0181281 α      in ANC's #7, #6, #2, ...

........................................................................
.............................. CYCLE    6 ..............................
........................................................................

 iter      E             dE          RMSdq      gap      omega  full diag
   1    -35.1421431 -0.351421E+02  0.218E-02    3.04       0.0  T
   2    -35.1421432 -0.636327E-07  0.130E-02    3.04       1.6  T
   3    -35.1421431  0.404856E-07  0.164E-03    3.04      13.0  T
   4    -35.1421432 -0.562118E-07  0.535E-04    3.04      39.8  T
   5    -35.1421432 -0.265072E-08  0.300E-04    3.04      71.0  T
     SCC iter.                  ...        0 min,  0.004 sec
     gradient                   ...        0 min,  0.002 sec
 * total energy  :   -34.6152315 Eh     change       -0.4875822E-05 Eh
   gradient norm :     0.0018771 Eh/α   predicted    -0.9364738E-05 (  92.06%)
   displ. norm   :     0.0128869 α      lambda       -0.8587403E-05
   maximum displ.:     0.0047800 α      in ANC's #5, #11, #10, ...

........................................................................
.............................. CYCLE    7 ..............................
........................................................................

 iter      E             dE          RMSdq      gap      omega  full diag
   1    -35.1418967 -0.351419E+02  0.104E-02    3.04       0.0  T
   2    -35.1418967 -0.196337E-07  0.630E-03    3.03       3.4  T
   3    -35.1418967  0.194735E-07  0.982E-04    3.03      21.7  T
   4    -35.1418967 -0.225802E-07  0.334E-04    3.03      63.8  T
     SCC iter.                  ...        0 min,  0.009 sec
     gradient                   ...        0 min,  0.002 sec
 * total energy  :   -34.6152378 Eh     change       -0.6291988E-05 Eh
   gradient norm :     0.0004030 Eh/α   predicted    -0.4294785E-05 ( -31.74%)
   displ. norm   :     0.0060786 α      lambda       -0.5855915E-06
   maximum displ.:     0.0036620 α      in ANC's #2, #5, #15, ...

........................................................................
.............................. CYCLE    8 ..............................
........................................................................

 iter      E             dE          RMSdq      gap      omega  full diag
   1    -35.1418170 -0.351418E+02  0.319E-03    3.03       0.0  T
   2    -35.1418170 -0.355693E-08  0.191E-03    3.03      11.1  T
   3    -35.1418170  0.114770E-07  0.841E-04    3.03      25.3  T
   4    -35.1418170 -0.132445E-07  0.146E-04    3.03     146.4  T
     SCC iter.                  ...        0 min,  0.003 sec
     gradient                   ...        0 min,  0.002 sec
 * total energy  :   -34.6152383 Eh     change       -0.5760891E-06 Eh
   gradient norm :     0.0001798 Eh/α   predicted    -0.3010102E-06 ( -47.75%)
   displ. norm   :     0.0117958 α      lambda       -0.4755522E-06
   maximum displ.:     0.0075651 α      in ANC's #5, #2, #11, ...

   *** GEOMETRY OPTIMIZATION CONVERGED AFTER 8 ITERATIONS ***

------------------------------------------------------------------------
 total energy gain   :        -0.0118642 Eh       -7.4449 kcal/mol
 total RMSD          :         0.1443135 a0        0.0764 Å
 total power (kW/mol):        -3.8936918 (step) -437.1252 (real)
------------------------------------------------------------------------

 ANCopt (total)                0 d,  0 h,  0 min,  0.071 sec
 optimizer setup                ...        0 min,  0.000 sec (  0.157%)
 model hessian                  ...        0 min,  0.003 sec (  4.297%)
 ANC generation                 ...        0 min,  0.000 sec (  0.617%)
 coordinate transformation      ...        0 min,  0.000 sec (  0.108%)
 single point calculation       ...        0 min,  0.063 sec ( 88.814%)
 optimization log               ...        0 min,  0.003 sec (  4.026%)
 hessian update                 ...        0 min,  0.001 sec (  0.749%)
 rational function              ...        0 min,  0.000 sec (  0.686%)

================
 final structure:
================
22
 xtb: 6.7.1 (edcfbbe)
C            4.79686710755127        0.31584986257121        0.01272037637413
O            3.43591026784151        0.70102268644537        0.11364711098556
C            2.53188829334380       -0.28825346783658       -0.02177229481570
O            2.83745063500240       -1.44065202325060       -0.21589931482721
C            1.16462235363460        0.23011582213709        0.10183879526077
C            0.11577864118599       -0.59643380247660        0.00070825639668
C           -1.28919962837757       -0.25575164345735        0.09777508957301
C           -1.74117703692104        1.04793702064472        0.32088780348304
C           -3.09244883476165        1.31893330102404        0.40548790326983
C           -4.02149418180760        0.29892367852868        0.26994457216701
C           -3.58965885112016       -0.99880715472107        0.04835787354315
C           -2.23879773137742       -1.27317575303327       -0.03679115594829
H            5.38378986741254        1.19763037356726        0.25678005211868
H            5.02055423603911       -0.02359021405686       -1.00122462310187
H            5.01380452127978       -0.49720627572724        0.70882996900387
H            1.08364043756499        1.29122448493741        0.27433033590775
H            0.33658710923583       -1.64348745228811       -0.17366201736762
H           -1.02994800046956        1.85187232209141        0.42842955342740
H           -3.42683417699323        2.33144798960094        0.57829931084413
H           -5.07729305548819        0.51547587582649        0.33686032344006
H           -4.30943606592907       -1.79703972153498       -0.05792589946865
H           -1.90460590684634       -2.28603590899195       -0.20960402026572
 
 Bond Distances (Angstroems)
 ---------------------------
C1-O2=1.4180         C1-H13=1.0870        C1-H14=1.0924        C1-H15=1.0921        O2-C1=1.4180         O2-C3=1.3469         
C3-O2=1.3469         C3-O4=1.2079         C3-C5=1.4674         O4-C3=1.2079         C5-C3=1.4674         C5-C6=1.3392         
C5-H16=1.0781        C6-C5=1.3392         C6-C7=1.4489         C6-H17=1.0842        C7-C6=1.4489         C7-C8=1.3977         
C7-C12=1.3982        C8-C7=1.3977         C8-C9=1.3808         C8-H18=1.0788        C9-C8=1.3808         C9-C10=1.3863        
C9-H19=1.0802        C10-C9=1.3863        C10-C11=1.3855       C10-H20=1.0799       C11-C10=1.3855       C11-C12=1.3811       
C11-H21=1.0801       C12-C7=1.3982        C12-C11=1.3811       C12-H22=1.0805       H13-C1=1.0870        H14-C1=1.0924        
H15-C1=1.0921        H16-C5=1.0781        H17-C6=1.0842        H18-C8=1.0788        H19-C9=1.0802        H20-C10=1.0799       
H21-C11=1.0801       H22-C12=1.0805       
 C  H  Rav=1.0833 sigma=0.0051  Rmin=1.0781  Rmax=1.0924    10
 C  C  Rav=1.3984 sigma=0.0361  Rmin=1.3392  Rmax=1.4674     9
 O  C  Rav=1.3243 sigma=0.0873  Rmin=1.2079  Rmax=1.4180     3
 
 selected bond angles (degree)
 --------------------
H13-C1-O2=106.37               H14-C1-O2=110.30               H14-C1-H13=110.48              H15-C1-O2=110.33               
H15-C1-H13=110.71              H15-C1-H14=108.64              C3-O2-C1=115.94                O4-C3-O2=123.17                
C5-C3-O2=110.94                C5-C3-O4=125.89                C6-C5-C3=120.35                H16-C5-C3=115.54               
H16-C5-C6=124.11               C7-C6-C5=127.53                H17-C6-C5=116.66               H17-C6-C7=115.81               
C8-C7-C6=122.93                C12-C7-C6=118.75               C12-C7-C8=118.32               C9-C8-C7=120.62                
H18-C8-C7=119.86               H18-C8-C9=119.53               C10-C9-C8=120.36               H19-C9-C8=119.78               
H19-C9-C10=119.86              C11-C10-C9=119.73              H20-C10-C9=120.11              H20-C10-C11=120.16             
 
 selected dihedral angles (degree)
 ---------------------------------
C3-O2-C1-H13=186.37           C3-O2-C1-H14= 66.53           C3-O2-C1-H15=306.49           O4-C3-O2-C1=  0.10            
C5-C3-O2-C1=179.96            C6-C5-C3-O2=180.18            C6-C5-C3-O4=  0.03            H16-C5-C3-O2=  0.16           
H16-C5-C3-O4=180.02           C7-C6-C5-C3=179.96            C7-C6-C5-H16=359.98           H17-C6-C5-C3=  0.00           
H17-C6-C5-H16=180.00          C8-C7-C6-C5=  0.00            C8-C7-C6-H17=179.97           C12-C7-C6-C5=180.01           
C12-C7-C6-H17=  0.00          C9-C8-C7-C6=180.02            C9-C8-C7-C12=  0.00           H18-C8-C7-C6=  0.00           
H18-C8-C7-C12=180.00          C10-C9-C8-C7=  0.00           C10-C9-C8-H18=180.00          H19-C9-C8-C7=180.00           
H19-C9-C8-H18=  0.00          C11-C10-C9-C8=  0.00          C11-C10-C9-H19=180.00         H20-C10-C9-C8=180.00          
H20-C10-C9-H19=  0.00         
           -------------------------------------------------
          |                Final Singlepoint                |
           -------------------------------------------------

          ...................................................
          :                      SETUP                      :
          :.................................................:
          :  # basis functions                  58          :
          :  # atomic orbitals                  58          :
          :  # shells                           34          :
          :  # electrons                        62          :
          :  max. iterations                   250          :
          :  Hamiltonian                  GFN2-xTB          :
          :  restarted?                      false          :
          :  GBSA solvation                  false          :
          :  PC potential                    false          :
          :  electronic temp.          300.0000000     K    :
          :  accuracy                    1.0000000          :
          :  -> integral cutoff          0.2500000E+02      :
          :  -> integral neglect         0.1000000E-07      :
          :  -> SCF convergence          0.1000000E-05 Eh   :
          :  -> wf. convergence          0.1000000E-03 e    :
          :  Broyden damping             0.4000000          :
          :  net charge                          0          :
          :  unpaired electrons                  0          :
          ...................................................

 iter      E             dE          RMSdq      gap      omega  full diag
   1    -35.1418170 -0.351418E+02  0.699E-05    3.03       0.0  T
   2    -35.1418170 -0.176499E-10  0.465E-05    3.03     458.8  T
   3    -35.1418170 -0.188010E-10  0.305E-05    3.03     697.9  T

   *** convergence criteria satisfied after 3 iterations ***

         #    Occupation            Energy/Eh            Energy/eV
      -------------------------------------------------------------
         1        2.0000           -0.7367173             -20.0471
       ...           ...                  ...                  ...
        25        2.0000           -0.4488870             -12.2148
        26        2.0000           -0.4421832             -12.0324
        27        2.0000           -0.4375736             -11.9070
        28        2.0000           -0.4291433             -11.6776
        29        2.0000           -0.4158091             -11.3147
        30        2.0000           -0.4106894             -11.1754
        31        2.0000           -0.3994281             -10.8690 (HOMO)
        32                         -0.2879304              -7.8350 (LUMO)
        33                         -0.2328029              -6.3349
        34                         -0.2147245              -5.8430
        35                         -0.1551453              -4.2217
        36                         -0.0871302              -2.3709
       ...                                ...                  ...
        58                          0.7182329              19.5441
      -------------------------------------------------------------
                  HL-Gap            0.1114977 Eh            3.0340 eV
             Fermi-level           -0.3436792 Eh           -9.3520 eV

 SCC (total)                   0 d,  0 h,  0 min,  0.005 sec
 SCC setup                      ...        0 min,  0.000 sec (  1.555%)
 Dispersion                     ...        0 min,  0.000 sec (  1.870%)
 classical contributions        ...        0 min,  0.000 sec (  0.798%)
 integral evaluation            ...        0 min,  0.000 sec (  9.306%)
 iterations                     ...        0 min,  0.002 sec ( 47.865%)
 molecular gradient             ...        0 min,  0.002 sec ( 36.443%)
 printout                       ...        0 min,  0.000 sec (  1.694%)

         :::::::::::::::::::::::::::::::::::::::::::::::::::::
         ::                     SUMMARY                     ::
         :::::::::::::::::::::::::::::::::::::::::::::::::::::
         :: total energy             -34.615238329889 Eh    ::
         :: gradient norm              0.000180542461 Eh/a0 ::
         :: HOMO-LUMO gap              3.034006451066 eV    ::
         ::.................................................::
         :: SCC energy               -35.141959414080 Eh    ::
         :: -> isotropic ES            0.046046908264 Eh    ::
         :: -> anisotropic ES          0.001032174646 Eh    ::
         :: -> anisotropic XC          0.014321959588 Eh    ::
         :: -> dispersion             -0.017470354448 Eh    ::
         :: repulsion energy           0.526721084191 Eh    ::
         :: add. restraining           0.000000000000 Eh    ::
         :: total charge              -0.000000000000 e     ::
         :::::::::::::::::::::::::::::::::::::::::::::::::::::

           -------------------------------------------------
          |                Property Printout                |
           -------------------------------------------------

    * Orbital Energies and Occupations

         #    Occupation            Energy/Eh            Energy/eV
      -------------------------------------------------------------
         1        2.0000           -0.7367173             -20.0471
       ...           ...                  ...                  ...
        19        2.0000           -0.4997380             -13.5986
        20        2.0000           -0.4933399             -13.4245
        21        2.0000           -0.4871248             -13.2553
        22        2.0000           -0.4845567             -13.1855
        23        2.0000           -0.4733238             -12.8798
        24        2.0000           -0.4574218             -12.4471
        25        2.0000           -0.4488870             -12.2148
        26        2.0000           -0.4421832             -12.0324
        27        2.0000           -0.4375736             -11.9070
        28        2.0000           -0.4291433             -11.6776
        29        2.0000           -0.4158091             -11.3147
        30        2.0000           -0.4106894             -11.1754
        31        2.0000           -0.3994281             -10.8690 (HOMO)
        32                         -0.2879304              -7.8350 (LUMO)
        33                         -0.2328029              -6.3349
        34                         -0.2147245              -5.8430
        35                         -0.1551453              -4.2217
        36                         -0.0871302              -2.3709
        37                          0.0245858               0.6690
        38                          0.1046385               2.8474
        39                          0.1131587               3.0792
        40                          0.1164398               3.1685
        41                          0.1354789               3.6866
        42                          0.1420472               3.8653
       ...                                ...                  ...
        58                          0.7182329              19.5441
      -------------------------------------------------------------
                  HL-Gap            0.1114977 Eh            3.0340 eV
             Fermi-level           -0.3436792 Eh           -9.3520 eV

     #   Z          covCN         q      C6AA      α(0)
     1   6 C        3.656     0.036    20.259     6.461
     2   8 O        1.706    -0.269    18.452     5.800
     3   6 C        2.731     0.352    21.032     7.508
     4   8 O        0.856    -0.421    22.109     6.304
     5   6 C        2.892    -0.073    29.815     8.952
     6   6 C        2.907    -0.012    28.307     8.724
     7   6 C        2.970     0.017    27.622     8.621
     8   6 C        2.923    -0.028    28.710     8.787
     9   6 C        2.917    -0.027    28.685     8.783
    10   6 C        2.920    -0.025    28.629     8.774
    11   6 C        2.917    -0.027    28.681     8.782
    12   6 C        2.928    -0.029    28.719     8.789
    13   1 H        0.925     0.065     2.146     2.291
    14   1 H        0.924     0.059     2.213     2.326
    15   1 H        0.924     0.062     2.172     2.305
    16   1 H        0.926     0.060     2.203     2.321
    17   1 H        0.925     0.069     2.092     2.262
    18   1 H        0.926     0.040     2.444     2.445
    19   1 H        0.926     0.036     2.497     2.471
    20   1 H        0.926     0.037     2.492     2.469
    21   1 H        0.926     0.037     2.490     2.467
    22   1 H        0.926     0.041     2.434     2.440

 Mol. C6AA /au·bohr⁶  :       5771.114539
 Mol. C8AA /au·bohr⁸  :     138220.662921
 Mol. α(0) /au        :        120.081459


Wiberg/Mayer (AO) data.
largest (>0.10) Wiberg bond orders for each atom

 ---------------------------------------------------------------------------
     #   Z sym  total        # sym  WBO       # sym  WBO       # sym  WBO
 ---------------------------------------------------------------------------
     1   6 C    3.930 --    13 H    0.982    15 H    0.977    14 H    0.976
                             2 O    0.964
     2   8 O    2.288 --     3 C    1.103     1 C    0.964     4 O    0.166
     3   6 C    3.918 --     4 O    1.712     2 O    1.103     5 C    1.038
     4   8 O    2.021 --     3 C    1.712     2 O    0.166
     5   6 C    3.987 --     6 C    1.775     3 C    1.038    16 H    0.961
     6   6 C    3.982 --     5 C    1.775     7 C    1.117    17 H    0.957
     7   6 C    3.990 --    12 C    1.364     8 C    1.362     6 C    1.117
     8   6 C    3.992 --     9 C    1.466     7 C    1.362    18 H    0.966
                            11 C    0.105
     9   6 C    3.992 --     8 C    1.466    10 C    1.425    19 H    0.971
                            12 C    0.103
    10   6 C    3.983 --    11 C    1.430     9 C    1.425    20 H    0.971
    11   6 C    3.992 --    12 C    1.460    10 C    1.430    21 H    0.970
                             8 C    0.105
    12   6 C    3.989 --    11 C    1.460     7 C    1.364    22 H    0.968
                             9 C    0.103
    13   1 H    0.995 --     1 C    0.982
    14   1 H    0.996 --     1 C    0.976
    15   1 H    0.996 --     1 C    0.977
    16   1 H    0.996 --     5 C    0.961
    17   1 H    0.995 --     6 C    0.957
    18   1 H    0.998 --     8 C    0.966
    19   1 H    0.998 --     9 C    0.971
    20   1 H    0.998 --    10 C    0.971
    21   1 H    0.998 --    11 C    0.970
    22   1 H    0.998 --    12 C    0.968
 ---------------------------------------------------------------------------

Topologies differ in total number of bonds
Writing topology from bond orders to xtbtopo.mol

molecular dipole:
                 x           y           z       tot (Debye)
 q only:       -0.593       0.626       0.126
   full:       -0.550       0.719       0.136       2.327
molecular quadrupole (traceless):
                xx          xy          yy          xz          yz          zz
 q only:        8.702       6.289      -4.763       0.570      -0.145      -3.940
  q+dip:        9.989       7.303      -2.742       0.544       0.727      -7.247
   full:        8.677       7.094      -5.123       0.674      -0.266      -3.554

           -------------------------------------------------
          |                Geometry Summary                 |
           -------------------------------------------------

      molecular mass/u    :      162.1855763
   center of mass at/Å    :        0.0803183      -0.0819800       0.0858089
  moments of inertia/u·Å² :        0.1432715E+03   0.1412555E+04   0.1552652E+04
rotational constants/cm⁻¹ :        0.1176621E+00   0.1193414E-01   0.1085731E-01

 * 20 selected distances

     #   Z          #   Z                                           value/Å
     1   6 C        2   8 O                                       1.4180085 (max)
     2   8 O        3   6 C                                       1.3469454
     3   6 C        4   8 O                                       1.2079223
     5   6 C        6   6 C                                       1.3392106
     7   6 C        8   6 C                                       1.3977365
     8   6 C        9   6 C                                       1.3807722
     9   6 C       10   6 C                                       1.3863323
    10   6 C       11   6 C                                       1.3855281
     7   6 C       12   6 C                                       1.3982120
    11   6 C       12   6 C                                       1.3810701
     1   6 C       13   1 H                                       1.0870053
     1   6 C       14   1 H                                       1.0924011
     1   6 C       15   1 H                                       1.0921039
     5   6 C       16   1 H                                       1.0780831 (min)
     6   6 C       17   1 H                                       1.0841969
     8   6 C       18   1 H                                       1.0787605
     9   6 C       19   1 H                                       1.0802146
    10   6 C       20   1 H                                       1.0798537
    11   6 C       21   1 H                                       1.0800699
    12   6 C       22   1 H                                       1.0804788

 * 3 distinct bonds (by element types)

   Z      Z             #   av. dist./Å        max./Å        min./Å
   1 H    6 C          10     1.0833168     1.0924011     1.0780831
   6 C    6 C           7     1.3812660     1.3982120     1.3392106
   6 C    8 O           3     1.3242921     1.4180085     1.2079223


optimized geometry written to: xtbopt.xyz


           -------------------------------------------------
          | TOTAL ENERGY              -34.615238329889 Eh   |
          | GRADIENT NORM               0.000180542461 Eh/α |
          | HOMO-LUMO GAP               3.034006451066 eV   |
           -------------------------------------------------

------------------------------------------------------------------------
 * finished run on 2025/12/01 at 14:22:06.253     
------------------------------------------------------------------------
 total:
 * wall-time:     0 d,  0 h,  0 min,  0.115 sec
 *  cpu-time:     0 d,  0 h,  0 min,  2.561 sec
 * ratio c/w:    22.340 speedup
 SCF:
 * wall-time:     0 d,  0 h,  0 min,  0.029 sec
 *  cpu-time:     0 d,  0 h,  0 min,  0.667 sec
 * ratio c/w:    22.792 speedup
 ANC optimizer:
 * wall-time:     0 d,  0 h,  0 min,  0.077 sec
 *  cpu-time:     0 d,  0 h,  0 min,  1.752 sec
 * ratio c/w:    22.697 speedup

normal termination of xtb
