      -----------------------------------------------------------      
     |                   =====================                   |     
     |                           x T B                           |     
     |                   =====================                   |     
     |                         S. Grimme                         |     
     |          Mulliken Center for Theoretical Chemistry        |     
     |                    University of Bonn                     |     
      -----------------------------------------------------------      

   * xtb version 6.7.1 (edcfbbe) compiled by 'albert@albert-system' on 2024-07-22

   xtb is free software: you can redistribute it and/or modify it under
   the terms of the GNU Lesser General Public License as published by
   the Free Software Foundation, either version 3 of the License, or
   (at your option) any later version.
   
   xtb is distributed in the hope that it will be useful,
   but WITHOUT ANY WARRANTY; without even the implied warranty of
   MERCHANTABILITY or FITNESS FOR A PARTICULAR PURPOSE.  See the
   GNU Lesser General Public License for more details.
   
   Cite this work as:
   * C. Bannwarth, E. Caldeweyher, S. Ehlert, A. Hansen, P. Pracht,
     J. Seibert, S. Spicher, S. Grimme, WIREs Comput. Mol. Sci., 2020, 11,
     e01493. DOI: 10.1002/wcms.1493
   
   for GFN2-xTB:
   * C. Bannwarth, S. Ehlert and S. Grimme., J. Chem. Theory Comput., 2019,
     15, 1652-1671. DOI: 10.1021/acs.jctc.8b01176
   for GFN1-xTB:
   * S. Grimme, C. Bannwarth, P. Shushkov, J. Chem. Theory Comput., 2017,
     13, 1989-2009. DOI: 10.1021/acs.jctc.7b00118
   for GFN0-xTB:
   * P. Pracht, E. Caldeweyher, S. Ehlert, S. Grimme, ChemRxiv, 2019, preprint.
     DOI: 10.26434/chemrxiv.8326202.v1
   for GFN-FF:
   * S. Spicher and S. Grimme, Angew. Chem. Int. Ed., 2020, 59, 15665-15673.
     DOI: 10.1002/anie.202004239
   
   for ALPB and GBSA implicit solvation:
   * S. Ehlert, M. Stahn, S. Spicher, S. Grimme, J. Chem. Theory Comput.,
     2021, 17, 4250-4261. DOI: 10.1021/acs.jctc.1c00471
   
   for ddCOSMO and CPCM-X implicit solvation:
   * M. Stahn, S. Ehlert, S. Grimme, J. Phys. Chem. A,
     2023, XX, XXXX-XXXX. DOI: 10.1021/acs.jpca.3c04382
   
   for DFT-D4:
   * E. Caldeweyher, C. Bannwarth and S. Grimme, J. Chem. Phys., 2017,
     147, 034112. DOI: 10.1063/1.4993215
   * E. Caldeweyher, S. Ehlert, A. Hansen, H. Neugebauer, S. Spicher,
     C. Bannwarth and S. Grimme, J. Chem. Phys., 2019, 150, 154122.
     DOI: 10.1063/1.5090222
   * E. Caldeweyher, J.-M. Mewes, S. Ehlert and S. Grimme, Phys. Chem. Chem. Phys.
     2020, 22, 8499-8512. DOI: 10.1039/D0CP00502A
   
   for sTDA-xTB:
   * S. Grimme and C. Bannwarth, J. Chem. Phys., 2016, 145, 054103.
     DOI: 10.1063/1.4959605
   
   in the mass-spec context:
   * V. Asgeirsson, C. Bauer and S. Grimme, Chem. Sci., 2017, 8, 4879.
     DOI: 10.1039/c7sc00601b
   * J. Koopman and S. Grimme, ACS Omega 2019, 4, 12, 15120-15133.
     DOI: 10.1021/acsomega.9b02011
   
   for metadynamics refer to:
   * S. Grimme, J. Chem. Theory Comput., 2019, 155, 2847-2862
     DOI: 10.1021/acs.jctc.9b00143
   
   for SPH calculations refer to:
   * S. Spicher and S. Grimme, J. Chem. Theory Comput., 2021, 17, 1701-1714
     DOI: 10.1021/acs.jctc.0c01306
   
   for ONIOM refer to:
   * C. Plett, A. Katbashev, S. Ehlert, S. Grimme, M. Bursch,
     Phys. Chem. Chem. Phys., 2023, 25, 17860-17868. DOI: 10.1039/D3CP02178E
   
   for DIPRO refer to:
   * J. Kohn, N. Gildemeister, S. Grimme, D. Fazzi, A. Hansen,
     J. Chem. Phys., 2023, just accepted.
   
   for PTB refer to:
   * S. Grimme, M. Mueller, A. Hansen, J. Chem. Phys., 2023, 158, 124111.
     DOI: 10.1063/5.0137838
   
   with help from (in alphabetical order)
   P. Atkinson, C. Bannwarth, F. Bohle, G. Brandenburg, E. Caldeweyher
   M. Checinski, S. Dohm, S. Ehlert, S. Ehrlich, I. Gerasimov, C. Hölzer
   A. Katbashev, J. Kohn, J. Koopman, C. Lavigne, S. Lehtola, F. März, M. Müller,
   F. Musil, H. Neugebauer, J. Pisarek, C. Plett, P. Pracht, F. Pultar,
   J. Seibert, P. Shushkov, S. Spicher, M. Stahn, M. Steiner, T. Strunk,
   J. Stückrath, T. Rose, and J. Unsleber
   
 * started run on 2025/12/01 at 14:22:05.866     
   ID    Z sym.   atoms
    1    6 C      1, 3, 5-12
    2    8 O      2, 4
    3    1 H      13-22

           -------------------------------------------------
          |                Calculation Setup                |
           -------------------------------------------------

          program call               : xtb pipeline_data/3_conformer_xyz/acrylates/rdkit/CCRCUPLGCSFEDV-BQYQJAHWSA-N_conf45.xyz --opt --gfn 2-xTB --iterations 250
          coordinate file            : pipeline_data/3_conformer_xyz/acrylates/rdkit/CCRCUPLGCSFEDV-BQYQJAHWSA-N_conf45.xyz
          omp threads                :                    24

########################################################################
[WARNING] Please study the warnings concerning your input carefully
-1- readin_getIntValue: could not parse '2-xTB'
########################################################################

           -------------------------------------------------
          |                 G F N 2 - x T B                 |
           -------------------------------------------------

        Reference                      10.1021/acs.jctc.8b01176
      * Hamiltonian:
        H0-scaling (s, p, d)           1.850000    2.230000    2.230000
        zeta-weighting                 0.500000
      * Dispersion:
        s8                             2.700000
        a1                             0.520000
        a2                             5.000000
        s9                             5.000000
      * Repulsion:
        kExp                           1.500000    1.000000
        rExp                           1.000000
      * Coulomb:
        alpha                          2.000000
        third order                    shell-resolved
        anisotropic                    true
        a3                             3.000000
        a5                             4.000000
        cn-shift                       1.200000
        cn-exp                         4.000000
        max-rad                        5.000000


          ...................................................
          :                      SETUP                      :
          :.................................................:
          :  # basis functions                  58          :
          :  # atomic orbitals                  58          :
          :  # shells                           34          :
          :  # electrons                        62          :
          :  max. iterations                   250          :
          :  Hamiltonian                  GFN2-xTB          :
          :  restarted?                      false          :
          :  GBSA solvation                  false          :
          :  PC potential                    false          :
          :  electronic temp.          300.0000000     K    :
          :  accuracy                    1.0000000          :
          :  -> integral cutoff          0.2500000E+02      :
          :  -> integral neglect         0.1000000E-07      :
          :  -> SCF convergence          0.1000000E-05 Eh   :
          :  -> wf. convergence          0.1000000E-03 e    :
          :  Broyden damping             0.4000000          :
          :  net charge                          0          :
          :  unpaired electrons                  0          :
          ...................................................

 iter      E             dE          RMSdq      gap      omega  full diag
   1    -35.0491941 -0.350492E+02  0.484E+00    3.16       0.0  T
   2    -35.1056099 -0.564157E-01  0.261E+00    2.76       1.0  T
   3    -35.1031792  0.243065E-02  0.142E+00    3.18       1.0  T
   4    -35.1128795 -0.970031E-02  0.310E-01    3.02       1.0  T
   5    -35.1139849 -0.110542E-02  0.147E-01    3.05       1.0  T
   6    -35.1143460 -0.361052E-03  0.516E-02    3.05       1.0  T
   7    -35.1143552 -0.916264E-05  0.210E-02    3.05       1.0  T
   8    -35.1143557 -0.530925E-06  0.895E-03    3.05       2.4  T
   9    -35.1143566 -0.871996E-06  0.293E-03    3.05       7.3  T
  10    -35.1143566 -0.348100E-07  0.109E-03    3.05      19.6  T
  11    -35.1143566 -0.247120E-08  0.506E-04    3.05      42.1  T
  12    -35.1143566 -0.177494E-08  0.159E-04    3.05     134.0  T

   *** convergence criteria satisfied after 12 iterations ***

         #    Occupation            Energy/Eh            Energy/eV
      -------------------------------------------------------------
         1        2.0000           -0.7274367             -19.7946
       ...           ...                  ...                  ...
        25        2.0000           -0.4540366             -12.3550
        26        2.0000           -0.4418954             -12.0246
        27        2.0000           -0.4368176             -11.8864
        28        2.0000           -0.4293593             -11.6835
        29        2.0000           -0.4165876             -11.3359
        30        2.0000           -0.4071403             -11.0789
        31        2.0000           -0.4056357             -11.0379 (HOMO)
        32                         -0.2934441              -7.9850 (LUMO)
        33                         -0.2359975              -6.4218
        34                         -0.2220238              -6.0416
        35                         -0.1630241              -4.4361
        36                         -0.0875343              -2.3819
       ...                                ...                  ...
        58                          0.6988073              19.0155
      -------------------------------------------------------------
                  HL-Gap            0.1121916 Eh            3.0529 eV
             Fermi-level           -0.3495399 Eh           -9.5115 eV

 SCC (total)                   0 d,  0 h,  0 min,  0.021 sec
 SCC setup                      ...        0 min,  0.000 sec (  0.989%)
 Dispersion                     ...        0 min,  0.000 sec (  1.089%)
 classical contributions        ...        0 min,  0.000 sec (  0.246%)
 integral evaluation            ...        0 min,  0.001 sec (  3.216%)
 iterations                     ...        0 min,  0.017 sec ( 81.216%)
 molecular gradient             ...        0 min,  0.003 sec ( 12.471%)
 printout                       ...        0 min,  0.000 sec (  0.648%)

         :::::::::::::::::::::::::::::::::::::::::::::::::::::
         ::                     SUMMARY                     ::
         :::::::::::::::::::::::::::::::::::::::::::::::::::::
         :: total energy             -34.599142713763 Eh    ::
         :: gradient norm              0.119423345672 Eh/a0 ::
         :: HOMO-LUMO gap              3.052888310407 eV    ::
         ::.................................................::
         :: SCC energy               -35.114477861508 Eh    ::
         :: -> isotropic ES            0.049956492382 Eh    ::
         :: -> anisotropic ES         -0.000011933757 Eh    ::
         :: -> anisotropic XC          0.014503587143 Eh    ::
         :: -> dispersion             -0.017455632784 Eh    ::
         :: repulsion energy           0.515335147746 Eh    ::
         :: add. restraining           0.000000000000 Eh    ::
         :: total charge               0.000000000000 e     ::
         :::::::::::::::::::::::::::::::::::::::::::::::::::::

      ----------------------------------------------------------- 
     |                   =====================                   |
     |                        A N C O P T                        |
     |                   =====================                   |
     |               Approximate Normal Coordinate               |
     |                Rational Function Optimizer                |
      ----------------------------------------------------------- 
      ----------------------------------------------------------- 
     |                   =====================                   |
     |                        A N C O P T                        |
     |                   =====================                   |
     |               Approximate Normal Coordinate               |
     |                Rational Function Optimizer                |
      ----------------------------------------------------------- 

          ...................................................
          :                      SETUP                      :
          :.................................................:
          :   optimization level            normal          :
          :   max. optcycles                   200          :
          :   ANC micro-cycles                  20          :
          :   degrees of freedom                60          :
          :.................................................:
          :   RF solver                   davidson          :
          :   write xtbopt.log                true          :
          :   linear?                        false          :
          :   energy convergence         0.5000000E-05 Eh   :
          :   grad. convergence          0.1000000E-02 Eh/α :
          :   maxmium RF displ.          1.0000000          :
          :   Hlow (freq-cutoff)         0.1000000E-01      :
          :   Hmax (freq-cutoff)         5.0000000          :
          :   S6 in model hess.         20.0000000          :
          ...................................................

generating ANC from exact Hessian ...
Using Lindh-Hessian (1995)
 Shifting diagonal of input Hessian by   9.310150981573218E-003
 Lowest  eigenvalues of input Hessian
    0.000000    0.000000    0.000000    0.000000    0.000000    0.000000
    0.010000    0.011276    0.011434    0.013421    0.017652    0.018792
    0.021176    0.024936    0.027879    0.029748    0.031114    0.036642
 Highest eigenvalues
    1.757247    1.906783    1.926387    2.021267    2.077338    2.160136
 

........................................................................
.............................. CYCLE    1 ..............................
........................................................................

 iter      E             dE          RMSdq      gap      omega  full diag
   1    -35.1143566 -0.351144E+02  0.585E-05    3.05       0.0  T
   2    -35.1143566 -0.445510E-11  0.354E-05    3.05     602.1  T
   3    -35.1143566  0.461853E-11  0.240E-05    3.05     887.8  T
     SCC iter.                  ...        0 min,  0.003 sec
     gradient                   ...        0 min,  0.002 sec
 * total energy  :   -34.5991427 Eh     change       -0.4346674E-09 Eh
   gradient norm :     0.1194229 Eh/α   predicted     0.0000000E+00 (-100.00%)
   displ. norm   :     0.3003162 α      lambda       -0.1808750E-01
   maximum displ.:     0.1538213 α      in ANC's #16, #15, #33, ...

........................................................................
.............................. CYCLE    2 ..............................
........................................................................

 iter      E             dE          RMSdq      gap      omega  full diag
   1    -35.1295180 -0.351295E+02  0.318E-01    3.04       0.0  T
   2    -35.1297601 -0.242033E-03  0.195E-01    3.01       1.0  T
   3    -35.1297447  0.154239E-04  0.745E-02    3.00       1.0  T
   4    -35.1297861 -0.413982E-04  0.159E-02    3.00       1.3  T
   5    -35.1297880 -0.198756E-05  0.770E-03    3.00       2.8  T
   6    -35.1297885 -0.443756E-06  0.326E-03    3.00       6.5  T
   7    -35.1297886 -0.870672E-07  0.137E-03    3.00      15.5  T
   8    -35.1297886 -0.105517E-07  0.740E-04    3.00      28.8  T
   9    -35.1297886 -0.555540E-08  0.282E-04    3.00      75.5  T
     SCC iter.                  ...        0 min,  0.009 sec
     gradient                   ...        0 min,  0.002 sec
 * total energy  :   -34.6112466 Eh     change       -0.1210388E-01 Eh
   gradient norm :     0.0423893 Eh/α   predicted    -0.9864432E-02 ( -18.50%)
   displ. norm   :     0.2245897 α      lambda       -0.3838517E-02
   maximum displ.:     0.1233262 α      in ANC's #10, #16, #6, ...

........................................................................
.............................. CYCLE    3 ..............................
........................................................................

 iter      E             dE          RMSdq      gap      omega  full diag
   1    -35.1379665 -0.351380E+02  0.185E-01    3.02       0.0  T
   2    -35.1380411 -0.746563E-04  0.111E-01    3.00       1.0  T
   3    -35.1380381  0.302048E-05  0.374E-02    3.00       1.0  T
   4    -35.1380472 -0.903335E-05  0.938E-03    2.99       2.3  T
   5    -35.1380478 -0.675684E-06  0.448E-03    2.99       4.8  T
   6    -35.1380480 -0.207417E-06  0.167E-03    3.00      12.8  T
   7    -35.1380481 -0.258480E-07  0.745E-04    3.00      28.6  T
   8    -35.1380481 -0.425178E-08  0.360E-04    3.00      59.2  T
     SCC iter.                  ...        0 min,  0.008 sec
     gradient                   ...        0 min,  0.002 sec
 * total energy  :   -34.6132893 Eh     change       -0.2042744E-02 Eh
   gradient norm :     0.0114830 Eh/α   predicted    -0.2016439E-02 (  -1.29%)
   displ. norm   :     0.0978020 α      lambda       -0.2592157E-03
   maximum displ.:     0.0726001 α      in ANC's #2, #6, #10, ...

........................................................................
.............................. CYCLE    4 ..............................
........................................................................

 iter      E             dE          RMSdq      gap      omega  full diag
   1    -35.1387267 -0.351387E+02  0.390E-02    3.00       0.0  T
   2    -35.1387284 -0.165198E-05  0.244E-02    3.00       1.0  T
   3    -35.1387260  0.238600E-05  0.122E-02    3.00       1.8  T
   4    -35.1387287 -0.269373E-05  0.321E-03    3.00       6.6  T
   5    -35.1387289 -0.168414E-06  0.753E-04    3.00      28.3  T
   6    -35.1387289 -0.279037E-08  0.448E-04    3.00      47.6  T
     SCC iter.                  ...        0 min,  0.006 sec
     gradient                   ...        0 min,  0.002 sec
 * total energy  :   -34.6134722 Eh     change       -0.1828837E-03 Eh
   gradient norm :     0.0052603 Eh/α   predicted    -0.1309220E-03 ( -28.41%)
   displ. norm   :     0.1319591 α      lambda       -0.1653789E-03
   maximum displ.:     0.1141737 α      in ANC's #2, #6, #10, ...

........................................................................
.............................. CYCLE    5 ..............................
........................................................................

 iter      E             dE          RMSdq      gap      omega  full diag
   1    -35.1396019 -0.351396E+02  0.407E-02    3.01       0.0  T
   2    -35.1396029 -0.976737E-06  0.245E-02    3.01       1.0  T
   3    -35.1396025  0.391716E-06  0.511E-03    3.01       4.2  T
   4    -35.1396028 -0.360680E-06  0.265E-03    3.01       8.0  T
   5    -35.1396030 -0.137022E-06  0.699E-04    3.01      30.5  T
   6    -35.1396030 -0.190438E-08  0.426E-04    3.01      50.0  T
     SCC iter.                  ...        0 min,  0.006 sec
     gradient                   ...        0 min,  0.002 sec
 * total energy  :   -34.6135719 Eh     change       -0.9966545E-04 Eh
   gradient norm :     0.0035556 Eh/α   predicted    -0.8413116E-04 ( -15.59%)
   displ. norm   :     0.0807202 α      lambda       -0.6507885E-04
   maximum displ.:     0.0765914 α      in ANC's #2, #6, #15, ...

........................................................................
.............................. CYCLE    6 ..............................
........................................................................

 iter      E             dE          RMSdq      gap      omega  full diag
   1    -35.1399597 -0.351400E+02  0.239E-02    3.02       0.0  T
   2    -35.1399598 -0.811307E-07  0.142E-02    3.02       1.5  T
   3    -35.1399594  0.424435E-06  0.485E-03    3.02       4.4  T
   4    -35.1399598 -0.475882E-06  0.842E-04    3.02      25.3  T
   5    -35.1399598 -0.835768E-08  0.372E-04    3.02      57.3  T
     SCC iter.                  ...        0 min,  0.005 sec
     gradient                   ...        0 min,  0.002 sec
 * total energy  :   -34.6136184 Eh     change       -0.4654127E-04 Eh
   gradient norm :     0.0033409 Eh/α   predicted    -0.3275586E-04 ( -29.62%)
   displ. norm   :     0.0622418 α      lambda       -0.4303090E-04
   maximum displ.:     0.0603578 α      in ANC's #2, #13, #19, ...

........................................................................
.............................. CYCLE    7 ..............................
........................................................................

 iter      E             dE          RMSdq      gap      omega  full diag
   1    -35.1398950 -0.351399E+02  0.181E-02    3.02       0.0  T
   2    -35.1398951 -0.628401E-07  0.109E-02    3.02       2.0  T
   3    -35.1398947  0.357238E-06  0.427E-03    3.02       5.0  T
   4    -35.1398951 -0.401706E-06  0.664E-04    3.02      32.1  T
   5    -35.1398951 -0.500635E-08  0.320E-04    3.02      66.7  T
     SCC iter.                  ...        0 min,  0.005 sec
     gradient                   ...        0 min,  0.002 sec
 * total energy  :   -34.6136544 Eh     change       -0.3600259E-04 Eh
   gradient norm :     0.0020791 Eh/α   predicted    -0.2160090E-04 ( -40.00%)
   displ. norm   :     0.0596014 α      lambda       -0.3182107E-04
   maximum displ.:     0.0578141 α      in ANC's #2, #4, #9, ...

........................................................................
.............................. CYCLE    8 ..............................
........................................................................

 iter      E             dE          RMSdq      gap      omega  full diag
   1    -35.1397260 -0.351397E+02  0.162E-02    3.02       0.0  T
   2    -35.1397261 -0.723172E-07  0.973E-03    3.02       2.2  T
   3    -35.1397260  0.513430E-07  0.188E-03    3.02      11.3  T
   4    -35.1397261 -0.654036E-07  0.526E-04    3.02      40.6  T
   5    -35.1397261 -0.305682E-08  0.256E-04    3.02      83.3  T
     SCC iter.                  ...        0 min,  0.005 sec
     gradient                   ...        0 min,  0.002 sec
 * total energy  :   -34.6136806 Eh     change       -0.2621957E-04 Eh
   gradient norm :     0.0012785 Eh/α   predicted    -0.1596840E-04 ( -39.10%)
   displ. norm   :     0.0724457 α      lambda       -0.1853207E-04
   maximum displ.:     0.0702362 α      in ANC's #2, #4, #9, ...

........................................................................
.............................. CYCLE    9 ..............................
........................................................................

 iter      E             dE          RMSdq      gap      omega  full diag
   1    -35.1396306 -0.351396E+02  0.172E-02    3.01       0.0  T
   2    -35.1396307 -0.111130E-06  0.103E-02    3.01       2.1  T
   3    -35.1396305  0.161653E-06  0.325E-03    3.01       6.6  T
   4    -35.1396307 -0.180909E-06  0.968E-04    3.01      22.0  T
   5    -35.1396307 -0.142949E-07  0.326E-04    3.01      65.4  T
     SCC iter.                  ...        0 min,  0.005 sec
     gradient                   ...        0 min,  0.002 sec
 * total energy  :   -34.6137033 Eh     change       -0.2260149E-04 Eh
   gradient norm :     0.0012976 Eh/α   predicted    -0.9288991E-05 ( -58.90%)
   displ. norm   :     0.0500803 α      lambda       -0.1010407E-04
   maximum displ.:     0.0478570 α      in ANC's #2, #4, #9, ...

........................................................................
.............................. CYCLE   10 ..............................
........................................................................

 iter      E             dE          RMSdq      gap      omega  full diag
   1    -35.1397527 -0.351398E+02  0.991E-03    3.01       0.0  T
   2    -35.1397528 -0.392262E-07  0.600E-03    3.01       3.6  T
   3    -35.1397527  0.864799E-07  0.222E-03    3.01       9.6  T
   4    -35.1397528 -0.991594E-07  0.625E-04    3.01      34.1  T
   5    -35.1397528 -0.540125E-08  0.238E-04    3.01      89.5  T
     SCC iter.                  ...        0 min,  0.005 sec
     gradient                   ...        0 min,  0.002 sec
 * total energy  :   -34.6137163 Eh     change       -0.1306949E-04 Eh
   gradient norm :     0.0007204 Eh/α   predicted    -0.5058159E-05 ( -61.30%)
   displ. norm   :     0.0435346 α      lambda       -0.6549492E-05
   maximum displ.:     0.0406640 α      in ANC's #2, #4, #9, ...

........................................................................
.............................. CYCLE   11 ..............................
........................................................................

 iter      E             dE          RMSdq      gap      omega  full diag
   1    -35.1398443 -0.351398E+02  0.893E-03    3.02       0.0  T
   2    -35.1398444 -0.227332E-07  0.537E-03    3.02       4.0  T
   3    -35.1398443  0.176626E-07  0.114E-03    3.02      18.7  T
   4    -35.1398444 -0.232387E-07  0.456E-04    3.02      46.7  T
   5    -35.1398444 -0.263306E-08  0.218E-04    3.02      97.6  T
     SCC iter.                  ...        0 min,  0.005 sec
     gradient                   ...        0 min,  0.002 sec
 * total energy  :   -34.6137246 Eh     change       -0.8315714E-05 Eh
   gradient norm :     0.0002779 Eh/α   predicted    -0.3279025E-05 ( -60.57%)
   displ. norm   :     0.0369211 α      lambda       -0.3840243E-05
   maximum displ.:     0.0336034 α      in ANC's #2, #4, #5, ...

........................................................................
.............................. CYCLE   12 ..............................
........................................................................

 iter      E             dE          RMSdq      gap      omega  full diag
   1    -35.1399092 -0.351399E+02  0.802E-03    3.02       0.0  T
   2    -35.1399092 -0.133698E-07  0.478E-03    3.02       4.5  T
   3    -35.1399092  0.886260E-09  0.597E-04    3.02      35.7  T
   4    -35.1399092 -0.453218E-08  0.249E-04    3.02      85.6  T
     SCC iter.                  ...        0 min,  0.004 sec
     gradient                   ...        0 min,  0.002 sec
 * total energy  :   -34.6137295 Eh     change       -0.4902187E-05 Eh
   gradient norm :     0.0002466 Eh/α   predicted    -0.1922124E-05 ( -60.79%)
   displ. norm   :     0.0319176 α      lambda       -0.2366380E-05
   maximum displ.:     0.0280705 α      in ANC's #2, #4, #5, ...

   *** GEOMETRY OPTIMIZATION CONVERGED AFTER 12 ITERATIONS ***

------------------------------------------------------------------------
 total energy gain   :        -0.0145868 Eh       -9.1534 kcal/mol
 total RMSD          :         0.1891204 a0        0.1001 Å
 total power (kW/mol):        -3.1914752 (step) -363.1633 (real)
------------------------------------------------------------------------

 ANCopt (total)                0 d,  0 h,  0 min,  0.105 sec
 optimizer setup                ...        0 min,  0.000 sec (  0.107%)
 model hessian                  ...        0 min,  0.003 sec (  3.203%)
 ANC generation                 ...        0 min,  0.001 sec (  0.506%)
 coordinate transformation      ...        0 min,  0.000 sec (  0.094%)
 single point calculation       ...        0 min,  0.097 sec ( 92.348%)
 optimization log               ...        0 min,  0.002 sec (  1.602%)
 hessian update                 ...        0 min,  0.001 sec (  1.012%)
 rational function              ...        0 min,  0.001 sec (  0.609%)

================
 final structure:
================
22
 xtb: 6.7.1 (edcfbbe)
C            4.42836543345151       -0.42005047438395       -0.50998541518382
O            3.02552470526100       -0.26227520047071       -0.37573871108524
C            2.46765490909565       -0.90117556844311        0.67100826846180
O            3.11132242659323       -1.56460274989049        1.44980083374313
C            1.01595647061814       -0.70842046697918        0.76569062801785
C            0.30154126979224        0.01833565964956       -0.10271735652415
C           -1.13052409425726        0.24734083883688       -0.06988134815366
C           -1.70862269528347        1.03474771983717       -1.07032939708416
C           -3.06743382214633        1.28180084517749       -1.08401631148282
C           -3.87981033740330        0.74728146415210       -0.09721987940890
C           -3.32221406828085       -0.03519119890028        0.90201770875621
C           -1.96420839975837       -0.28399384655244        0.91816933347147
H            4.72430154895472        0.18872233847399       -1.36060740831927
H            4.67790214250506       -1.46921338510685       -0.68398417718709
H            4.93722569348880       -0.08700640731046        0.39737752492197
H            0.57183414508990       -1.21487819991279        1.60925656408846
H            0.82839865321378        0.49156858618412       -0.92169999634848
H           -1.07874976226776        1.45376014786917       -1.84217226958892
H           -3.49635220477365        1.89230797995500       -1.86505919478112
H           -4.94242820230099        0.93904465333248       -0.10598560617302
H           -3.95270101401502       -0.45331769800524        1.67300637443158
H           -1.54698379757717       -0.89478403751233        1.70306783542801
 
 Bond Distances (Angstroems)
 ---------------------------
C1-O2=1.4181         C1-H13=1.0871        C1-H14=1.0924        C1-H15=1.0923        O2-C1=1.4181         O2-C3=1.3473         
C3-O2=1.3473         C3-O4=1.2087         C3-C5=1.4675         O4-C3=1.2087         C5-C3=1.4675         C5-C6=1.3389         
C5-H16=1.0795        C6-C5=1.3389         C6-C7=1.4506         C6-H17=1.0827        C7-C6=1.4506         C7-C8=1.3983         
C7-C12=1.3977        C8-C7=1.3983         C8-C9=1.3812         C8-H18=1.0808        C9-C8=1.3812         C9-C10=1.3854        
C9-H19=1.0801        C10-C9=1.3854        C10-C11=1.3862       C10-H20=1.0798       C11-C10=1.3862       C11-C12=1.3807       
C11-H21=1.0802       C12-C7=1.3977        C12-C11=1.3807       C12-H22=1.0785       H13-C1=1.0871        H14-C1=1.0924        
H15-C1=1.0923        H16-C5=1.0795        H17-C6=1.0827        H18-C8=1.0808        H19-C9=1.0801        H20-C10=1.0798       
H21-C11=1.0802       H22-C12=1.0785       
 C  H  Rav=1.0833 sigma=0.0050  Rmin=1.0785  Rmax=1.0924    10
 C  C  Rav=1.3985 sigma=0.0365  Rmin=1.3389  Rmax=1.4675     9
 O  C  Rav=1.3247 sigma=0.0869  Rmin=1.2087  Rmax=1.4181     3
 
 selected bond angles (degree)
 --------------------
H13-C1-O2=106.32               H14-C1-O2=110.36               H14-C1-H13=110.55              H15-C1-O2=110.38               
H15-C1-H13=110.64              H15-C1-H14=108.59              C3-O2-C1=115.49                O4-C3-O2=122.71                
C5-C3-O2=113.42                C5-C3-O4=123.87                C6-C5-C3=123.87                H16-C5-C3=113.31               
H16-C5-C6=122.82               C7-C6-C5=126.71                H17-C6-C5=117.92               H17-C6-C7=115.37               
C8-C7-C6=118.74                C12-C7-C6=123.01               C12-C7-C8=118.25               C9-C8-C7=120.97                
H18-C8-C7=119.23               H18-C8-C9=119.80               C10-C9-C8=120.05               H19-C9-C8=119.93               
H19-C9-C10=120.02              C11-C10-C9=119.69              H20-C10-C9=120.18              H20-C10-C11=120.13             
 
 selected dihedral angles (degree)
 ---------------------------------
C3-O2-C1-H13=182.72           C3-O2-C1-H14= 62.80           C3-O2-C1-H15=302.76           O4-C3-O2-C1=  0.12            
C5-C3-O2-C1=180.06            C6-C5-C3-O2=  0.57            C6-C5-C3-O4=180.52            H16-C5-C3-O2=180.44           
H16-C5-C3-O4=  0.38           C7-C6-C5-C3=179.88            C7-C6-C5-H16=  0.03           H17-C6-C5-C3=359.93           
H17-C6-C5-H16=180.08          C8-C7-C6-C5=180.26            C8-C7-C6-H17=  0.21           C12-C7-C6-C5=  0.24           
C12-C7-C6-H17=180.19          C9-C8-C7-C6=179.96            C9-C8-C7-C12=359.98           H18-C8-C7-C6=359.98           
H18-C8-C7-C12=179.99          C10-C9-C8-C7=  0.00           C10-C9-C8-H18=180.00          H19-C9-C8-C7=180.01           
H19-C9-C8-H18=  0.00          C11-C10-C9-C8=  0.00          C11-C10-C9-H19=180.01         H20-C10-C9-C8=180.01          
H20-C10-C9-H19=  0.00         
           -------------------------------------------------
          |                Final Singlepoint                |
           -------------------------------------------------

          ...................................................
          :                      SETUP                      :
          :.................................................:
          :  # basis functions                  58          :
          :  # atomic orbitals                  58          :
          :  # shells                           34          :
          :  # electrons                        62          :
          :  max. iterations                   250          :
          :  Hamiltonian                  GFN2-xTB          :
          :  restarted?                      false          :
          :  GBSA solvation                  false          :
          :  PC potential                    false          :
          :  electronic temp.          300.0000000     K    :
          :  accuracy                    1.0000000          :
          :  -> integral cutoff          0.2500000E+02      :
          :  -> integral neglect         0.1000000E-07      :
          :  -> SCF convergence          0.1000000E-05 Eh   :
          :  -> wf. convergence          0.1000000E-03 e    :
          :  Broyden damping             0.4000000          :
          :  net charge                          0          :
          :  unpaired electrons                  0          :
          ...................................................

 iter      E             dE          RMSdq      gap      omega  full diag
   1    -35.1399092 -0.351399E+02  0.146E-04    3.02       0.0  T
   2    -35.1399092 -0.376019E-10  0.104E-04    3.02     204.1  T
   3    -35.1399092 -0.594724E-10  0.704E-05    3.02     302.8  T

   *** convergence criteria satisfied after 3 iterations ***

         #    Occupation            Energy/Eh            Energy/eV
      -------------------------------------------------------------
         1        2.0000           -0.7372956             -20.0628
       ...           ...                  ...                  ...
        25        2.0000           -0.4502592             -12.2522
        26        2.0000           -0.4427865             -12.0488
        27        2.0000           -0.4404997             -11.9866
        28        2.0000           -0.4301357             -11.7046
        29        2.0000           -0.4168892             -11.3441
        30        2.0000           -0.4095981             -11.1457
        31        2.0000           -0.4004816             -10.8977 (HOMO)
        32                         -0.2896226              -7.8810 (LUMO)
        33                         -0.2339047              -6.3649
        34                         -0.2162832              -5.8854
        35                         -0.1555620              -4.2331
        36                         -0.0883947              -2.4053
       ...                                ...                  ...
        58                          0.7170711              19.5125
      -------------------------------------------------------------
                  HL-Gap            0.1108591 Eh            3.0166 eV
             Fermi-level           -0.3450521 Eh           -9.3893 eV

 SCC (total)                   0 d,  0 h,  0 min,  0.009 sec
 SCC setup                      ...        0 min,  0.003 sec ( 29.686%)
 Dispersion                     ...        0 min,  0.000 sec (  1.118%)
 classical contributions        ...        0 min,  0.001 sec (  8.619%)
 integral evaluation            ...        0 min,  0.000 sec (  5.648%)
 iterations                     ...        0 min,  0.003 sec ( 33.428%)
 molecular gradient             ...        0 min,  0.002 sec ( 19.950%)
 printout                       ...        0 min,  0.000 sec (  1.153%)

         :::::::::::::::::::::::::::::::::::::::::::::::::::::
         ::                     SUMMARY                     ::
         :::::::::::::::::::::::::::::::::::::::::::::::::::::
         :: total energy             -34.613729538671 Eh    ::
         :: gradient norm              0.000246229137 Eh/a0 ::
         :: HOMO-LUMO gap              3.016628417225 eV    ::
         ::.................................................::
         :: SCC energy               -35.140023120097 Eh    ::
         :: -> isotropic ES            0.046017159956 Eh    ::
         :: -> anisotropic ES          0.001323372450 Eh    ::
         :: -> anisotropic XC          0.014211834464 Eh    ::
         :: -> dispersion             -0.017588939062 Eh    ::
         :: repulsion energy           0.526293581426 Eh    ::
         :: add. restraining           0.000000000000 Eh    ::
         :: total charge              -0.000000000000 e     ::
         :::::::::::::::::::::::::::::::::::::::::::::::::::::

           -------------------------------------------------
          |                Property Printout                |
           -------------------------------------------------

    * Orbital Energies and Occupations

         #    Occupation            Energy/Eh            Energy/eV
      -------------------------------------------------------------
         1        2.0000           -0.7372956             -20.0628
       ...           ...                  ...                  ...
        19        2.0000           -0.4984354             -13.5631
        20        2.0000           -0.4945695             -13.4579
        21        2.0000           -0.4900404             -13.3347
        22        2.0000           -0.4873791             -13.2623
        23        2.0000           -0.4725077             -12.8576
        24        2.0000           -0.4590923             -12.4925
        25        2.0000           -0.4502592             -12.2522
        26        2.0000           -0.4427865             -12.0488
        27        2.0000           -0.4404997             -11.9866
        28        2.0000           -0.4301357             -11.7046
        29        2.0000           -0.4168892             -11.3441
        30        2.0000           -0.4095981             -11.1457
        31        2.0000           -0.4004816             -10.8977 (HOMO)
        32                         -0.2896226              -7.8810 (LUMO)
        33                         -0.2339047              -6.3649
        34                         -0.2162832              -5.8854
        35                         -0.1555620              -4.2331
        36                         -0.0883947              -2.4053
        37                          0.0228533               0.6219
        38                          0.0953713               2.5952
        39                          0.1089682               2.9652
        40                          0.1145791               3.1179
        41                          0.1345087               3.6602
        42                          0.1403113               3.8181
       ...                                ...                  ...
        58                          0.7170711              19.5125
      -------------------------------------------------------------
                  HL-Gap            0.1108591 Eh            3.0166 eV
             Fermi-level           -0.3450521 Eh           -9.3893 eV

     #   Z          covCN         q      C6AA      α(0)
     1   6 C        3.658     0.037    20.237     6.456
     2   8 O        1.704    -0.270    18.477     5.804
     3   6 C        2.729     0.351    21.035     7.509
     4   8 O        0.857    -0.418    22.036     6.294
     5   6 C        2.892    -0.072    29.790     8.949
     6   6 C        2.903    -0.015    28.377     8.735
     7   6 C        2.970     0.017    27.632     8.622
     8   6 C        2.928    -0.029    28.734     8.791
     9   6 C        2.917    -0.027    28.688     8.783
    10   6 C        2.920    -0.025    28.628     8.774
    11   6 C        2.917    -0.027    28.676     8.781
    12   6 C        2.923    -0.028    28.709     8.787
    13   1 H        0.925     0.064     2.152     2.294
    14   1 H        0.924     0.060     2.196     2.318
    15   1 H        0.924     0.062     2.177     2.307
    16   1 H        0.926     0.067     2.121     2.277
    17   1 H        0.925     0.062     2.174     2.306
    18   1 H        0.926     0.038     2.474     2.460
    19   1 H        0.926     0.036     2.497     2.471
    20   1 H        0.926     0.037     2.489     2.467
    21   1 H        0.926     0.037     2.484     2.465
    22   1 H        0.926     0.042     2.419     2.432

 Mol. C6AA /au·bohr⁶  :       5770.952802
 Mol. C8AA /au·bohr⁸  :     138219.858661
 Mol. α(0) /au        :        120.079758


Wiberg/Mayer (AO) data.
largest (>0.10) Wiberg bond orders for each atom

 ---------------------------------------------------------------------------
     #   Z sym  total        # sym  WBO       # sym  WBO       # sym  WBO
 ---------------------------------------------------------------------------
     1   6 C    3.930 --    13 H    0.982    14 H    0.977    15 H    0.976
                             2 O    0.963
     2   8 O    2.287 --     3 C    1.101     1 C    0.963     4 O    0.164
     3   6 C    3.919 --     4 O    1.714     2 O    1.101     5 C    1.040
     4   8 O    2.013 --     3 C    1.714     2 O    0.164
     5   6 C    3.987 --     6 C    1.778     3 C    1.040    16 H    0.959
     6   6 C    3.984 --     5 C    1.778     7 C    1.115    17 H    0.959
     7   6 C    3.990 --     8 C    1.365    12 C    1.362     6 C    1.115
     8   6 C    3.984 --     9 C    1.460     7 C    1.365    18 H    0.968
                            11 C    0.103
     9   6 C    3.992 --     8 C    1.460    10 C    1.430    19 H    0.971
                            12 C    0.105
    10   6 C    3.983 --     9 C    1.430    11 C    1.425    20 H    0.971
    11   6 C    3.992 --    12 C    1.466    10 C    1.425    21 H    0.970
                             8 C    0.103
    12   6 C    3.991 --    11 C    1.466     7 C    1.362    22 H    0.965
                             9 C    0.105
    13   1 H    0.996 --     1 C    0.982
    14   1 H    0.996 --     1 C    0.977
    15   1 H    0.996 --     1 C    0.976
    16   1 H    0.995 --     5 C    0.959
    17   1 H    0.996 --     6 C    0.959
    18   1 H    0.999 --     8 C    0.968
    19   1 H    0.998 --     9 C    0.971
    20   1 H    0.998 --    10 C    0.971
    21   1 H    0.998 --    11 C    0.970
    22   1 H    0.998 --    12 C    0.965
 ---------------------------------------------------------------------------

Topologies differ in total number of bonds
Writing topology from bond orders to xtbtopo.mol

molecular dipole:
                 x           y           z       tot (Debye)
 q only:       -0.737       0.649      -0.736
   full:       -0.734       0.691      -0.800       3.269
molecular quadrupole (traceless):
                xx          xy          yy          xz          yz          zz
 q only:        6.274       4.856      -3.965      -8.840       2.099      -2.309
  q+dip:        7.167       4.882      -5.516      -9.936      -0.320      -1.651
   full:        5.952       5.631      -3.823      -9.725       2.624      -2.129

           -------------------------------------------------
          |                Geometry Summary                 |
           -------------------------------------------------

      molecular mass/u    :      162.1855763
   center of mass at/Å    :        0.1019135      -0.1023359       0.1211746
  moments of inertia/u·Å² :        0.1643371E+03   0.1333493E+04   0.1494648E+04
rotational constants/cm⁻¹ :        0.1025796E+00   0.1264171E-01   0.1127867E-01

 * 20 selected distances

     #   Z          #   Z                                           value/Å
     1   6 C        2   8 O                                       1.4180542 (max)
     2   8 O        3   6 C                                       1.3472535
     3   6 C        4   8 O                                       1.2087025
     5   6 C        6   6 C                                       1.3389161
     7   6 C        8   6 C                                       1.3982504
     8   6 C        9   6 C                                       1.3811555
     9   6 C       10   6 C                                       1.3854364
    10   6 C       11   6 C                                       1.3862371
     7   6 C       12   6 C                                       1.3977090
    11   6 C       12   6 C                                       1.3807039
     1   6 C       13   1 H                                       1.0870789
     1   6 C       14   1 H                                       1.0923768
     1   6 C       15   1 H                                       1.0923209
     5   6 C       16   1 H                                       1.0795128
     6   6 C       17   1 H                                       1.0827100
     8   6 C       18   1 H                                       1.0807650
     9   6 C       19   1 H                                       1.0801473
    10   6 C       20   1 H                                       1.0798180
    11   6 C       21   1 H                                       1.0801700
    12   6 C       22   1 H                                       1.0785207 (min)

 * 3 distinct bonds (by element types)

   Z      Z             #   av. dist./Å        max./Å        min./Å
   1 H    6 C          10     1.0833420     1.0923768     1.0785207
   6 C    6 C           7     1.3812012     1.3982504     1.3389161
   6 C    8 O           3     1.3246700     1.4180542     1.2087025


optimized geometry written to: xtbopt.xyz


           -------------------------------------------------
          | TOTAL ENERGY              -34.613729538671 Eh   |
          | GRADIENT NORM               0.000246229137 Eh/α |
          | HOMO-LUMO GAP               3.016628417225 eV   |
           -------------------------------------------------
########################################################################
[WARNING] Runtime exception occurred
-2- restart_readRestart: Dimension missmatch in restart file.
-1- restart_readRestart: Number of electron missmatch in restart file.
########################################################################

------------------------------------------------------------------------
 * finished run on 2025/12/01 at 14:22:06.011     
------------------------------------------------------------------------
 total:
 * wall-time:     0 d,  0 h,  0 min,  0.145 sec
 *  cpu-time:     0 d,  0 h,  0 min,  3.274 sec
 * ratio c/w:    22.655 speedup
 SCF:
 * wall-time:     0 d,  0 h,  0 min,  0.021 sec
 *  cpu-time:     0 d,  0 h,  0 min,  0.484 sec
 * ratio c/w:    22.804 speedup
 ANC optimizer:
 * wall-time:     0 d,  0 h,  0 min,  0.115 sec
 *  cpu-time:     0 d,  0 h,  0 min,  2.634 sec
 * ratio c/w:    22.886 speedup

normal termination of xtb
