      -----------------------------------------------------------      
     |                   =====================                   |     
     |                           x T B                           |     
     |                   =====================                   |     
     |                         S. Grimme                         |     
     |          Mulliken Center for Theoretical Chemistry        |     
     |                    University of Bonn                     |     
      -----------------------------------------------------------      

   * xtb version 6.7.1 (edcfbbe) compiled by 'albert@albert-system' on 2024-07-22

   xtb is free software: you can redistribute it and/or modify it under
   the terms of the GNU Lesser General Public License as published by
   the Free Software Foundation, either version 3 of the License, or
   (at your option) any later version.
   
   xtb is distributed in the hope that it will be useful,
   but WITHOUT ANY WARRANTY; without even the implied warranty of
   MERCHANTABILITY or FITNESS FOR A PARTICULAR PURPOSE.  See the
   GNU Lesser General Public License for more details.
   
   Cite this work as:
   * C. Bannwarth, E. Caldeweyher, S. Ehlert, A. Hansen, P. Pracht,
     J. Seibert, S. Spicher, S. Grimme, WIREs Comput. Mol. Sci., 2020, 11,
     e01493. DOI: 10.1002/wcms.1493
   
   for GFN2-xTB:
   * C. Bannwarth, S. Ehlert and S. Grimme., J. Chem. Theory Comput., 2019,
     15, 1652-1671. DOI: 10.1021/acs.jctc.8b01176
   for GFN1-xTB:
   * S. Grimme, C. Bannwarth, P. Shushkov, J. Chem. Theory Comput., 2017,
     13, 1989-2009. DOI: 10.1021/acs.jctc.7b00118
   for GFN0-xTB:
   * P. Pracht, E. Caldeweyher, S. Ehlert, S. Grimme, ChemRxiv, 2019, preprint.
     DOI: 10.26434/chemrxiv.8326202.v1
   for GFN-FF:
   * S. Spicher and S. Grimme, Angew. Chem. Int. Ed., 2020, 59, 15665-15673.
     DOI: 10.1002/anie.202004239
   
   for ALPB and GBSA implicit solvation:
   * S. Ehlert, M. Stahn, S. Spicher, S. Grimme, J. Chem. Theory Comput.,
     2021, 17, 4250-4261. DOI: 10.1021/acs.jctc.1c00471
   
   for ddCOSMO and CPCM-X implicit solvation:
   * M. Stahn, S. Ehlert, S. Grimme, J. Phys. Chem. A,
     2023, XX, XXXX-XXXX. DOI: 10.1021/acs.jpca.3c04382
   
   for DFT-D4:
   * E. Caldeweyher, C. Bannwarth and S. Grimme, J. Chem. Phys., 2017,
     147, 034112. DOI: 10.1063/1.4993215
   * E. Caldeweyher, S. Ehlert, A. Hansen, H. Neugebauer, S. Spicher,
     C. Bannwarth and S. Grimme, J. Chem. Phys., 2019, 150, 154122.
     DOI: 10.1063/1.5090222
   * E. Caldeweyher, J.-M. Mewes, S. Ehlert and S. Grimme, Phys. Chem. Chem. Phys.
     2020, 22, 8499-8512. DOI: 10.1039/D0CP00502A
   
   for sTDA-xTB:
   * S. Grimme and C. Bannwarth, J. Chem. Phys., 2016, 145, 054103.
     DOI: 10.1063/1.4959605
   
   in the mass-spec context:
   * V. Asgeirsson, C. Bauer and S. Grimme, Chem. Sci., 2017, 8, 4879.
     DOI: 10.1039/c7sc00601b
   * J. Koopman and S. Grimme, ACS Omega 2019, 4, 12, 15120-15133.
     DOI: 10.1021/acsomega.9b02011
   
   for metadynamics refer to:
   * S. Grimme, J. Chem. Theory Comput., 2019, 155, 2847-2862
     DOI: 10.1021/acs.jctc.9b00143
   
   for SPH calculations refer to:
   * S. Spicher and S. Grimme, J. Chem. Theory Comput., 2021, 17, 1701-1714
     DOI: 10.1021/acs.jctc.0c01306
   
   for ONIOM refer to:
   * C. Plett, A. Katbashev, S. Ehlert, S. Grimme, M. Bursch,
     Phys. Chem. Chem. Phys., 2023, 25, 17860-17868. DOI: 10.1039/D3CP02178E
   
   for DIPRO refer to:
   * J. Kohn, N. Gildemeister, S. Grimme, D. Fazzi, A. Hansen,
     J. Chem. Phys., 2023, just accepted.
   
   for PTB refer to:
   * S. Grimme, M. Mueller, A. Hansen, J. Chem. Phys., 2023, 158, 124111.
     DOI: 10.1063/5.0137838
   
   with help from (in alphabetical order)
   P. Atkinson, C. Bannwarth, F. Bohle, G. Brandenburg, E. Caldeweyher
   M. Checinski, S. Dohm, S. Ehlert, S. Ehrlich, I. Gerasimov, C. Hölzer
   A. Katbashev, J. Kohn, J. Koopman, C. Lavigne, S. Lehtola, F. März, M. Müller,
   F. Musil, H. Neugebauer, J. Pisarek, C. Plett, P. Pracht, F. Pultar,
   J. Seibert, P. Shushkov, S. Spicher, M. Stahn, M. Steiner, T. Strunk,
   J. Stückrath, T. Rose, and J. Unsleber
   
 * started run on 2025/12/01 at 14:22:06.018     
   ID    Z sym.   atoms
    1    6 C      1, 3, 5-12
    2    8 O      2, 4
    3    1 H      13-22

           -------------------------------------------------
          |                Calculation Setup                |
           -------------------------------------------------

          program call               : xtb pipeline_data/3_conformer_xyz/acrylates/rdkit/CCRCUPLGCSFEDV-BQYQJAHWSA-N_conf179.xyz --opt --gfn 2-xTB --iterations 250
          coordinate file            : pipeline_data/3_conformer_xyz/acrylates/rdkit/CCRCUPLGCSFEDV-BQYQJAHWSA-N_conf179.xyz
          omp threads                :                    24

########################################################################
[WARNING] Please study the warnings concerning your input carefully
-1- readin_getIntValue: could not parse '2-xTB'
########################################################################

           -------------------------------------------------
          |                 G F N 2 - x T B                 |
           -------------------------------------------------

        Reference                      10.1021/acs.jctc.8b01176
      * Hamiltonian:
        H0-scaling (s, p, d)           1.850000    2.230000    2.230000
        zeta-weighting                 0.500000
      * Dispersion:
        s8                             2.700000
        a1                             0.520000
        a2                             5.000000
        s9                             5.000000
      * Repulsion:
        kExp                           1.500000    1.000000
        rExp                           1.000000
      * Coulomb:
        alpha                          2.000000
        third order                    shell-resolved
        anisotropic                    true
        a3                             3.000000
        a5                             4.000000
        cn-shift                       1.200000
        cn-exp                         4.000000
        max-rad                        5.000000

q/qsh data taken from xtbrestart
CAMM data taken from xtbrestart

          ...................................................
          :                      SETUP                      :
          :.................................................:
          :  # basis functions                  58          :
          :  # atomic orbitals                  58          :
          :  # shells                           34          :
          :  # electrons                        62          :
          :  max. iterations                   250          :
          :  Hamiltonian                  GFN2-xTB          :
          :  restarted?                       true          :
          :  GBSA solvation                  false          :
          :  PC potential                    false          :
          :  electronic temp.          300.0000000     K    :
          :  accuracy                    1.0000000          :
          :  -> integral cutoff          0.2500000E+02      :
          :  -> integral neglect         0.1000000E-07      :
          :  -> SCF convergence          0.1000000E-05 Eh   :
          :  -> wf. convergence          0.1000000E-03 e    :
          :  Broyden damping             0.4000000          :
          :  net charge                          0          :
          :  unpaired electrons                  0          :
          ...................................................

 iter      E             dE          RMSdq      gap      omega  full diag
   1    -35.1106117 -0.351106E+02  0.585E+00    3.02       0.0  T
   2    -35.1147068 -0.409513E-02  0.350E+00    3.02       1.0  T
   3    -35.1130577  0.164907E-02  0.386E-01    3.02       1.0  T
   4    -35.1152704 -0.221264E-02  0.163E-01    3.00       1.0  T
   5    -35.1155859 -0.315513E-03  0.701E-02    3.00       1.0  T
   6    -35.1155992 -0.133248E-04  0.331E-02    3.00       1.0  T
   7    -35.1156060 -0.677948E-05  0.845E-03    3.00       2.5  T
   8    -35.1156066 -0.626272E-06  0.335E-03    3.00       6.4  T
   9    -35.1156066 -0.209608E-07  0.172E-03    3.00      12.4  T
  10    -35.1156067 -0.226958E-07  0.552E-04    3.00      38.6  T
  11    -35.1156067 -0.168667E-08  0.261E-04    3.00      81.7  T

   *** convergence criteria satisfied after 11 iterations ***

         #    Occupation            Energy/Eh            Energy/eV
      -------------------------------------------------------------
         1        2.0000           -0.7280283             -19.8107
       ...           ...                  ...                  ...
        25        2.0000           -0.4542557             -12.3609
        26        2.0000           -0.4409095             -11.9978
        27        2.0000           -0.4360067             -11.8643
        28        2.0000           -0.4300726             -11.7029
        29        2.0000           -0.4191845             -11.4066
        30        2.0000           -0.4074219             -11.0865
        31        2.0000           -0.4055103             -11.0345 (HOMO)
        32                         -0.2952872              -8.0352 (LUMO)
        33                         -0.2341788              -6.3723
        34                         -0.2236817              -6.0867
        35                         -0.1629221              -4.4333
        36                         -0.0852654              -2.3202
       ...                                ...                  ...
        58                          0.7057691              19.2050
      -------------------------------------------------------------
                  HL-Gap            0.1102231 Eh            2.9993 eV
             Fermi-level           -0.3503988 Eh           -9.5348 eV

 SCC (total)                   0 d,  0 h,  0 min,  0.024 sec
 SCC setup                      ...        0 min,  0.000 sec (  1.063%)
 Dispersion                     ...        0 min,  0.000 sec (  0.992%)
 classical contributions        ...        0 min,  0.000 sec (  0.212%)
 integral evaluation            ...        0 min,  0.001 sec (  3.974%)
 iterations                     ...        0 min,  0.020 sec ( 83.770%)
 molecular gradient             ...        0 min,  0.002 sec (  9.202%)
 printout                       ...        0 min,  0.000 sec (  0.644%)

         :::::::::::::::::::::::::::::::::::::::::::::::::::::
         ::                     SUMMARY                     ::
         :::::::::::::::::::::::::::::::::::::::::::::::::::::
         :: total energy             -34.597744080976 Eh    ::
         :: gradient norm              0.134514089659 Eh/a0 ::
         :: HOMO-LUMO gap              2.999322488387 eV    ::
         ::.................................................::
         :: SCC energy               -35.115720963501 Eh    ::
         :: -> isotropic ES            0.049641729786 Eh    ::
         :: -> anisotropic ES          0.000112124810 Eh    ::
         :: -> anisotropic XC          0.014721316378 Eh    ::
         :: -> dispersion             -0.017511979839 Eh    ::
         :: repulsion energy           0.517976882525 Eh    ::
         :: add. restraining           0.000000000000 Eh    ::
         :: total charge              -0.000000000000 e     ::
         :::::::::::::::::::::::::::::::::::::::::::::::::::::

      ----------------------------------------------------------- 
     |                   =====================                   |
     |                        A N C O P T                        |
     |                   =====================                   |
     |               Approximate Normal Coordinate               |
     |                Rational Function Optimizer                |
      ----------------------------------------------------------- 
      ----------------------------------------------------------- 
     |                   =====================                   |
     |                        A N C O P T                        |
     |                   =====================                   |
     |               Approximate Normal Coordinate               |
     |                Rational Function Optimizer                |
      ----------------------------------------------------------- 

          ...................................................
          :                      SETUP                      :
          :.................................................:
          :   optimization level            normal          :
          :   max. optcycles                   200          :
          :   ANC micro-cycles                  20          :
          :   degrees of freedom                60          :
          :.................................................:
          :   RF solver                   davidson          :
          :   write xtbopt.log                true          :
          :   linear?                        false          :
          :   energy convergence         0.5000000E-05 Eh   :
          :   grad. convergence          0.1000000E-02 Eh/α :
          :   maxmium RF displ.          1.0000000          :
          :   Hlow (freq-cutoff)         0.1000000E-01      :
          :   Hmax (freq-cutoff)         5.0000000          :
          :   S6 in model hess.         20.0000000          :
          ...................................................

generating ANC from exact Hessian ...
Using Lindh-Hessian (1995)
 Shifting diagonal of input Hessian by   9.310816097375468E-003
 Lowest  eigenvalues of input Hessian
    0.000000    0.000000    0.000000    0.000000    0.000000    0.000000
    0.010000    0.011258    0.011382    0.013324    0.017635    0.018552
    0.021172    0.025419    0.027561    0.030685    0.032516    0.036243
 Highest eigenvalues
    1.742982    1.907060    1.951070    2.044547    2.092291    2.162722
 

........................................................................
.............................. CYCLE    1 ..............................
........................................................................

 iter      E             dE          RMSdq      gap      omega  full diag
   1    -35.1156067 -0.351156E+02  0.888E-05    3.00       0.0  T
   2    -35.1156067 -0.549534E-10  0.531E-05    3.00     401.4  T
   3    -35.1156067 -0.274767E-10  0.339E-05    3.00     628.7  T
     SCC iter.                  ...        0 min,  0.003 sec
     gradient                   ...        0 min,  0.002 sec
 * total energy  :   -34.5977441 Eh     change       -0.2335838E-09 Eh
   gradient norm :     0.1345159 Eh/α   predicted     0.0000000E+00 (-100.00%)
   displ. norm   :     0.2886272 α      lambda       -0.2015041E-01
   maximum displ.:     0.1352793 α      in ANC's #15, #10, #33, ...

........................................................................
.............................. CYCLE    2 ..............................
........................................................................

 iter      E             dE          RMSdq      gap      omega  full diag
   1    -35.1310028 -0.351310E+02  0.296E-01    3.03       0.0  T
   2    -35.1313557 -0.352915E-03  0.189E-01    2.99       1.0  T
   3    -35.1313528  0.283843E-05  0.864E-02    2.99       1.0  T
   4    -35.1313873 -0.345053E-04  0.315E-02    2.99       1.0  T
   5    -35.1314008 -0.134637E-04  0.117E-02    2.99       1.8  T
   6    -35.1314027 -0.191764E-05  0.492E-03    2.99       4.3  T
   7    -35.1314028 -0.111765E-06  0.196E-03    2.99      10.9  T
   8    -35.1314028 -0.164393E-07  0.980E-04    2.99      21.8  T
   9    -35.1314028 -0.710271E-08  0.367E-04    2.99      58.2  T
     SCC iter.                  ...        0 min,  0.008 sec
     gradient                   ...        0 min,  0.002 sec
 * total energy  :   -34.6111972 Eh     change       -0.1345313E-01 Eh
   gradient norm :     0.0464369 Eh/α   predicted    -0.1091874E-01 ( -18.84%)
   displ. norm   :     0.2229088 α      lambda       -0.4194416E-02
   maximum displ.:     0.1629527 α      in ANC's #10, #15, #18, ...

........................................................................
.............................. CYCLE    3 ..............................
........................................................................

 iter      E             dE          RMSdq      gap      omega  full diag
   1    -35.1390952 -0.351391E+02  0.166E-01    3.02       0.0  T
   2    -35.1391866 -0.913835E-04  0.103E-01    3.00       1.0  T
   3    -35.1391825  0.413226E-05  0.437E-02    3.00       1.0  T
   4    -35.1391926 -0.101097E-04  0.165E-02    3.00       1.3  T
   5    -35.1391963 -0.367157E-05  0.660E-03    3.00       3.2  T
   6    -35.1391969 -0.620033E-06  0.241E-03    3.00       8.8  T
   7    -35.1391969 -0.424021E-07  0.101E-03    3.00      21.0  T
   8    -35.1391969 -0.863130E-08  0.448E-04    3.00      47.6  T
   9    -35.1391969 -0.881265E-09  0.181E-04    3.00     118.1  T
     SCC iter.                  ...        0 min,  0.008 sec
     gradient                   ...        0 min,  0.002 sec
 * total energy  :   -34.6134114 Eh     change       -0.2214201E-02 Eh
   gradient norm :     0.0147456 Eh/α   predicted    -0.2201945E-02 (  -0.55%)
   displ. norm   :     0.0926183 α      lambda       -0.4021254E-03
   maximum displ.:     0.0742884 α      in ANC's #10, #2, #4, ...

........................................................................
.............................. CYCLE    4 ..............................
........................................................................

 iter      E             dE          RMSdq      gap      omega  full diag
   1    -35.1389641 -0.351390E+02  0.559E-02    3.00       0.0  T
   2    -35.1389700 -0.592370E-05  0.348E-02    3.00       1.0  T
   3    -35.1389668  0.319184E-05  0.175E-02    3.00       1.2  T
   4    -35.1389703 -0.346243E-05  0.683E-03    3.00       3.1  T
   5    -35.1389710 -0.728944E-06  0.943E-04    3.00      22.6  T
   6    -35.1389710 -0.720299E-08  0.512E-04    3.00      41.6  T
     SCC iter.                  ...        0 min,  0.006 sec
     gradient                   ...        0 min,  0.002 sec
 * total energy  :   -34.6136379 Eh     change       -0.2264718E-03 Eh
   gradient norm :     0.0058278 Eh/α   predicted    -0.2028553E-03 ( -10.43%)
   displ. norm   :     0.0734452 α      lambda       -0.1340806E-03
   maximum displ.:     0.0478408 α      in ANC's #10, #2, #4, ...

........................................................................
.............................. CYCLE    5 ..............................
........................................................................

 iter      E             dE          RMSdq      gap      omega  full diag
   1    -35.1392868 -0.351393E+02  0.424E-02    3.01       0.0  T
   2    -35.1392886 -0.178378E-05  0.254E-02    3.01       1.0  T
   3    -35.1392883  0.273094E-06  0.577E-03    3.01       3.7  T
   4    -35.1392885 -0.199869E-06  0.310E-03    3.01       6.9  T
   5    -35.1392887 -0.173792E-06  0.605E-04    3.01      35.2  T
   6    -35.1392887 -0.246021E-08  0.331E-04    3.01      64.4  T
     SCC iter.                  ...        0 min,  0.006 sec
     gradient                   ...        0 min,  0.002 sec
 * total energy  :   -34.6136962 Eh     change       -0.5834328E-04 Eh
   gradient norm :     0.0033269 Eh/α   predicted    -0.6740233E-04 (  15.53%)
   displ. norm   :     0.0252994 α      lambda       -0.3047903E-04
   maximum displ.:     0.0173263 α      in ANC's #2, #6, #4, ...

........................................................................
.............................. CYCLE    6 ..............................
........................................................................

 iter      E             dE          RMSdq      gap      omega  full diag
   1    -35.1399251 -0.351399E+02  0.143E-02    3.02       0.0  T
   2    -35.1399252 -0.879375E-07  0.898E-03    3.02       2.4  T
   3    -35.1399248  0.469246E-06  0.592E-03    3.02       3.6  T
   4    -35.1399254 -0.591730E-06  0.662E-04    3.02      32.2  T
   5    -35.1399254 -0.510556E-08  0.254E-04    3.02      84.0  T
     SCC iter.                  ...        0 min,  0.005 sec
     gradient                   ...        0 min,  0.002 sec
 * total energy  :   -34.6137157 Eh     change       -0.1945358E-04 Eh
   gradient norm :     0.0014000 Eh/α   predicted    -0.1525527E-04 ( -21.58%)
   displ. norm   :     0.0454489 α      lambda       -0.1016982E-04
   maximum displ.:     0.0382772 α      in ANC's #2, #4, #3, ...

........................................................................
.............................. CYCLE    7 ..............................
........................................................................

 iter      E             dE          RMSdq      gap      omega  full diag
   1    -35.1400656 -0.351401E+02  0.146E-02    3.02       0.0  T
   2    -35.1400657 -0.380170E-07  0.886E-03    3.02       2.4  T
   3    -35.1400653  0.363408E-06  0.452E-03    3.02       4.7  T
   4    -35.1400657 -0.413501E-06  0.563E-04    3.02      37.9  T
   5    -35.1400657 -0.277662E-08  0.286E-04    3.02      74.4  T
     SCC iter.                  ...        0 min,  0.005 sec
     gradient                   ...        0 min,  0.002 sec
 * total energy  :   -34.6137242 Eh     change       -0.8507581E-05 Eh
   gradient norm :     0.0009551 Eh/α   predicted    -0.5090572E-05 ( -40.16%)
   displ. norm   :     0.0253738 α      lambda       -0.3325359E-05
   maximum displ.:     0.0218107 α      in ANC's #2, #3, #1, ...

........................................................................
.............................. CYCLE    8 ..............................
........................................................................

 iter      E             dE          RMSdq      gap      omega  full diag
   1    -35.1398664 -0.351399E+02  0.778E-03    3.02       0.0  T
   2    -35.1398665 -0.982232E-08  0.472E-03    3.02       4.5  T
   3    -35.1398664  0.943882E-07  0.238E-03    3.02       8.9  T
   4    -35.1398665 -0.106085E-06  0.215E-04    3.02      99.0  T
   5    -35.1398665 -0.297511E-09  0.110E-04    3.02     193.4  T
     SCC iter.                  ...        0 min,  0.005 sec
     gradient                   ...        0 min,  0.002 sec
 * total energy  :   -34.6137282 Eh     change       -0.3969230E-05 Eh
   gradient norm :     0.0005528 Eh/α   predicted    -0.1663887E-05 ( -58.08%)
   displ. norm   :     0.0305235 α      lambda       -0.2784767E-05
   maximum displ.:     0.0237674 α      in ANC's #2, #3, #1, ...

   *** GEOMETRY OPTIMIZATION CONVERGED AFTER 8 ITERATIONS ***

------------------------------------------------------------------------
 total energy gain   :        -0.0159841 Eh      -10.0302 kcal/mol
 total RMSD          :         0.1323035 a0        0.0700 Å
 total power (kW/mol):        -5.2457739 (step) -561.0452 (real)
------------------------------------------------------------------------

 ANCopt (total)                0 d,  0 h,  0 min,  0.075 sec
 optimizer setup                ...        0 min,  0.000 sec (  0.141%)
 model hessian                  ...        0 min,  0.004 sec (  4.707%)
 ANC generation                 ...        0 min,  0.001 sec (  0.834%)
 coordinate transformation      ...        0 min,  0.000 sec (  0.083%)
 single point calculation       ...        0 min,  0.066 sec ( 88.100%)
 optimization log               ...        0 min,  0.003 sec (  4.245%)
 hessian update                 ...        0 min,  0.001 sec (  0.777%)
 rational function              ...        0 min,  0.000 sec (  0.648%)

================
 final structure:
================
22
 xtb: 6.7.1 (edcfbbe)
C            4.44794998531876        0.47443191129201        0.07854709302691
O            3.03538302525928        0.35612108673538        0.03427369618760
C            2.56629319214549       -0.83515826828450       -0.38511011630037
O            3.29243898619381       -1.74837765579602       -0.70094900489288
C            1.10103762942284       -0.90775323976986       -0.41910963987892
C            0.29651851641528        0.10667945517122       -0.07746913118899
C           -1.15443118136161        0.10703050688219       -0.09343263050282
C           -1.83035783077365        1.26570166885231        0.30130386963084
C           -3.21050606210563        1.31840764196658        0.30036756251242
C           -3.94671735889277        0.21346705533368       -0.09542836029957
C           -3.29191201907362       -0.94324352327442       -0.48896696126585
C           -1.91229405313049       -0.99882691033393       -0.48888397130036
H            4.87542062314720       -0.30335862263719        0.71493118172027
H            4.86933883215464        0.37442895193648       -0.92437053372230
H            4.65913563406759        1.46041931449387        0.48433317725276
H            0.72862837677847       -1.86462680687268       -0.75168256735724
H            0.75655916960630        1.03192030512566        0.24554531121737
H           -1.25988892546448        2.12994673413560        0.61052337919609
H           -3.71554713266355        2.22221717175246        0.60810950951049
H           -5.02584302847671        0.25286913772511       -0.09760930531608
H           -3.86326425054717       -1.80623237760723       -0.79799404557838
H           -1.41794212802002       -1.90606353682666       -0.79831651265099
 
 Bond Distances (Angstroems)
 ---------------------------
C1-O2=1.4182         C1-H13=1.0921        C1-H14=1.0924        C1-H15=1.0869        O2-C1=1.4182         O2-C3=1.3472         
C3-O2=1.3472         C3-O4=1.2087         C3-C5=1.4674         O4-C3=1.2087         C5-C3=1.4674         C5-C6=1.3390         
C5-H16=1.0793        C6-C5=1.3390         C6-C7=1.4510         C6-H17=1.0826        C7-C6=1.4510         C7-C8=1.3983         
C7-C12=1.3977        C8-C7=1.3983         C8-C9=1.3812         C8-H18=1.0807        C9-C8=1.3812         C9-C10=1.3855        
C9-H19=1.0801        C10-C9=1.3855        C10-C11=1.3862       C10-H20=1.0798       C11-C10=1.3862       C11-C12=1.3807       
C11-H21=1.0801       C12-C7=1.3977        C12-C11=1.3807       C12-H22=1.0785       H13-C1=1.0921        H14-C1=1.0924        
H15-C1=1.0869        H16-C5=1.0793        H17-C6=1.0826        H18-C8=1.0807        H19-C9=1.0801        H20-C10=1.0798       
H21-C11=1.0801       H22-C12=1.0785       
 C  H  Rav=1.0833 sigma=0.0050  Rmin=1.0785  Rmax=1.0924    10
 C  C  Rav=1.3986 sigma=0.0365  Rmin=1.3390  Rmax=1.4674     9
 O  C  Rav=1.3247 sigma=0.0870  Rmin=1.2087  Rmax=1.4182     3
 
 selected bond angles (degree)
 --------------------
H13-C1-O2=110.40               H14-C1-O2=110.36               H14-C1-H13=108.59              H15-C1-O2=106.31               
H15-C1-H13=110.64              H15-C1-H14=110.54              C3-O2-C1=115.49                O4-C3-O2=122.70                
C5-C3-O2=113.49                C5-C3-O4=123.81                C6-C5-C3=123.82                H16-C5-C3=113.30               
H16-C5-C6=122.88               C7-C6-C5=126.74                H17-C6-C5=117.92               H17-C6-C7=115.34               
C8-C7-C6=118.72                C12-C7-C6=123.03               C12-C7-C8=118.25               C9-C8-C7=120.96                
H18-C8-C7=119.23               H18-C8-C9=119.81               C10-C9-C8=120.05               H19-C9-C8=119.93               
H19-C9-C10=120.02              C11-C10-C9=119.71              H20-C10-C9=120.17              H20-C10-C11=120.13             
 
 selected dihedral angles (degree)
 ---------------------------------
C3-O2-C1-H13=303.10           C3-O2-C1-H14= 63.16           C3-O2-C1-H15=183.06           O4-C3-O2-C1=  0.19            
C5-C3-O2-C1=180.23            C6-C5-C3-O2=  0.41            C6-C5-C3-O4=180.45            H16-C5-C3-O2=180.23           
H16-C5-C3-O4=  0.27           C7-C6-C5-C3=179.67            C7-C6-C5-H16=359.87           H17-C6-C5-C3=359.78           
H17-C6-C5-H16=179.97          C8-C7-C6-C5=179.92            C8-C7-C6-H17=359.82           C12-C7-C6-C5=359.77           
C12-C7-C6-H17=179.67          C9-C8-C7-C6=179.82            C9-C8-C7-C12=359.96           H18-C8-C7-C6=359.84           
H18-C8-C7-C12=179.97          C10-C9-C8-C7=  0.00           C10-C9-C8-H18=179.98          H19-C9-C8-C7=180.03           
H19-C9-C8-H18=  0.00          C11-C10-C9-C8=  0.04          C11-C10-C9-H19=180.01         H20-C10-C9-C8=180.05          
H20-C10-C9-H19=  0.00         
           -------------------------------------------------
          |                Final Singlepoint                |
           -------------------------------------------------

          ...................................................
          :                      SETUP                      :
          :.................................................:
          :  # basis functions                  58          :
          :  # atomic orbitals                  58          :
          :  # shells                           34          :
          :  # electrons                        62          :
          :  max. iterations                   250          :
          :  Hamiltonian                  GFN2-xTB          :
          :  restarted?                      false          :
          :  GBSA solvation                  false          :
          :  PC potential                    false          :
          :  electronic temp.          300.0000000     K    :
          :  accuracy                    1.0000000          :
          :  -> integral cutoff          0.2500000E+02      :
          :  -> integral neglect         0.1000000E-07      :
          :  -> SCF convergence          0.1000000E-05 Eh   :
          :  -> wf. convergence          0.1000000E-03 e    :
          :  Broyden damping             0.4000000          :
          :  net charge                          0          :
          :  unpaired electrons                  0          :
          ...................................................

 iter      E             dE          RMSdq      gap      omega  full diag
   1    -35.1398665 -0.351399E+02  0.607E-05    3.02       0.0  T
   2    -35.1398665 -0.886047E-11  0.386E-05    3.02     552.9  T
   3    -35.1398665 -0.469669E-11  0.259E-05    3.02     823.6  T

   *** convergence criteria satisfied after 3 iterations ***

         #    Occupation            Energy/Eh            Energy/eV
      -------------------------------------------------------------
         1        2.0000           -0.7372791             -20.0624
       ...           ...                  ...                  ...
        25        2.0000           -0.4502260             -12.2513
        26        2.0000           -0.4427982             -12.0492
        27        2.0000           -0.4404957             -11.9865
        28        2.0000           -0.4301453             -11.7049
        29        2.0000           -0.4168842             -11.3440
        30        2.0000           -0.4095657             -11.1448
        31        2.0000           -0.4004863             -10.8978 (HOMO)
        32                         -0.2896146              -7.8808 (LUMO)
        33                         -0.2339073              -6.3649
        34                         -0.2162951              -5.8857
        35                         -0.1555839              -4.2337
        36                         -0.0884425              -2.4066
       ...                                ...                  ...
        58                          0.7169403              19.5089
      -------------------------------------------------------------
                  HL-Gap            0.1108717 Eh            3.0170 eV
             Fermi-level           -0.3450505 Eh           -9.3893 eV

 SCC (total)                   0 d,  0 h,  0 min,  0.005 sec
 SCC setup                      ...        0 min,  0.000 sec (  1.389%)
 Dispersion                     ...        0 min,  0.000 sec (  1.790%)
 classical contributions        ...        0 min,  0.000 sec (  0.658%)
 integral evaluation            ...        0 min,  0.001 sec (  9.863%)
 iterations                     ...        0 min,  0.003 sec ( 51.872%)
 molecular gradient             ...        0 min,  0.002 sec ( 32.015%)
 printout                       ...        0 min,  0.000 sec (  2.029%)

         :::::::::::::::::::::::::::::::::::::::::::::::::::::
         ::                     SUMMARY                     ::
         :::::::::::::::::::::::::::::::::::::::::::::::::::::
         :: total energy             -34.613728158972 Eh    ::
         :: gradient norm              0.000552885831 Eh/a0 ::
         :: HOMO-LUMO gap              3.016972465996 eV    ::
         ::.................................................::
         :: SCC energy               -35.139980357450 Eh    ::
         :: -> isotropic ES            0.046031005259 Eh    ::
         :: -> anisotropic ES          0.001312740166 Eh    ::
         :: -> anisotropic XC          0.014210555790 Eh    ::
         :: -> dispersion             -0.017587085284 Eh    ::
         :: repulsion energy           0.526252198478 Eh    ::
         :: add. restraining           0.000000000000 Eh    ::
         :: total charge              -0.000000000000 e     ::
         :::::::::::::::::::::::::::::::::::::::::::::::::::::

           -------------------------------------------------
          |                Property Printout                |
           -------------------------------------------------

    * Orbital Energies and Occupations

         #    Occupation            Energy/Eh            Energy/eV
      -------------------------------------------------------------
         1        2.0000           -0.7372791             -20.0624
       ...           ...                  ...                  ...
        19        2.0000           -0.4984298             -13.5630
        20        2.0000           -0.4945466             -13.4573
        21        2.0000           -0.4900300             -13.3344
        22        2.0000           -0.4873868             -13.2625
        23        2.0000           -0.4725043             -12.8575
        24        2.0000           -0.4591016             -12.4928
        25        2.0000           -0.4502260             -12.2513
        26        2.0000           -0.4427982             -12.0492
        27        2.0000           -0.4404957             -11.9865
        28        2.0000           -0.4301453             -11.7049
        29        2.0000           -0.4168842             -11.3440
        30        2.0000           -0.4095657             -11.1448
        31        2.0000           -0.4004863             -10.8978 (HOMO)
        32                         -0.2896146              -7.8808 (LUMO)
        33                         -0.2339073              -6.3649
        34                         -0.2162951              -5.8857
        35                         -0.1555839              -4.2337
        36                         -0.0884425              -2.4066
        37                          0.0226618               0.6167
        38                          0.0952181               2.5910
        39                          0.1091518               2.9702
        40                          0.1145786               3.1178
        41                          0.1346998               3.6654
        42                          0.1403019               3.8178
       ...                                ...                  ...
        58                          0.7169403              19.5089
      -------------------------------------------------------------
                  HL-Gap            0.1108717 Eh            3.0170 eV
             Fermi-level           -0.3450505 Eh           -9.3893 eV

     #   Z          covCN         q      C6AA      α(0)
     1   6 C        3.658     0.037    20.237     6.456
     2   8 O        1.704    -0.270    18.477     5.804
     3   6 C        2.729     0.351    21.035     7.509
     4   8 O        0.857    -0.418    22.038     6.294
     5   6 C        2.892    -0.072    29.789     8.948
     6   6 C        2.903    -0.015    28.378     8.735
     7   6 C        2.970     0.017    27.634     8.623
     8   6 C        2.928    -0.029    28.734     8.791
     9   6 C        2.917    -0.027    28.688     8.783
    10   6 C        2.920    -0.025    28.627     8.774
    11   6 C        2.917    -0.027    28.675     8.781
    12   6 C        2.923    -0.028    28.709     8.787
    13   1 H        0.924     0.062     2.175     2.306
    14   1 H        0.924     0.060     2.197     2.318
    15   1 H        0.925     0.064     2.151     2.294
    16   1 H        0.926     0.067     2.120     2.277
    17   1 H        0.925     0.062     2.173     2.305
    18   1 H        0.926     0.038     2.474     2.460
    19   1 H        0.926     0.036     2.497     2.471
    20   1 H        0.926     0.037     2.489     2.467
    21   1 H        0.926     0.037     2.484     2.464
    22   1 H        0.926     0.042     2.419     2.432

 Mol. C6AA /au·bohr⁶  :       5770.879591
 Mol. C8AA /au·bohr⁸  :     138219.196419
 Mol. α(0) /au        :        120.078933


Wiberg/Mayer (AO) data.
largest (>0.10) Wiberg bond orders for each atom

 ---------------------------------------------------------------------------
     #   Z sym  total        # sym  WBO       # sym  WBO       # sym  WBO
 ---------------------------------------------------------------------------
     1   6 C    3.930 --    15 H    0.982    14 H    0.977    13 H    0.976
                             2 O    0.963
     2   8 O    2.287 --     3 C    1.101     1 C    0.963     4 O    0.164
     3   6 C    3.919 --     4 O    1.714     2 O    1.101     5 C    1.041
     4   8 O    2.013 --     3 C    1.714     2 O    0.164
     5   6 C    3.987 --     6 C    1.778     3 C    1.041    16 H    0.959
     6   6 C    3.984 --     5 C    1.778     7 C    1.115    17 H    0.959
     7   6 C    3.990 --     8 C    1.365    12 C    1.362     6 C    1.115
     8   6 C    3.984 --     9 C    1.460     7 C    1.365    18 H    0.968
                            11 C    0.103
     9   6 C    3.992 --     8 C    1.460    10 C    1.430    19 H    0.971
                            12 C    0.105
    10   6 C    3.983 --     9 C    1.430    11 C    1.425    20 H    0.971
    11   6 C    3.992 --    12 C    1.466    10 C    1.425    21 H    0.970
                             8 C    0.103
    12   6 C    3.991 --    11 C    1.466     7 C    1.362    22 H    0.965
                             9 C    0.105
    13   1 H    0.996 --     1 C    0.976
    14   1 H    0.996 --     1 C    0.977
    15   1 H    0.996 --     1 C    0.982
    16   1 H    0.995 --     5 C    0.959
    17   1 H    0.996 --     6 C    0.959
    18   1 H    0.999 --     8 C    0.968
    19   1 H    0.998 --     9 C    0.971
    20   1 H    0.998 --    10 C    0.971
    21   1 H    0.998 --    11 C    0.970
    22   1 H    0.998 --    12 C    0.965
 ---------------------------------------------------------------------------

Topologies differ in total number of bonds
Writing topology from bond orders to xtbtopo.mol

molecular dipole:
                 x           y           z       tot (Debye)
 q only:       -0.817       0.867       0.295
   full:       -0.819       0.939       0.318       3.269
molecular quadrupole (traceless):
                xx          xy          yy          xz          yz          zz
 q only:        4.903      10.239      -3.038       3.939      -0.747      -1.865
  q+dip:        5.758      11.007      -1.290       4.261       0.941      -4.468
   full:        4.392      11.348      -3.095       4.313      -1.020      -1.296

           -------------------------------------------------
          |                Geometry Summary                 |
           -------------------------------------------------

      molecular mass/u    :      162.1855763
   center of mass at/Å    :        0.1144696      -0.1422101      -0.1714790
  moments of inertia/u·Å² :        0.1643458E+03   0.1333743E+04   0.1494909E+04
rotational constants/cm⁻¹ :        0.1025742E+00   0.1263934E-01   0.1127670E-01

 * 20 selected distances

     #   Z          #   Z                                           value/Å
     1   6 C        2   8 O                                       1.4182043 (max)
     2   8 O        3   6 C                                       1.3472472
     3   6 C        4   8 O                                       1.2087232
     5   6 C        6   6 C                                       1.3390457
     7   6 C        8   6 C                                       1.3982893
     8   6 C        9   6 C                                       1.3811547
     9   6 C       10   6 C                                       1.3854803
    10   6 C       11   6 C                                       1.3862259
     7   6 C       12   6 C                                       1.3977335
    11   6 C       12   6 C                                       1.3807373
     1   6 C       13   1 H                                       1.0920962
     1   6 C       14   1 H                                       1.0924345
     1   6 C       15   1 H                                       1.0869375
     5   6 C       16   1 H                                       1.0793056
     6   6 C       17   1 H                                       1.0826110
     8   6 C       18   1 H                                       1.0807272
     9   6 C       19   1 H                                       1.0801127
    10   6 C       20   1 H                                       1.0798471
    11   6 C       21   1 H                                       1.0801348
    12   6 C       22   1 H                                       1.0785225 (min)

 * 3 distinct bonds (by element types)

   Z      Z             #   av. dist./Å        max./Å        min./Å
   1 H    6 C          10     1.0832729     1.0924345     1.0785225
   6 C    6 C           7     1.3812381     1.3982893     1.3390457
   6 C    8 O           3     1.3247249     1.4182043     1.2087232


optimized geometry written to: xtbopt.xyz


           -------------------------------------------------
          | TOTAL ENERGY              -34.613728158972 Eh   |
          | GRADIENT NORM               0.000552885831 Eh/α |
          | HOMO-LUMO GAP               3.016972465996 eV   |
           -------------------------------------------------

------------------------------------------------------------------------
 * finished run on 2025/12/01 at 14:22:06.131     
------------------------------------------------------------------------
 total:
 * wall-time:     0 d,  0 h,  0 min,  0.113 sec
 *  cpu-time:     0 d,  0 h,  0 min,  2.543 sec
 * ratio c/w:    22.555 speedup
 SCF:
 * wall-time:     0 d,  0 h,  0 min,  0.024 sec
 *  cpu-time:     0 d,  0 h,  0 min,  0.537 sec
 * ratio c/w:    22.615 speedup
 ANC optimizer:
 * wall-time:     0 d,  0 h,  0 min,  0.081 sec
 *  cpu-time:     0 d,  0 h,  0 min,  1.859 sec
 * ratio c/w:    22.927 speedup

normal termination of xtb
