      -----------------------------------------------------------      
     |                   =====================                   |     
     |                           x T B                           |     
     |                   =====================                   |     
     |                         S. Grimme                         |     
     |          Mulliken Center for Theoretical Chemistry        |     
     |                    University of Bonn                     |     
      -----------------------------------------------------------      

   * xtb version 6.7.1 (edcfbbe) compiled by 'albert@albert-system' on 2024-07-22

   xtb is free software: you can redistribute it and/or modify it under
   the terms of the GNU Lesser General Public License as published by
   the Free Software Foundation, either version 3 of the License, or
   (at your option) any later version.
   
   xtb is distributed in the hope that it will be useful,
   but WITHOUT ANY WARRANTY; without even the implied warranty of
   MERCHANTABILITY or FITNESS FOR A PARTICULAR PURPOSE.  See the
   GNU Lesser General Public License for more details.
   
   Cite this work as:
   * C. Bannwarth, E. Caldeweyher, S. Ehlert, A. Hansen, P. Pracht,
     J. Seibert, S. Spicher, S. Grimme, WIREs Comput. Mol. Sci., 2020, 11,
     e01493. DOI: 10.1002/wcms.1493
   
   for GFN2-xTB:
   * C. Bannwarth, S. Ehlert and S. Grimme., J. Chem. Theory Comput., 2019,
     15, 1652-1671. DOI: 10.1021/acs.jctc.8b01176
   for GFN1-xTB:
   * S. Grimme, C. Bannwarth, P. Shushkov, J. Chem. Theory Comput., 2017,
     13, 1989-2009. DOI: 10.1021/acs.jctc.7b00118
   for GFN0-xTB:
   * P. Pracht, E. Caldeweyher, S. Ehlert, S. Grimme, ChemRxiv, 2019, preprint.
     DOI: 10.26434/chemrxiv.8326202.v1
   for GFN-FF:
   * S. Spicher and S. Grimme, Angew. Chem. Int. Ed., 2020, 59, 15665-15673.
     DOI: 10.1002/anie.202004239
   
   for ALPB and GBSA implicit solvation:
   * S. Ehlert, M. Stahn, S. Spicher, S. Grimme, J. Chem. Theory Comput.,
     2021, 17, 4250-4261. DOI: 10.1021/acs.jctc.1c00471
   
   for ddCOSMO and CPCM-X implicit solvation:
   * M. Stahn, S. Ehlert, S. Grimme, J. Phys. Chem. A,
     2023, XX, XXXX-XXXX. DOI: 10.1021/acs.jpca.3c04382
   
   for DFT-D4:
   * E. Caldeweyher, C. Bannwarth and S. Grimme, J. Chem. Phys., 2017,
     147, 034112. DOI: 10.1063/1.4993215
   * E. Caldeweyher, S. Ehlert, A. Hansen, H. Neugebauer, S. Spicher,
     C. Bannwarth and S. Grimme, J. Chem. Phys., 2019, 150, 154122.
     DOI: 10.1063/1.5090222
   * E. Caldeweyher, J.-M. Mewes, S. Ehlert and S. Grimme, Phys. Chem. Chem. Phys.
     2020, 22, 8499-8512. DOI: 10.1039/D0CP00502A
   
   for sTDA-xTB:
   * S. Grimme and C. Bannwarth, J. Chem. Phys., 2016, 145, 054103.
     DOI: 10.1063/1.4959605
   
   in the mass-spec context:
   * V. Asgeirsson, C. Bauer and S. Grimme, Chem. Sci., 2017, 8, 4879.
     DOI: 10.1039/c7sc00601b
   * J. Koopman and S. Grimme, ACS Omega 2019, 4, 12, 15120-15133.
     DOI: 10.1021/acsomega.9b02011
   
   for metadynamics refer to:
   * S. Grimme, J. Chem. Theory Comput., 2019, 155, 2847-2862
     DOI: 10.1021/acs.jctc.9b00143
   
   for SPH calculations refer to:
   * S. Spicher and S. Grimme, J. Chem. Theory Comput., 2021, 17, 1701-1714
     DOI: 10.1021/acs.jctc.0c01306
   
   for ONIOM refer to:
   * C. Plett, A. Katbashev, S. Ehlert, S. Grimme, M. Bursch,
     Phys. Chem. Chem. Phys., 2023, 25, 17860-17868. DOI: 10.1039/D3CP02178E
   
   for DIPRO refer to:
   * J. Kohn, N. Gildemeister, S. Grimme, D. Fazzi, A. Hansen,
     J. Chem. Phys., 2023, just accepted.
   
   for PTB refer to:
   * S. Grimme, M. Mueller, A. Hansen, J. Chem. Phys., 2023, 158, 124111.
     DOI: 10.1063/5.0137838
   
   with help from (in alphabetical order)
   P. Atkinson, C. Bannwarth, F. Bohle, G. Brandenburg, E. Caldeweyher
   M. Checinski, S. Dohm, S. Ehlert, S. Ehrlich, I. Gerasimov, C. Hölzer
   A. Katbashev, J. Kohn, J. Koopman, C. Lavigne, S. Lehtola, F. März, M. Müller,
   F. Musil, H. Neugebauer, J. Pisarek, C. Plett, P. Pracht, F. Pultar,
   J. Seibert, P. Shushkov, S. Spicher, M. Stahn, M. Steiner, T. Strunk,
   J. Stückrath, T. Rose, and J. Unsleber
   
 * started run on 2025/12/01 at 14:22:07.732     
   ID    Z sym.   atoms
    1    6 C      1-10, 12, 14-16
    2    8 O      11, 13
    3    1 H      17-42

           -------------------------------------------------
          |                Calculation Setup                |
           -------------------------------------------------

          program call               : xtb pipeline_data/3_conformer_xyz/acrylates/rdkit/COCLLEMEIJQBAG-UHFFFAOYSA-N_conf61.xyz --opt --gfn 2-xTB --iterations 250
          coordinate file            : pipeline_data/3_conformer_xyz/acrylates/rdkit/COCLLEMEIJQBAG-UHFFFAOYSA-N_conf61.xyz
          omp threads                :                    24

########################################################################
[WARNING] Please study the warnings concerning your input carefully
-1- readin_getIntValue: could not parse '2-xTB'
########################################################################

           -------------------------------------------------
          |                 G F N 2 - x T B                 |
           -------------------------------------------------

        Reference                      10.1021/acs.jctc.8b01176
      * Hamiltonian:
        H0-scaling (s, p, d)           1.850000    2.230000    2.230000
        zeta-weighting                 0.500000
      * Dispersion:
        s8                             2.700000
        a1                             0.520000
        a2                             5.000000
        s9                             5.000000
      * Repulsion:
        kExp                           1.500000    1.000000
        rExp                           1.000000
      * Coulomb:
        alpha                          2.000000
        third order                    shell-resolved
        anisotropic                    true
        a3                             3.000000
        a5                             4.000000
        cn-shift                       1.200000
        cn-exp                         4.000000
        max-rad                        5.000000

q/qsh data taken from xtbrestart
CAMM data taken from xtbrestart

          ...................................................
          :                      SETUP                      :
          :.................................................:
          :  # basis functions                  90          :
          :  # atomic orbitals                  90          :
          :  # shells                           58          :
          :  # electrons                        94          :
          :  max. iterations                   250          :
          :  Hamiltonian                  GFN2-xTB          :
          :  restarted?                       true          :
          :  GBSA solvation                  false          :
          :  PC potential                    false          :
          :  electronic temp.          300.0000000     K    :
          :  accuracy                    1.0000000          :
          :  -> integral cutoff          0.2500000E+02      :
          :  -> integral neglect         0.1000000E-07      :
          :  -> SCF convergence          0.1000000E-05 Eh   :
          :  -> wf. convergence          0.1000000E-03 e    :
          :  Broyden damping             0.4000000          :
          :  net charge                          0          :
          :  unpaired electrons                  0          :
          ...................................................

 iter      E             dE          RMSdq      gap      omega  full diag
   1    -51.9911013 -0.519911E+02  0.369E+00    3.38       0.0  T
   2    -51.9961552 -0.505398E-02  0.219E+00    3.39       1.0  T
   3    -51.9963791 -0.223838E-03  0.248E-01    3.36       1.0  T
   4    -51.9974125 -0.103341E-02  0.167E-01    3.40       1.0  T
   5    -51.9979062 -0.493736E-03  0.703E-02    3.39       1.0  T
   6    -51.9979175 -0.113290E-04  0.115E-02    3.39       1.3  T
   7    -51.9979185 -0.956593E-06  0.534E-03    3.39       2.9  T
   8    -51.9979186 -0.129883E-06  0.228E-03    3.39       6.8  T
   9    -51.9979187 -0.738554E-07  0.781E-04    3.39      19.8  T
  10    -51.9979187 -0.213269E-08  0.331E-04    3.39      46.7  T

   *** convergence criteria satisfied after 10 iterations ***

         #    Occupation            Energy/Eh            Energy/eV
      -------------------------------------------------------------
         1        2.0000           -0.7259441             -19.7539
       ...           ...                  ...                  ...
        41        2.0000           -0.4290444             -11.6749
        42        2.0000           -0.4253944             -11.5756
        43        2.0000           -0.4229639             -11.5094
        44        2.0000           -0.4190237             -11.4022
        45        2.0000           -0.4185764             -11.3900
        46        2.0000           -0.4087387             -11.1223
        47        2.0000           -0.4047315             -11.0133 (HOMO)
        48                         -0.2801725              -7.6239 (LUMO)
        49                         -0.1672181              -4.5502
        50                         -0.0346091              -0.9418
        51                          0.0543564               1.4791
        52                          0.0766331               2.0853
       ...                                ...                  ...
        90                          0.6258814              17.0311
      -------------------------------------------------------------
                  HL-Gap            0.1245590 Eh            3.3894 eV
             Fermi-level           -0.3424520 Eh           -9.3186 eV

 SCC (total)                   0 d,  0 h,  0 min,  0.033 sec
 SCC setup                      ...        0 min,  0.000 sec (  0.856%)
 Dispersion                     ...        0 min,  0.001 sec (  1.902%)
 classical contributions        ...        0 min,  0.000 sec (  0.320%)
 integral evaluation            ...        0 min,  0.001 sec (  3.983%)
 iterations                     ...        0 min,  0.027 sec ( 79.915%)
 molecular gradient             ...        0 min,  0.004 sec ( 12.302%)
 printout                       ...        0 min,  0.000 sec (  0.636%)

         :::::::::::::::::::::::::::::::::::::::::::::::::::::
         ::                     SUMMARY                     ::
         :::::::::::::::::::::::::::::::::::::::::::::::::::::
         :: total energy             -51.342366620103 Eh    ::
         :: gradient norm              0.157650580680 Eh/a0 ::
         :: HOMO-LUMO gap              3.389422010982 eV    ::
         ::.................................................::
         :: SCC energy               -51.998189479443 Eh    ::
         :: -> isotropic ES            0.054596007136 Eh    ::
         :: -> anisotropic ES          0.007699380991 Eh    ::
         :: -> anisotropic XC          0.025879037960 Eh    ::
         :: -> dispersion             -0.029833494722 Eh    ::
         :: repulsion energy           0.655822859340 Eh    ::
         :: add. restraining           0.000000000000 Eh    ::
         :: total charge              -0.000000000000 e     ::
         :::::::::::::::::::::::::::::::::::::::::::::::::::::

      ----------------------------------------------------------- 
     |                   =====================                   |
     |                        A N C O P T                        |
     |                   =====================                   |
     |               Approximate Normal Coordinate               |
     |                Rational Function Optimizer                |
      ----------------------------------------------------------- 
      ----------------------------------------------------------- 
     |                   =====================                   |
     |                        A N C O P T                        |
     |                   =====================                   |
     |               Approximate Normal Coordinate               |
     |                Rational Function Optimizer                |
      ----------------------------------------------------------- 

          ...................................................
          :                      SETUP                      :
          :.................................................:
          :   optimization level            normal          :
          :   max. optcycles                   200          :
          :   ANC micro-cycles                  20          :
          :   degrees of freedom               120          :
          :.................................................:
          :   RF solver                   davidson          :
          :   write xtbopt.log                true          :
          :   linear?                        false          :
          :   energy convergence         0.5000000E-05 Eh   :
          :   grad. convergence          0.1000000E-02 Eh/α :
          :   maxmium RF displ.          1.0000000          :
          :   Hlow (freq-cutoff)         0.1000000E-01      :
          :   Hmax (freq-cutoff)         5.0000000          :
          :   S6 in model hess.         20.0000000          :
          ...................................................

generating ANC from exact Hessian ...
Using Lindh-Hessian (1995)
 Shifting diagonal of input Hessian by   9.782149018329434E-003
 Lowest  eigenvalues of input Hessian
    0.000000    0.000000    0.000000    0.000000    0.000000    0.000000
    0.010000    0.010130    0.010220    0.010603    0.011267    0.011504
    0.012142    0.012640    0.013675    0.014651    0.015348    0.016795
 Highest eigenvalues
    1.334424    1.354753    1.483203    1.802304    1.878087    2.113637
 

........................................................................
.............................. CYCLE    1 ..............................
........................................................................

 iter      E             dE          RMSdq      gap      omega  full diag
   1    -51.9979187 -0.519979E+02  0.785E-05    3.39       0.0  T
   2    -51.9979187 -0.227374E-10  0.470E-05    3.39     328.2  T
   3    -51.9979187 -0.189715E-11  0.232E-05    3.39     664.5  T
     SCC iter.                  ...        0 min,  0.006 sec
     gradient                   ...        0 min,  0.005 sec
 * total energy  :   -51.3423666 Eh     change       -0.4688587E-09 Eh
   gradient norm :     0.1576549 Eh/α   predicted     0.0000000E+00 (-100.00%)
   displ. norm   :     0.4080376 α      lambda       -0.3541182E-01
   maximum displ.:     0.1445239 α      in ANC's #20, #79, #34, ...

........................................................................
.............................. CYCLE    2 ..............................
........................................................................

 iter      E             dE          RMSdq      gap      omega  full diag
   1    -52.0583163 -0.520583E+02  0.331E-01    3.59       0.0  T
   2    -52.0586876 -0.371260E-03  0.199E-01    3.63       1.0  T
   3    -52.0586370  0.506064E-04  0.644E-02    3.63       1.0  T
   4    -52.0586958 -0.587903E-04  0.259E-02    3.63       1.0  T
   5    -52.0587181 -0.222946E-04  0.884E-03    3.62       1.7  T
   6    -52.0587198 -0.170337E-05  0.377E-03    3.63       4.1  T
   7    -52.0587198 -0.743108E-07  0.100E-03    3.63      15.4  T
   8    -52.0587199 -0.573743E-08  0.421E-04    3.63      36.7  T
   9    -52.0587199 -0.860290E-09  0.118E-04    3.63     130.5  T
     SCC iter.                  ...        0 min,  0.016 sec
     gradient                   ...        0 min,  0.004 sec
 * total energy  :   -51.3666055 Eh     change       -0.2423890E-01 Eh
   gradient norm :     0.0630942 Eh/α   predicted    -0.2068571E-01 ( -14.66%)
   displ. norm   :     0.3914434 α      lambda       -0.1019842E-01
   maximum displ.:     0.1815495 α      in ANC's #20, #15, #8, ...

........................................................................
.............................. CYCLE    3 ..............................
........................................................................

 iter      E             dE          RMSdq      gap      omega  full diag
   1    -52.0817170 -0.520817E+02  0.197E-01    3.75       0.0  T
   2    -52.0818613 -0.144287E-03  0.118E-01    3.78       1.0  T
   3    -52.0818488  0.124903E-04  0.361E-02    3.78       1.0  T
   4    -52.0818633 -0.144876E-04  0.156E-02    3.78       1.0  T
   5    -52.0818711 -0.786652E-05  0.562E-03    3.78       2.7  T
   6    -52.0818718 -0.679680E-06  0.205E-03    3.78       7.5  T
   7    -52.0818718 -0.246665E-07  0.597E-04    3.78      25.8  T
   8    -52.0818718 -0.204730E-08  0.246E-04    3.78      62.7  T
     SCC iter.                  ...        0 min,  0.014 sec
     gradient                   ...        0 min,  0.005 sec
 * total energy  :   -51.3728199 Eh     change       -0.6214363E-02 Eh
   gradient norm :     0.0165659 Eh/α   predicted    -0.5880553E-02 (  -5.37%)
   displ. norm   :     0.3319837 α      lambda       -0.2225720E-02
   maximum displ.:     0.1850989 α      in ANC's #15, #20, #8, ...

........................................................................
.............................. CYCLE    4 ..............................
........................................................................

 iter      E             dE          RMSdq      gap      omega  full diag
   1    -52.0789143 -0.520789E+02  0.851E-02    3.80       0.0  T
   2    -52.0789236 -0.934833E-05  0.508E-02    3.80       1.0  T
   3    -52.0789224  0.118684E-05  0.937E-03    3.81       1.6  T
   4    -52.0789233 -0.871207E-06  0.575E-03    3.80       2.7  T
   5    -52.0789244 -0.106179E-05  0.137E-03    3.80      11.3  T
   6    -52.0789244 -0.156887E-07  0.691E-04    3.80      22.3  T
   7    -52.0789244 -0.472422E-08  0.163E-04    3.80      94.6  T
     SCC iter.                  ...        0 min,  0.012 sec
     gradient                   ...        0 min,  0.004 sec
 * total energy  :   -51.3744251 Eh     change       -0.1605259E-02 Eh
   gradient norm :     0.0099051 Eh/α   predicted    -0.1235549E-02 ( -23.03%)
   displ. norm   :     0.3710063 α      lambda       -0.1317470E-02
   maximum displ.:     0.2513556 α      in ANC's #15, #8, #5, ...

........................................................................
.............................. CYCLE    5 ..............................
........................................................................

 iter      E             dE          RMSdq      gap      omega  full diag
   1    -52.0742872 -0.520743E+02  0.693E-02    3.82       0.0  T
   2    -52.0742942 -0.700927E-05  0.409E-02    3.82       1.0  T
   3    -52.0742940  0.271332E-06  0.770E-03    3.82       2.0  T
   4    -52.0742944 -0.385229E-06  0.319E-03    3.82       4.8  T
   5    -52.0742947 -0.322601E-06  0.126E-03    3.82      12.3  T
   6    -52.0742947 -0.218636E-07  0.555E-04    3.82      27.8  T
   7    -52.0742947 -0.179320E-08  0.113E-04    3.82     136.4  T
     SCC iter.                  ...        0 min,  0.012 sec
     gradient                   ...        0 min,  0.005 sec
 * total energy  :   -51.3753171 Eh     change       -0.8919302E-03 Eh
   gradient norm :     0.0081035 Eh/α   predicted    -0.7494161E-03 ( -15.98%)
   displ. norm   :     0.2879972 α      lambda       -0.6127768E-03
   maximum displ.:     0.2072898 α      in ANC's #15, #5, #8, ...

........................................................................
.............................. CYCLE    6 ..............................
........................................................................

 iter      E             dE          RMSdq      gap      omega  full diag
   1    -52.0728101 -0.520728E+02  0.474E-02    3.82       0.0  T
   2    -52.0728115 -0.137076E-05  0.281E-02    3.82       1.0  T
   3    -52.0728104  0.109853E-05  0.648E-03    3.82       2.4  T
   4    -52.0728115 -0.110792E-05  0.258E-03    3.82       6.0  T
   5    -52.0728117 -0.215124E-06  0.619E-04    3.82      24.9  T
   6    -52.0728117 -0.607209E-09  0.187E-04    3.82      82.6  T
     SCC iter.                  ...        0 min,  0.010 sec
     gradient                   ...        0 min,  0.004 sec
 * total energy  :   -51.3757578 Eh     change       -0.4407173E-03 Eh
   gradient norm :     0.0089086 Eh/α   predicted    -0.3318026E-03 ( -24.71%)
   displ. norm   :     0.2943384 α      lambda       -0.5549029E-03
   maximum displ.:     0.2058658 α      in ANC's #15, #5, #8, ...

........................................................................
.............................. CYCLE    7 ..............................
........................................................................

 iter      E             dE          RMSdq      gap      omega  full diag
   1    -52.0736708 -0.520737E+02  0.531E-02    3.82       0.0  T
   2    -52.0736716 -0.757468E-06  0.317E-02    3.82       1.0  T
   3    -52.0736699  0.169319E-05  0.753E-03    3.82       2.0  T
   4    -52.0736718 -0.192686E-05  0.164E-03    3.82       9.4  T
   5    -52.0736719 -0.491184E-07  0.678E-04    3.82      22.8  T
   6    -52.0736719 -0.254582E-08  0.265E-04    3.82      58.1  T
     SCC iter.                  ...        0 min,  0.010 sec
     gradient                   ...        0 min,  0.005 sec
 * total energy  :   -51.3761573 Eh     change       -0.3995463E-03 Eh
   gradient norm :     0.0081259 Eh/α   predicted    -0.3014915E-03 ( -24.54%)
   displ. norm   :     0.2845412 α      lambda       -0.4679775E-03
   maximum displ.:     0.1852238 α      in ANC's #15, #5, #21, ...

........................................................................
.............................. CYCLE    8 ..............................
........................................................................

 iter      E             dE          RMSdq      gap      omega  full diag
   1    -52.0758911 -0.520759E+02  0.504E-02    3.82       0.0  T
   2    -52.0758924 -0.134824E-05  0.303E-02    3.82       1.0  T
   3    -52.0758921  0.297449E-06  0.420E-03    3.81       3.7  T
   4    -52.0758925 -0.411305E-06  0.175E-03    3.82       8.8  T
   5    -52.0758926 -0.685136E-07  0.765E-04    3.82      20.2  T
   6    -52.0758926 -0.909044E-08  0.372E-04    3.82      41.5  T
     SCC iter.                  ...        0 min,  0.010 sec
     gradient                   ...        0 min,  0.005 sec
 * total energy  :   -51.3764805 Eh     change       -0.3231671E-03 Eh
   gradient norm :     0.0061971 Eh/α   predicted    -0.2529344E-03 ( -21.73%)
   displ. norm   :     0.2554174 α      lambda       -0.3036778E-03
   maximum displ.:     0.1622958 α      in ANC's #15, #5, #14, ...

........................................................................
.............................. CYCLE    9 ..............................
........................................................................

 iter      E             dE          RMSdq      gap      omega  full diag
   1    -52.0768487 -0.520768E+02  0.460E-02    3.81       0.0  T
   2    -52.0768492 -0.532589E-06  0.276E-02    3.81       1.0  T
   3    -52.0768487  0.501730E-06  0.423E-03    3.81       3.6  T
   4    -52.0768493 -0.575681E-06  0.158E-03    3.81       9.8  T
   5    -52.0768494 -0.694518E-07  0.615E-04    3.81      25.1  T
   6    -52.0768494 -0.246782E-08  0.245E-04    3.81      62.9  T
     SCC iter.                  ...        0 min,  0.009 sec
     gradient                   ...        0 min,  0.004 sec
 * total energy  :   -51.3766848 Eh     change       -0.2042494E-03 Eh
   gradient norm :     0.0051883 Eh/α   predicted    -0.1617453E-03 ( -20.81%)
   displ. norm   :     0.1871904 α      lambda       -0.1984902E-03
   maximum displ.:     0.0898372 α      in ANC's #15, #5, #14, ...

........................................................................
.............................. CYCLE   10 ..............................
........................................................................

 iter      E             dE          RMSdq      gap      omega  full diag
   1    -52.0791216 -0.520791E+02  0.366E-02    3.81       0.0  T
   2    -52.0791225 -0.914670E-06  0.214E-02    3.81       1.0  T
   3    -52.0791214  0.110995E-05  0.652E-03    3.81       2.4  T
   4    -52.0791226 -0.120363E-05  0.191E-03    3.81       8.1  T
   5    -52.0791227 -0.111153E-06  0.566E-04    3.81      27.3  T
   6    -52.0791227 -0.545839E-09  0.174E-04    3.81      88.9  T
     SCC iter.                  ...        0 min,  0.009 sec
     gradient                   ...        0 min,  0.004 sec
 * total energy  :   -51.3768054 Eh     change       -0.1206618E-03 Eh
   gradient norm :     0.0036461 Eh/α   predicted    -0.1027237E-03 ( -14.87%)
   displ. norm   :     0.2897970 α      lambda       -0.1896632E-03
   maximum displ.:     0.1854303 α      in ANC's #15, #5, #7, ...

........................................................................
.............................. CYCLE   11 ..............................
........................................................................

 iter      E             dE          RMSdq      gap      omega  full diag
   1    -52.0759887 -0.520760E+02  0.540E-02    3.81       0.0  T
   2    -52.0759918 -0.316159E-05  0.316E-02    3.81       1.0  T
   3    -52.0759911  0.771140E-06  0.727E-03    3.82       2.1  T
   4    -52.0759918 -0.727088E-06  0.356E-03    3.81       4.3  T
   5    -52.0759922 -0.409485E-06  0.100E-03    3.81      15.4  T
   6    -52.0759922 -0.190764E-08  0.318E-04    3.81      48.5  T
   7    -52.0759922 -0.108523E-08  0.812E-05    3.81     190.0  T
     SCC iter.                  ...        0 min,  0.011 sec
     gradient                   ...        0 min,  0.005 sec
 * total energy  :   -51.3768152 Eh     change       -0.9789622E-05 Eh
   gradient norm :     0.0087572 Eh/α   predicted    -0.1027964E-03 ( 950.06%)
   displ. norm   :     0.1102761 α      lambda       -0.2301208E-03
   maximum displ.:     0.0706926 α      in ANC's #15, #5, #7, ...

........................................................................
.............................. CYCLE   12 ..............................
........................................................................

 iter      E             dE          RMSdq      gap      omega  full diag
   1    -52.0792633 -0.520793E+02  0.291E-02    3.82       0.0  T
   2    -52.0792655 -0.220290E-05  0.166E-02    3.82       1.0  T
   3    -52.0792655 -0.176587E-08  0.471E-03    3.82       3.3  T
   4    -52.0792656 -0.602050E-07  0.176E-03    3.82       8.8  T
   5    -52.0792657 -0.880860E-07  0.734E-04    3.82      21.0  T
   6    -52.0792657 -0.390836E-08  0.321E-04    3.82      48.1  T
     SCC iter.                  ...        0 min,  0.009 sec
     gradient                   ...        0 min,  0.007 sec
 * total energy  :   -51.3769413 Eh     change       -0.1260674E-03 Eh
   gradient norm :     0.0030219 Eh/α   predicted    -0.1164604E-03 (  -7.62%)
   displ. norm   :     0.0907797 α      lambda       -0.6942512E-04
   maximum displ.:     0.0632104 α      in ANC's #7, #13, #16, ...

........................................................................
.............................. CYCLE   13 ..............................
........................................................................

 iter      E             dE          RMSdq      gap      omega  full diag
   1    -52.0794956 -0.520795E+02  0.198E-02    3.82       0.0  T
   2    -52.0794959 -0.264757E-06  0.118E-02    3.82       1.3  T
   3    -52.0794957  0.163101E-06  0.248E-03    3.82       6.2  T
   4    -52.0794959 -0.153219E-06  0.112E-03    3.82      13.8  T
   5    -52.0794959 -0.446000E-07  0.236E-04    3.82      65.4  T
   6    -52.0794959 -0.160526E-09  0.114E-04    3.82     135.1  T
     SCC iter.                  ...        0 min,  0.009 sec
     gradient                   ...        0 min,  0.005 sec
 * total energy  :   -51.3769970 Eh     change       -0.5571308E-04 Eh
   gradient norm :     0.0025078 Eh/α   predicted    -0.3499914E-04 ( -37.18%)
   displ. norm   :     0.2477252 α      lambda       -0.1377059E-03
   maximum displ.:     0.1639082 α      in ANC's #7, #13, #16, ...

........................................................................
.............................. CYCLE   14 ..............................
........................................................................

 iter      E             dE          RMSdq      gap      omega  full diag
   1    -52.0788943 -0.520789E+02  0.443E-02    3.82       0.0  T
   2    -52.0788949 -0.590391E-06  0.263E-02    3.82       1.0  T
   3    -52.0788927  0.220550E-05  0.819E-03    3.82       1.9  T
   4    -52.0788951 -0.241277E-05  0.137E-03    3.82      11.3  T
   5    -52.0788952 -0.507810E-07  0.447E-04    3.82      34.5  T
   6    -52.0788952 -0.163034E-09  0.180E-04    3.82      85.9  T
     SCC iter.                  ...        0 min,  0.009 sec
     gradient                   ...        0 min,  0.005 sec
 * total energy  :   -51.3770951 Eh     change       -0.9813727E-04 Eh
   gradient norm :     0.0034751 Eh/α   predicted    -0.7308275E-04 ( -25.53%)
   displ. norm   :     0.2136818 α      lambda       -0.8605095E-04
   maximum displ.:     0.1375246 α      in ANC's #7, #13, #16, ...

........................................................................
.............................. CYCLE   15 ..............................
........................................................................

 iter      E             dE          RMSdq      gap      omega  full diag
   1    -52.0779910 -0.520780E+02  0.409E-02    3.82       0.0  T
   2    -52.0779913 -0.307799E-06  0.243E-02    3.82       1.0  T
   3    -52.0779891  0.212415E-05  0.800E-03    3.82       1.9  T
   4    -52.0779915 -0.234534E-05  0.930E-04    3.82      16.6  T
   5    -52.0779915 -0.152275E-07  0.410E-04    3.82      37.7  T
   6    -52.0779915 -0.975717E-10  0.134E-04    3.82     114.8  T
     SCC iter.                  ...        0 min,  0.009 sec
     gradient                   ...        0 min,  0.005 sec
 * total energy  :   -51.3771522 Eh     change       -0.5703091E-04 Eh
   gradient norm :     0.0036649 Eh/α   predicted    -0.4499486E-04 ( -21.10%)
   displ. norm   :     0.1379201 α      lambda       -0.5332258E-04
   maximum displ.:     0.0887908 α      in ANC's #7, #13, #16, ...

........................................................................
.............................. CYCLE   16 ..............................
........................................................................

 iter      E             dE          RMSdq      gap      omega  full diag
   1    -52.0785674 -0.520786E+02  0.277E-02    3.82       0.0  T
   2    -52.0785677 -0.257492E-06  0.165E-02    3.82       1.0  T
   3    -52.0785668  0.885838E-06  0.528E-03    3.82       2.9  T
   4    -52.0785677 -0.966910E-06  0.967E-04    3.82      16.0  T
   5    -52.0785678 -0.288322E-07  0.285E-04    3.82      54.2  T
     SCC iter.                  ...        0 min,  0.008 sec
     gradient                   ...        0 min,  0.005 sec
 * total energy  :   -51.3771911 Eh     change       -0.3898915E-04 Eh
   gradient norm :     0.0026859 Eh/α   predicted    -0.2717158E-04 ( -30.31%)
   displ. norm   :     0.1452675 α      lambda       -0.5097547E-04
   maximum displ.:     0.0838003 α      in ANC's #7, #16, #13, ...

........................................................................
.............................. CYCLE   17 ..............................
........................................................................

 iter      E             dE          RMSdq      gap      omega  full diag
   1    -52.0786250 -0.520786E+02  0.332E-02    3.83       0.0  T
   2    -52.0786254 -0.397605E-06  0.197E-02    3.83       1.0  T
   3    -52.0786250  0.358212E-06  0.358E-03    3.83       4.3  T
   4    -52.0786254 -0.374917E-06  0.128E-03    3.83      12.1  T
   5    -52.0786255 -0.543838E-07  0.334E-04    3.83      46.3  T
   6    -52.0786255 -0.551005E-09  0.156E-04    3.83      99.2  T
     SCC iter.                  ...        0 min,  0.009 sec
     gradient                   ...        0 min,  0.005 sec
 * total energy  :   -51.3772246 Eh     change       -0.3349046E-04 Eh
   gradient norm :     0.0022116 Eh/α   predicted    -0.2602741E-04 ( -22.28%)
   displ. norm   :     0.0994735 α      lambda       -0.3503861E-04
   maximum displ.:     0.0514328 α      in ANC's #16, #7, #3, ...

........................................................................
.............................. CYCLE   18 ..............................
........................................................................

 iter      E             dE          RMSdq      gap      omega  full diag
   1    -52.0798040 -0.520798E+02  0.283E-02    3.83       0.0  T
   2    -52.0798042 -0.225148E-06  0.166E-02    3.83       1.0  T
   3    -52.0798042  0.284678E-08  0.108E-03    3.83      14.3  T
   4    -52.0798042 -0.124839E-07  0.710E-04    3.83      21.7  T
   5    -52.0798042 -0.139223E-07  0.249E-04    3.83      62.1  T
     SCC iter.                  ...        0 min,  0.008 sec
     gradient                   ...        0 min,  0.005 sec
 * total energy  :   -51.3772458 Eh     change       -0.2112958E-04 Eh
   gradient norm :     0.0021247 Eh/α   predicted    -0.1769664E-04 ( -16.25%)
   displ. norm   :     0.1675271 α      lambda       -0.3483913E-04
   maximum displ.:     0.0920759 α      in ANC's #16, #7, #15, ...

........................................................................
.............................. CYCLE   19 ..............................
........................................................................

 iter      E             dE          RMSdq      gap      omega  full diag
   1    -52.0786350 -0.520786E+02  0.400E-02    3.83       0.0  T
   2    -52.0786355 -0.477087E-06  0.235E-02    3.83       1.0  T
   3    -52.0786353  0.160461E-06  0.274E-03    3.83       5.6  T
   4    -52.0786355 -0.166424E-06  0.136E-03    3.83      11.3  T
   5    -52.0786355 -0.603032E-07  0.422E-04    3.83      36.5  T
   6    -52.0786355 -0.777426E-09  0.110E-04    3.83     140.8  T
     SCC iter.                  ...        0 min,  0.009 sec
     gradient                   ...        0 min,  0.004 sec
 * total energy  :   -51.3772617 Eh     change       -0.1591262E-04 Eh
   gradient norm :     0.0037097 Eh/α   predicted    -0.1791009E-04 (  12.55%)
   displ. norm   :     0.1086860 α      lambda       -0.4989393E-04
   maximum displ.:     0.0507170 α      in ANC's #16, #10, #3, ...

........................................................................
.............................. CYCLE   20 ..............................
........................................................................

 iter      E             dE          RMSdq      gap      omega  full diag
   1    -52.0793765 -0.520794E+02  0.303E-02    3.83       0.0  T
   2    -52.0793768 -0.346285E-06  0.177E-02    3.83       1.0  T
   3    -52.0793768  0.120669E-07  0.162E-03    3.83       9.5  T
   4    -52.0793768 -0.497464E-07  0.649E-04    3.83      23.8  T
   5    -52.0793768 -0.633040E-08  0.357E-04    3.83      43.2  T
     SCC iter.                  ...        0 min,  0.008 sec
     gradient                   ...        0 min,  0.005 sec
 * total energy  :   -51.3772895 Eh     change       -0.2779690E-04 Eh
   gradient norm :     0.0034494 Eh/α   predicted    -0.2524308E-04 (  -9.19%)
   displ. norm   :     0.0909035 α      lambda       -0.3546892E-04
   maximum displ.:     0.0466551 α      in ANC's #16, #10, #3, ...
 * RMSD in coord.:     0.4383086 α      energy gain  -0.3492286E-01 Eh

generating ANC from exact Hessian ...
Using Lindh-Hessian (1995)
 Shifting diagonal of input Hessian by   9.761746055436223E-003
 Lowest  eigenvalues of input Hessian
    0.000000    0.000000    0.000000    0.000000    0.000000    0.000000
    0.010000    0.010181    0.010286    0.010648    0.011241    0.011558
    0.012110    0.012665    0.013643    0.014592    0.015393    0.016781
 Highest eigenvalues
    1.290387    1.319710    1.471913    1.831869    1.923607    2.379155
 

........................................................................
.............................. CYCLE   21 ..............................
........................................................................

 iter      E             dE          RMSdq      gap      omega  full diag
   1    -52.0795216 -0.520795E+02  0.244E-02    3.83       0.0  T
   2    -52.0795217 -0.179430E-06  0.143E-02    3.83       1.1  T
   3    -52.0795216  0.142136E-06  0.220E-03    3.83       7.0  T
   4    -52.0795217 -0.147479E-06  0.925E-04    3.83      16.7  T
   5    -52.0795218 -0.279214E-07  0.241E-04    3.83      63.9  T
     SCC iter.                  ...        0 min,  0.014 sec
     gradient                   ...        0 min,  0.009 sec
 * total energy  :   -51.3773157 Eh     change       -0.2620269E-04 Eh
   gradient norm :     0.0019848 Eh/α   predicted     0.0000000E+00 (-100.00%)
   displ. norm   :     0.0406917 α      lambda       -0.1749452E-04
   maximum displ.:     0.0218837 α      in ANC's #10, #16, #8, ...

........................................................................
.............................. CYCLE   22 ..............................
........................................................................

 iter      E             dE          RMSdq      gap      omega  full diag
   1    -52.0793826 -0.520794E+02  0.106E-02    3.83       0.0  T
   2    -52.0793826 -0.919295E-07  0.629E-03    3.83       2.5  T
   3    -52.0793824  0.209990E-06  0.287E-03    3.83       5.4  T
   4    -52.0793827 -0.238292E-06  0.575E-04    3.83      26.8  T
   5    -52.0793827 -0.101274E-07  0.180E-04    3.83      85.6  T
     SCC iter.                  ...        0 min,  0.012 sec
     gradient                   ...        0 min,  0.004 sec
 * total energy  :   -51.3773354 Eh     change       -0.1970147E-04 Eh
   gradient norm :     0.0006763 Eh/α   predicted    -0.8791981E-05 ( -55.37%)
   displ. norm   :     0.0965041 α      lambda       -0.2420939E-04
   maximum displ.:     0.0536559 α      in ANC's #10, #16, #17, ...

........................................................................
.............................. CYCLE   23 ..............................
........................................................................

 iter      E             dE          RMSdq      gap      omega  full diag
   1    -52.0792275 -0.520792E+02  0.200E-02    3.83       0.0  T
   2    -52.0792276 -0.148763E-06  0.120E-02    3.83       1.3  T
   3    -52.0792269  0.722460E-06  0.491E-03    3.83       3.1  T
   4    -52.0792277 -0.804893E-06  0.715E-04    3.83      21.6  T
   5    -52.0792277 -0.142802E-07  0.260E-04    3.83      59.5  T
     SCC iter.                  ...        0 min,  0.009 sec
     gradient                   ...        0 min,  0.005 sec
 * total energy  :   -51.3773582 Eh     change       -0.2280653E-04 Eh
   gradient norm :     0.0017213 Eh/α   predicted    -0.1216128E-04 ( -46.68%)
   displ. norm   :     0.1021055 α      lambda       -0.1826844E-04
   maximum displ.:     0.0560613 α      in ANC's #10, #17, #16, ...

........................................................................
.............................. CYCLE   24 ..............................
........................................................................

 iter      E             dE          RMSdq      gap      omega  full diag
   1    -52.0792577 -0.520793E+02  0.225E-02    3.83       0.0  T
   2    -52.0792577 -0.832062E-07  0.135E-02    3.83       1.1  T
   3    -52.0792574  0.337893E-06  0.327E-03    3.83       4.7  T
   4    -52.0792578 -0.385761E-06  0.537E-04    3.83      28.8  T
   5    -52.0792578 -0.400154E-08  0.277E-04    3.83      55.7  T
     SCC iter.                  ...        0 min,  0.009 sec
     gradient                   ...        0 min,  0.003 sec
 * total energy  :   -51.3773729 Eh     change       -0.1474563E-04 Eh
   gradient norm :     0.0021513 Eh/α   predicted    -0.9183148E-05 ( -37.72%)
   displ. norm   :     0.0649483 α      lambda       -0.1713259E-04
   maximum displ.:     0.0370814 α      in ANC's #17, #10, #13, ...

........................................................................
.............................. CYCLE   25 ..............................
........................................................................

 iter      E             dE          RMSdq      gap      omega  full diag
   1    -52.0794372 -0.520794E+02  0.134E-02    3.83       0.0  T
   2    -52.0794373 -0.212898E-07  0.804E-03    3.83       1.9  T
   3    -52.0794373 -0.310171E-08  0.467E-04    3.83      33.1  T
   4    -52.0794373 -0.414027E-08  0.244E-04    3.83      63.3  T
     SCC iter.                  ...        0 min,  0.008 sec
     gradient                   ...        0 min,  0.005 sec
 * total energy  :   -51.3773866 Eh     change       -0.1370296E-04 Eh
   gradient norm :     0.0016806 Eh/α   predicted    -0.8603592E-05 ( -37.21%)
   displ. norm   :     0.1976469 α      lambda       -0.3135094E-04
   maximum displ.:     0.1250718 α      in ANC's #17, #10, #13, ...

........................................................................
.............................. CYCLE   26 ..............................
........................................................................

 iter      E             dE          RMSdq      gap      omega  full diag
   1    -52.0796215 -0.520796E+02  0.420E-02    3.83       0.0  T
   2    -52.0796218 -0.238824E-06  0.250E-02    3.83       1.0  T
   3    -52.0796218 -0.347419E-07  0.148E-03    3.83      10.4  T
   4    -52.0796218 -0.374099E-07  0.717E-04    3.83      21.5  T
   5    -52.0796218 -0.305299E-09  0.401E-04    3.83      38.4  T
     SCC iter.                  ...        0 min,  0.009 sec
     gradient                   ...        0 min,  0.005 sec
 * total energy  :   -51.3774073 Eh     change       -0.2068608E-04 Eh
   gradient norm :     0.0020035 Eh/α   predicted    -0.1594824E-04 ( -22.90%)
   displ. norm   :     0.0242344 α      lambda       -0.1400967E-04
   maximum displ.:     0.0143443 α      in ANC's #8, #17, #16, ...

........................................................................
.............................. CYCLE   27 ..............................
........................................................................

 iter      E             dE          RMSdq      gap      omega  full diag
   1    -52.0800765 -0.520801E+02  0.870E-03    3.83       0.0  T
   2    -52.0800766 -0.557073E-07  0.508E-03    3.83       3.0  T
   3    -52.0800766  0.666829E-08  0.806E-04    3.83      19.1  T
   4    -52.0800766 -0.776382E-08  0.378E-04    3.83      40.8  T
     SCC iter.                  ...        0 min,  0.007 sec
     gradient                   ...        0 min,  0.005 sec
 * total energy  :   -51.3774172 Eh     change       -0.9917742E-05 Eh
   gradient norm :     0.0013271 Eh/α   predicted    -0.7010435E-05 ( -29.31%)
   displ. norm   :     0.0966562 α      lambda       -0.1590674E-04
   maximum displ.:     0.0734584 α      in ANC's #17, #8, #13, ...

........................................................................
.............................. CYCLE   28 ..............................
........................................................................

 iter      E             dE          RMSdq      gap      omega  full diag
   1    -52.0800074 -0.520800E+02  0.271E-02    3.83       0.0  T
   2    -52.0800075 -0.671270E-07  0.160E-02    3.83       1.0  T
   3    -52.0800075 -0.143472E-08  0.982E-04    3.83      15.7  T
   4    -52.0800075 -0.234497E-07  0.406E-04    3.83      38.0  T
     SCC iter.                  ...        0 min,  0.006 sec
     gradient                   ...        0 min,  0.004 sec
 * total energy  :   -51.3774326 Eh     change       -0.1540408E-04 Eh
   gradient norm :     0.0012765 Eh/α   predicted    -0.7986943E-05 ( -48.15%)
   displ. norm   :     0.1101335 α      lambda       -0.1088639E-04
   maximum displ.:     0.0864189 α      in ANC's #17, #13, #19, ...

........................................................................
.............................. CYCLE   29 ..............................
........................................................................

 iter      E             dE          RMSdq      gap      omega  full diag
   1    -52.0794709 -0.520795E+02  0.276E-02    3.83       0.0  T
   2    -52.0794711 -0.199872E-06  0.163E-02    3.83       1.0  T
   3    -52.0794708  0.294440E-06  0.321E-03    3.83       4.8  T
   4    -52.0794712 -0.332863E-06  0.877E-04    3.83      17.6  T
   5    -52.0794712 -0.208629E-07  0.355E-04    3.83      43.5  T
     SCC iter.                  ...        0 min,  0.008 sec
     gradient                   ...        0 min,  0.003 sec
 * total energy  :   -51.3774429 Eh     change       -0.1028427E-04 Eh
   gradient norm :     0.0009830 Eh/α   predicted    -0.5474198E-05 ( -46.77%)
   displ. norm   :     0.0543470 α      lambda       -0.6295899E-05
   maximum displ.:     0.0397549 α      in ANC's #17, #16, #19, ...

........................................................................
.............................. CYCLE   30 ..............................
........................................................................

 iter      E             dE          RMSdq      gap      omega  full diag
   1    -52.0796184 -0.520796E+02  0.146E-02    3.83       0.0  T
   2    -52.0796184 -0.377958E-07  0.865E-03    3.83       1.8  T
   3    -52.0796184  0.622224E-07  0.150E-03    3.83      10.3  T
   4    -52.0796185 -0.756558E-07  0.441E-04    3.83      35.0  T
   5    -52.0796185 -0.369313E-08  0.203E-04    3.83      76.0  T
     SCC iter.                  ...        0 min,  0.008 sec
     gradient                   ...        0 min,  0.004 sec
 * total energy  :   -51.3774491 Eh     change       -0.6211644E-05 Eh
   gradient norm :     0.0006079 Eh/α   predicted    -0.3154702E-05 ( -49.21%)
   displ. norm   :     0.1344663 α      lambda       -0.9353012E-05
   maximum displ.:     0.1045527 α      in ANC's #17, #13, #19, ...

........................................................................
.............................. CYCLE   31 ..............................
........................................................................

 iter      E             dE          RMSdq      gap      omega  full diag
   1    -52.0788138 -0.520788E+02  0.332E-02    3.83       0.0  T
   2    -52.0788142 -0.361906E-06  0.196E-02    3.83       1.0  T
   3    -52.0788141  0.570866E-07  0.226E-03    3.83       6.8  T
   4    -52.0788142 -0.955466E-07  0.120E-03    3.83      12.9  T
   5    -52.0788143 -0.366544E-07  0.525E-04    3.83      29.4  T
   6    -52.0788143 -0.984237E-09  0.175E-04    3.83      88.0  T
     SCC iter.                  ...        0 min,  0.009 sec
     gradient                   ...        0 min,  0.003 sec
 * total energy  :   -51.3774519 Eh     change       -0.2762733E-05 Eh
   gradient norm :     0.0024133 Eh/α   predicted    -0.4714677E-05 (  70.65%)
   displ. norm   :     0.0361794 α      lambda       -0.1137404E-04
   maximum displ.:     0.0195725 α      in ANC's #17, #10, #15, ...

........................................................................
.............................. CYCLE   32 ..............................
........................................................................

 iter      E             dE          RMSdq      gap      omega  full diag
   1    -52.0794322 -0.520794E+02  0.882E-03    3.83       0.0  T
   2    -52.0794323 -0.930675E-07  0.514E-03    3.83       3.0  T
   3    -52.0794323  0.958801E-08  0.994E-04    3.83      15.5  T
   4    -52.0794323 -0.104120E-07  0.416E-04    3.83      37.1  T
     SCC iter.                  ...        0 min,  0.006 sec
     gradient                   ...        0 min,  0.004 sec
 * total energy  :   -51.3774597 Eh     change       -0.7832149E-05 Eh
   gradient norm :     0.0011274 Eh/α   predicted    -0.5694703E-05 ( -27.29%)
   displ. norm   :     0.0528909 α      lambda       -0.6790562E-05
   maximum displ.:     0.0180259 α      in ANC's #8, #7, #17, ...

........................................................................
.............................. CYCLE   33 ..............................
........................................................................

 iter      E             dE          RMSdq      gap      omega  full diag
   1    -52.0800366 -0.520800E+02  0.143E-02    3.83       0.0  T
   2    -52.0800367 -0.823815E-07  0.847E-03    3.83       1.8  T
   3    -52.0800366  0.738025E-07  0.176E-03    3.83       8.8  T
   4    -52.0800367 -0.911841E-07  0.577E-04    3.83      26.7  T
   5    -52.0800367 -0.736884E-08  0.263E-04    3.83      58.6  T
     SCC iter.                  ...        0 min,  0.008 sec
     gradient                   ...        0 min,  0.003 sec
 * total energy  :   -51.3774652 Eh     change       -0.5448004E-05 Eh
   gradient norm :     0.0006399 Eh/α   predicted    -0.3399699E-05 ( -37.60%)
   displ. norm   :     0.0485939 α      lambda       -0.2813908E-05
   maximum displ.:     0.0347154 α      in ANC's #17, #13, #23, ...

........................................................................
.............................. CYCLE   34 ..............................
........................................................................

 iter      E             dE          RMSdq      gap      omega  full diag
   1    -52.0799210 -0.520799E+02  0.130E-02    3.83       0.0  T
   2    -52.0799210 -0.352681E-07  0.772E-03    3.83       2.0  T
   3    -52.0799210  0.134864E-07  0.987E-04    3.83      15.6  T
   4    -52.0799210 -0.266251E-07  0.457E-04    3.83      33.8  T
     SCC iter.                  ...        0 min,  0.006 sec
     gradient                   ...        0 min,  0.003 sec
 * total energy  :   -51.3774686 Eh     change       -0.3436017E-05 Eh
   gradient norm :     0.0003000 Eh/α   predicted    -0.1410845E-05 ( -58.94%)
   displ. norm   :     0.0944507 α      lambda       -0.4247111E-05
   maximum displ.:     0.0678832 α      in ANC's #17, #23, #19, ...

   *** GEOMETRY OPTIMIZATION CONVERGED AFTER 34 ITERATIONS ***

------------------------------------------------------------------------
 total energy gain   :        -0.0351020 Eh      -22.0268 kcal/mol
 total RMSD          :         0.4799228 a0        0.2540 Å
 total power (kW/mol):        -2.7105966 (step) -157.9447 (real)
------------------------------------------------------------------------

 ANCopt (total)                0 d,  0 h,  0 min,  0.584 sec
 optimizer setup                ...        0 min,  0.000 sec (  0.017%)
 model hessian                  ...        0 min,  0.047 sec (  8.140%)
 ANC generation                 ...        0 min,  0.004 sec (  0.640%)
 coordinate transformation      ...        0 min,  0.001 sec (  0.087%)
 single point calculation       ...        0 min,  0.514 sec ( 88.071%)
 optimization log               ...        0 min,  0.010 sec (  1.757%)
 hessian update                 ...        0 min,  0.003 sec (  0.491%)
 rational function              ...        0 min,  0.003 sec (  0.564%)

================
 final structure:
================
42
 xtb: 6.7.1 (edcfbbe)
C           -6.08986916220810        0.01666905171953       -0.73400529546331
C           -5.72665048302205        0.22286449030491        0.73498569486767
C           -5.77944347371701        1.70681873054800        1.09244861593209
C           -4.37252234852606       -0.40862238699945        1.08932789133791
C           -3.16717278308054        0.17533680276969        0.35506708199706
C           -1.87155329370212       -0.51328700549691        0.77888175925177
C           -0.65518908076412        0.06077276238412        0.05630353488607
C            0.63941109623693       -0.62802160206887        0.48164765616892
C            1.85445179378745       -0.04578263917683       -0.23488829520250
C            3.13749983852223       -0.74438494279901        0.18881689858455
O            4.23199320303333       -0.13619184507944       -0.49410334329269
C            5.44638593235960       -0.62252036751852       -0.21047459474054
O            5.62872909135680       -1.52906801860494        0.56650983569210
C            6.53710547909352        0.07345562148590       -0.94794868534564
C            7.89096631543942       -0.53518547511978       -0.76808678504863
C            6.29702895445238        1.15268758294592       -1.68437107069564
H           -5.42119579062037        0.57798504988037       -1.38160262305352
H           -7.10539802086385        0.35884190140434       -0.92104225931039
H           -6.02901074220623       -1.03614096242032       -1.00052288965008
H           -6.48048979000247       -0.29436734947624        1.34168338469636
H           -6.79014956751451        2.08808071016503        0.96378991475920
H           -5.11826219138302        2.28414466452428        0.45120040571260
H           -5.48392501581912        1.86318486863302        2.12748792277574
H           -4.42525163898589       -1.47969518390332        0.87680899758789
H           -4.21203809139113       -0.29860289447023        2.16511729708458
H           -3.29491104585880        0.05463653971205       -0.72164489366011
H           -3.08515634110529        1.24211170547163        0.56812484831815
H           -1.94405245590759       -1.58295913126483        0.56841880463325
H           -1.73687360602239       -0.39882176447312        1.85707654121363
H           -0.58111986074943        1.13000816981460        0.26748405493922
H           -0.78776517955172       -0.05405923802892       -1.02189797352834
H            0.76948609810770       -0.51841634412608        1.56056097686148
H            0.56896282111810       -1.69622633608751        0.26516106736002
H            1.94382159357907        1.01870654507845       -0.01073819469925
H            1.73618353458190       -0.15019439168721       -1.31489872788313
H            3.11002871688707       -1.81162749024710       -0.06044092640694
H            3.29901611905474       -0.65693544549969        1.26966856113476
H            8.65728972487657        0.07315821017332       -1.23947574448003
H            8.10743601774978       -0.64223118222678        0.29308310824888
H            7.90720727693023       -1.53434153431454       -1.20124075088904
H            5.30584708348784        1.55835145762832       -1.78328213581156
H            7.08915127234705        1.65986966644723       -2.20976366488273
 
 Bond Distances (Angstroems)
 ---------------------------
C1-C2=1.5272         C1-H17=1.0870        C1-H18=1.0878        C1-H19=1.0877        C2-C1=1.5272         C2-C3=1.5273         
C2-C4=1.5356         C2-H20=1.0972        C3-C2=1.5273         C3-H21=1.0879        C3-H22=1.0870        C3-H23=1.0877        
C4-C2=1.5356         C4-C5=1.5274         C4-H24=1.0932        C4-H25=1.0932        C5-C4=1.5274         C5-C6=1.5272         
C5-H26=1.0910        C5-H27=1.0909        C6-C5=1.5272         C6-C7=1.5268         C6-H28=1.0926        C6-H29=1.0926        
C7-C6=1.5268         C7-C8=1.5269         C7-H30=1.0924        C7-H31=1.0924        C8-C7=1.5269         C8-C9=1.5260         
C8-H32=1.0922        C8-H33=1.0922        C9-C8=1.5260         C9-C10=1.5211        C9-H34=1.0915        C9-H35=1.0915        
C10-C9=1.5211        C10-O11=1.4263       C10-H36=1.0963       C10-H37=1.0963       O11-C10=1.4263       O11-C12=1.3385       
C12-O11=1.3385       C12-O13=1.2078       C12-C14=1.4893       O13-C12=1.2078       C14-C12=1.4893       C14-C15=1.4952       
C14-C16=1.3284       C15-C14=1.4952       C15-H38=1.0861       C15-H39=1.0883       C15-H40=1.0891       C16-C14=1.3284       
C16-H41=1.0755       C16-H42=1.0774       H17-C1=1.0870        H18-C1=1.0878        H19-C1=1.0877        H20-C2=1.0972        
H21-C3=1.0879        H22-C3=1.0870        H23-C3=1.0877        H24-C4=1.0932        H25-C4=1.0932        H26-C5=1.0910        
H27-C5=1.0909        H28-C6=1.0926        H29-C6=1.0926        H30-C7=1.0924        H31-C7=1.0924        H32-C8=1.0922        
H33-C8=1.0922        H34-C9=1.0915        H35-C9=1.0915        H36-C10=1.0963       H37-C10=1.0963       H38-C15=1.0861       
H39-C15=1.0883       H40-C15=1.0891       H41-C16=1.0755       H42-C16=1.0774       
 C  H  Rav=1.0899 sigma=0.0049  Rmin=1.0755  Rmax=1.0972    26
 C  C  Rav=1.5049 sigma=0.0549  Rmin=1.3284  Rmax=1.5356    12
 O  C  Rav=1.3242 sigma=0.0898  Rmin=1.2078  Rmax=1.4263     3
 
 selected bond angles (degree)
 --------------------
H17-C1-C2=110.92               H18-C1-C2=110.18               H18-C1-H17=108.02              H19-C1-C2=110.67               
H19-C1-H17=108.63              H19-C1-H18=108.33              C3-C2-C1=110.37                C4-C2-C1=112.10                
C4-C2-C3=112.09                H20-C2-C1=107.75               H20-C2-C3=107.75               H20-C2-C4=106.52               
H21-C3-C2=110.18               H22-C3-C2=110.91               H22-C3-H21=108.01              H23-C3-C2=110.67               
H23-C3-H21=108.34              H23-C3-H22=108.65              C5-C4-C2=115.32                H24-C4-C2=108.39               
H24-C4-C5=108.61               H25-C4-C2=108.37               H25-C4-C5=108.59               H25-C4-H24=107.28              
C6-C5-C4=111.33                H26-C5-C4=109.86               H26-C5-C6=108.86               H27-C5-C4=109.83               
H27-C5-C6=108.84               H27-C5-H26=108.04              C7-C6-C5=112.02                H28-C6-C5=109.37               
H28-C6-C7=109.26               H29-C6-C5=109.34               H29-C6-C7=109.23               H29-C6-H28=107.51              
C8-C7-C6=111.96                H30-C7-C6=109.30               H30-C7-C8=109.28               H31-C7-C6=109.32               
H31-C7-C8=109.30               H31-C7-H30=107.57              C9-C8-C7=111.85                H32-C8-C7=109.32               
H32-C8-C9=109.31               H33-C8-C7=109.35               H33-C8-C9=109.36               H33-C8-H32=107.55              
C10-C9-C8=111.44               H34-C9-C8=109.93               H34-C9-C10=108.76              H35-C9-C8=109.99               
H35-C9-C10=108.85              H35-C9-H34=107.78              O11-C10-C9=108.55              H36-C10-C9=111.26              
H36-C10-O11=109.00             H37-C10-C9=111.24              H37-C10-O11=108.96             H37-C10-H36=107.79             
 
 selected dihedral angles (degree)
 ---------------------------------
C3-C2-C1-H17= 57.90           C3-C2-C1-H18=298.34           C3-C2-C1-H19=178.55           C4-C2-C1-H17=292.19           
C4-C2-C1-H18=172.63           C4-C2-C1-H19= 52.84           H20-C2-C1-H17=175.31          H20-C2-C1-H18= 55.75          
H20-C2-C1-H19=295.95          H21-C3-C2-C1= 62.41           H21-C3-C2-C4=188.13           H21-C3-C2-H20=305.01          
H22-C3-C2-C1=302.87           H22-C3-C2-C4= 68.58           H22-C3-C2-H20=185.47          H23-C3-C2-C1=182.21           
H23-C3-C2-C4=307.92           H23-C3-C2-H20= 64.80          C5-C4-C2-C1= 62.71            C5-C4-C2-C3=297.95            
C5-C4-C2-H20=180.33           H24-C4-C2-C1=300.74           H24-C4-C2-C3=175.98           H24-C4-C2-H20= 58.36          
H25-C4-C2-C1=184.63           H25-C4-C2-C3= 59.86           H25-C4-C2-H20=302.25          C6-C5-C4-C2=179.78            
C6-C5-C4-H24=301.63           C6-C5-C4-H25= 57.98           H26-C5-C4-C2=300.45           H26-C5-C4-H24= 62.30          
H26-C5-C4-H25=178.65          H27-C5-C4-C2= 59.16           H27-C5-C4-H24=181.01          H27-C5-C4-H25=297.36          
C7-C6-C5-C4=180.13            C7-C6-C5-H26= 58.88           C7-C6-C5-H27=301.33           H28-C6-C5-C4= 58.84           
H28-C6-C5-H26=297.59          H28-C6-C5-H27=180.04          H29-C6-C5-C4=301.37           H29-C6-C5-H26=180.11          
H29-C6-C5-H27= 62.57          C8-C7-C6-C5=179.96            C8-C7-C6-H28=301.32           C8-C7-C6-H29= 58.67           
H30-C7-C6-C5= 58.73           H30-C7-C6-H28=180.09          H30-C7-C6-H29=297.43          H31-C7-C6-C5=301.23           
H31-C7-C6-H28= 62.58          H31-C7-C6-H29=179.93          C9-C8-C7-C6=180.39            C9-C8-C7-H30=301.64           
C9-C8-C7-H31= 59.11           H32-C8-C7-C6=301.60           H32-C8-C7-H30= 62.85          H32-C8-C7-H31=180.32          
H33-C8-C7-C6= 59.11           H33-C8-C7-H30=180.35          H33-C8-C7-H31=297.83          C10-C9-C8-C7=180.37           
C10-C9-C8-H32= 59.15          C10-C9-C8-H33=301.64          H34-C9-C8-C7= 59.70           H34-C9-C8-H32=298.49          
H34-C9-C8-H33=180.98          H35-C9-C8-C7=301.18           H35-C9-C8-H32=179.96          H35-C9-C8-H33= 62.46          
O11-C10-C9-C8=181.18          O11-C10-C9-H34=302.53         O11-C10-C9-H35= 59.70         H36-C10-C9-C8= 61.25          
H36-C10-C9-H34=182.60         H36-C10-C9-H35=299.78         H37-C10-C9-C8=301.06          H37-C10-C9-H34= 62.40         
H37-C10-C9-H35=179.58         
           -------------------------------------------------
          |                Final Singlepoint                |
           -------------------------------------------------

          ...................................................
          :                      SETUP                      :
          :.................................................:
          :  # basis functions                  90          :
          :  # atomic orbitals                  90          :
          :  # shells                           58          :
          :  # electrons                        94          :
          :  max. iterations                   250          :
          :  Hamiltonian                  GFN2-xTB          :
          :  restarted?                      false          :
          :  GBSA solvation                  false          :
          :  PC potential                    false          :
          :  electronic temp.          300.0000000     K    :
          :  accuracy                    1.0000000          :
          :  -> integral cutoff          0.2500000E+02      :
          :  -> integral neglect         0.1000000E-07      :
          :  -> SCF convergence          0.1000000E-05 Eh   :
          :  -> wf. convergence          0.1000000E-03 e    :
          :  Broyden damping             0.4000000          :
          :  net charge                          0          :
          :  unpaired electrons                  0          :
          ...................................................

 iter      E             dE          RMSdq      gap      omega  full diag
   1    -52.0799210 -0.520799E+02  0.208E-04    3.83       0.0  T
   2    -52.0799210 -0.406573E-10  0.136E-04    3.83     113.2  T
   3    -52.0799210  0.182688E-09  0.976E-05    3.83     158.1  T

   *** convergence criteria satisfied after 3 iterations ***

         #    Occupation            Energy/Eh            Energy/eV
      -------------------------------------------------------------
         1        2.0000           -0.7366770             -20.0460
       ...           ...                  ...                  ...
        41        2.0000           -0.4321158             -11.7585
        42        2.0000           -0.4268215             -11.6144
        43        2.0000           -0.4221142             -11.4863
        44        2.0000           -0.4187598             -11.3950
        45        2.0000           -0.4150393             -11.2938
        46        2.0000           -0.4142877             -11.2733
        47        2.0000           -0.4067832             -11.0691 (HOMO)
        48                         -0.2660140              -7.2386 (LUMO)
        49                         -0.1592143              -4.3324
        50                         -0.0052254              -0.1422
        51                          0.0511304               1.3913
        52                          0.0871026               2.3702
       ...                                ...                  ...
        90                          0.7017280              19.0950
      -------------------------------------------------------------
                  HL-Gap            0.1407692 Eh            3.8305 eV
             Fermi-level           -0.3363986 Eh           -9.1539 eV

 SCC (total)                   0 d,  0 h,  0 min,  0.010 sec
 SCC setup                      ...        0 min,  0.000 sec (  0.795%)
 Dispersion                     ...        0 min,  0.000 sec (  1.931%)
 classical contributions        ...        0 min,  0.000 sec (  0.391%)
 integral evaluation            ...        0 min,  0.001 sec (  8.582%)
 iterations                     ...        0 min,  0.005 sec ( 47.284%)
 molecular gradient             ...        0 min,  0.004 sec ( 39.565%)
 printout                       ...        0 min,  0.000 sec (  1.225%)

         :::::::::::::::::::::::::::::::::::::::::::::::::::::
         ::                     SUMMARY                     ::
         :::::::::::::::::::::::::::::::::::::::::::::::::::::
         :: total energy             -51.377468621142 Eh    ::
         :: gradient norm              0.000299781337 Eh/a0 ::
         :: HOMO-LUMO gap              3.830523725799 eV    ::
         ::.................................................::
         :: SCC energy               -52.080184719174 Eh    ::
         :: -> isotropic ES            0.050451707387 Eh    ::
         :: -> anisotropic ES          0.009358725932 Eh    ::
         :: -> anisotropic XC          0.022728284337 Eh    ::
         :: -> dispersion             -0.029601724793 Eh    ::
         :: repulsion energy           0.702716098031 Eh    ::
         :: add. restraining           0.000000000000 Eh    ::
         :: total charge              -0.000000000000 e     ::
         :::::::::::::::::::::::::::::::::::::::::::::::::::::

           -------------------------------------------------
          |                Property Printout                |
           -------------------------------------------------

    * Orbital Energies and Occupations

         #    Occupation            Energy/Eh            Energy/eV
      -------------------------------------------------------------
         1        2.0000           -0.7366770             -20.0460
       ...           ...                  ...                  ...
        35        2.0000           -0.4555223             -12.3954
        36        2.0000           -0.4525529             -12.3146
        37        2.0000           -0.4474213             -12.1750
        38        2.0000           -0.4433478             -12.0641
        39        2.0000           -0.4396968             -11.9648
        40        2.0000           -0.4372730             -11.8988
        41        2.0000           -0.4321158             -11.7585
        42        2.0000           -0.4268215             -11.6144
        43        2.0000           -0.4221142             -11.4863
        44        2.0000           -0.4187598             -11.3950
        45        2.0000           -0.4150393             -11.2938
        46        2.0000           -0.4142877             -11.2733
        47        2.0000           -0.4067832             -11.0691 (HOMO)
        48                         -0.2660140              -7.2386 (LUMO)
        49                         -0.1592143              -4.3324
        50                         -0.0052254              -0.1422
        51                          0.0511304               1.3913
        52                          0.0871026               2.3702
        53                          0.0919470               2.5020
        54                          0.0976413               2.6570
        55                          0.1057954               2.8788
        56                          0.1069016               2.9089
        57                          0.1112045               3.0260
        58                          0.1157625               3.1501
       ...                                ...                  ...
        90                          0.7017280              19.0950
      -------------------------------------------------------------
                  HL-Gap            0.1407692 Eh            3.8305 eV
             Fermi-level           -0.3363986 Eh           -9.1539 eV

     #   Z          covCN         q      C6AA      α(0)
     1   6 C        3.755    -0.106    22.579     6.775
     2   6 C        3.848    -0.010    20.717     6.474
     3   6 C        3.755    -0.106    22.579     6.775
     4   6 C        3.804    -0.062    21.690     6.630
     5   6 C        3.802    -0.059    21.636     6.622
     6   6 C        3.803    -0.059    21.642     6.623
     7   6 C        3.803    -0.059    21.639     6.623
     8   6 C        3.804    -0.062    21.686     6.630
     9   6 C        3.802    -0.066    21.773     6.643
    10   6 C        3.707     0.083    19.334     6.285
    11   8 O        1.704    -0.269    18.457     5.800
    12   6 C        2.730     0.350    21.058     7.513
    13   8 O        0.856    -0.417    22.020     6.291
    14   6 C        2.937    -0.008    28.209     8.711
    15   6 C        3.759    -0.110    22.659     6.786
    16   6 C        2.844    -0.083    30.058     8.985
    17   1 H        0.925     0.036     2.504     2.475
    18   1 H        0.925     0.033     2.548     2.496
    19   1 H        0.925     0.033     2.548     2.496
    20   1 H        0.924     0.025     2.653     2.547
    21   1 H        0.925     0.033     2.550     2.497
    22   1 H        0.925     0.036     2.504     2.475
    23   1 H        0.925     0.033     2.546     2.495
    24   1 H        0.924     0.029     2.604     2.524
    25   1 H        0.924     0.029     2.605     2.524
    26   1 H        0.924     0.033     2.542     2.493
    27   1 H        0.924     0.033     2.539     2.492
    28   1 H        0.924     0.030     2.585     2.514
    29   1 H        0.924     0.030     2.585     2.514
    30   1 H        0.924     0.033     2.545     2.495
    31   1 H        0.924     0.033     2.546     2.495
    32   1 H        0.924     0.035     2.510     2.477
    33   1 H        0.924     0.035     2.511     2.478
    34   1 H        0.924     0.050     2.326     2.385
    35   1 H        0.924     0.050     2.326     2.385
    36   1 H        0.924     0.049     2.337     2.391
    37   1 H        0.924     0.049     2.333     2.388
    38   1 H        0.925     0.050     2.319     2.381
    39   1 H        0.925     0.068     2.109     2.271
    40   1 H        0.925     0.062     2.170     2.304
    41   1 H        0.926     0.062     2.178     2.308
    42   1 H        0.926     0.055     2.261     2.352

 Mol. C6AA /au·bohr⁶  :      13450.773819
 Mol. C8AA /au·bohr⁸  :     290120.654121
 Mol. α(0) /au        :        173.821241


Wiberg/Mayer (AO) data.
largest (>0.10) Wiberg bond orders for each atom

 ---------------------------------------------------------------------------
     #   Z sym  total        # sym  WBO       # sym  WBO       # sym  WBO
 ---------------------------------------------------------------------------
     1   6 C    3.997 --     2 C    1.009    18 H    0.987    19 H    0.987
                            17 H    0.985
     2   6 C    3.996 --     1 C    1.009     3 C    1.009     4 C    0.995
                            20 H    0.969
     3   6 C    3.997 --     2 C    1.009    21 H    0.987    23 H    0.987
                            22 H    0.985
     4   6 C    3.997 --     5 C    1.008     2 C    0.995    24 H    0.977
                            25 H    0.977
     5   6 C    3.997 --     4 C    1.008     6 C    1.006    26 H    0.975
                            27 H    0.975
     6   6 C    3.997 --     7 C    1.007     5 C    1.006    28 H    0.977
                            29 H    0.977
     7   6 C    3.996 --     8 C    1.007     6 C    1.007    31 H    0.977
                            30 H    0.977
     8   6 C    3.995 --     7 C    1.007     9 C    1.005    33 H    0.977
                            32 H    0.977
     9   6 C    3.992 --     8 C    1.005    10 C    1.005    35 H    0.976
                            34 H    0.975
    10   6 C    3.927 --     9 C    1.005    36 H    0.967    37 H    0.967
                            11 O    0.940
    11   8 O    2.302 --    12 C    1.124    10 C    0.940    13 O    0.171
    12   6 C    3.917 --    13 O    1.726    11 O    1.124    14 C    0.992
    13   8 O    2.028 --    12 C    1.726    11 O    0.171
    14   6 C    3.986 --    16 C    1.879    15 C    1.030    12 C    0.992
    15   6 C    3.994 --    14 C    1.030    38 H    0.985    39 H    0.968
                            40 H    0.966
    16   6 C    3.989 --    14 C    1.879    42 H    0.974    41 H    0.973
    17   1 H    0.999 --     1 C    0.985
    18   1 H    0.999 --     1 C    0.987
    19   1 H    0.999 --     1 C    0.987
    20   1 H    0.999 --     2 C    0.969
    21   1 H    0.999 --     3 C    0.987
    22   1 H    0.999 --     3 C    0.985
    23   1 H    0.999 --     3 C    0.987
    24   1 H    0.999 --     4 C    0.977
    25   1 H    0.999 --     4 C    0.977
    26   1 H    0.999 --     5 C    0.975
    27   1 H    0.999 --     5 C    0.975
    28   1 H    0.999 --     6 C    0.977
    29   1 H    0.999 --     6 C    0.977
    30   1 H    0.999 --     7 C    0.977
    31   1 H    0.999 --     7 C    0.977
    32   1 H    0.999 --     8 C    0.977
    33   1 H    0.999 --     8 C    0.977
    34   1 H    0.998 --     9 C    0.975
    35   1 H    0.998 --     9 C    0.976
    36   1 H    0.998 --    10 C    0.967
    37   1 H    0.998 --    10 C    0.967
    38   1 H    0.997 --    15 C    0.985
    39   1 H    0.995 --    15 C    0.968
    40   1 H    0.996 --    15 C    0.966
    41   1 H    0.996 --    16 C    0.973
    42   1 H    0.997 --    16 C    0.974
 ---------------------------------------------------------------------------

Topologies differ in total number of bonds
Writing topology from bond orders to xtbtopo.mol

molecular dipole:
                 x           y           z       tot (Debye)
 q only:       -0.478       0.610      -0.469
   full:       -0.453       0.627      -0.495       2.335
molecular quadrupole (traceless):
                xx          xy          yy          xz          yz          zz
 q only:        1.826      10.416      -2.302      -9.613       0.862       0.475
  q+dip:       -1.841      11.879      -0.564     -10.146       2.072       2.405
   full:       -0.852      11.840      -1.293     -10.180       2.726       2.145

           -------------------------------------------------
          |                Geometry Summary                 |
           -------------------------------------------------

      molecular mass/u    :      226.3555719
   center of mass at/Å    :        0.8543337      -0.1146255       0.0232189
  moments of inertia/u·Å² :        0.2396647E+03   0.5297331E+04   0.5404202E+04
rotational constants/cm⁻¹ :        0.7033840E-01   0.3182288E-02   0.3119356E-02

 * 39 selected distances

     #   Z          #   Z                                           value/Å
     1   6 C        2   6 C                                       1.5272129
     2   6 C        3   6 C                                       1.5273138
     2   6 C        4   6 C                                       1.5355773 (max)
     4   6 C        5   6 C                                       1.5274211
     5   6 C        6   6 C                                       1.5272367
     6   6 C        7   6 C                                       1.5268288
     7   6 C        8   6 C                                       1.5268744
     8   6 C        9   6 C                                       1.5260243
     9   6 C       10   6 C                                       1.5211127
    10   6 C       11   8 O                                       1.4262521
    11   8 O       12   6 C                                       1.3385480
    12   6 C       13   8 O                                       1.2078008
    14   6 C       16   6 C                                       1.3284188
     1   6 C       17   1 H                                       1.0870061
     1   6 C       18   1 H                                       1.0878254
     1   6 C       19   1 H                                       1.0877245
     2   6 C       20   1 H                                       1.0972168
     3   6 C       21   1 H                                       1.0878606
     3   6 C       22   1 H                                       1.0870443
     3   6 C       23   1 H                                       1.0876985
     4   6 C       24   1 H                                       1.0932254
     4   6 C       25   1 H                                       1.0932440
     5   6 C       26   1 H                                       1.0909604
     5   6 C       27   1 H                                       1.0909304
     6   6 C       28   1 H                                       1.0925884
     6   6 C       29   1 H                                       1.0925864
     7   6 C       30   1 H                                       1.0924047
     7   6 C       31   1 H                                       1.0923743
     8   6 C       32   1 H                                       1.0922394
     8   6 C       33   1 H                                       1.0921955
     9   6 C       34   1 H                                       1.0914979
     9   6 C       35   1 H                                       1.0914724
    10   6 C       36   1 H                                       1.0963079
    10   6 C       37   1 H                                       1.0963464
    15   6 C       38   1 H                                       1.0860669
    15   6 C       39   1 H                                       1.0883013
    15   6 C       40   1 H                                       1.0891277
    16   6 C       41   1 H                                       1.0755409 (min)
    16   6 C       42   1 H                                       1.0773713

 * 3 distinct bonds (by element types)

   Z      Z             #   av. dist./Å        max./Å        min./Å
   1 H    6 C          26     1.0898907     1.0972168     1.0755409
   6 C    6 C          10     1.5074021     1.5355773     1.3284188
   6 C    8 O           3     1.3242003     1.4262521     1.2078008


optimized geometry written to: xtbopt.xyz


           -------------------------------------------------
          | TOTAL ENERGY              -51.377468621142 Eh   |
          | GRADIENT NORM               0.000299781337 Eh/α |
          | HOMO-LUMO GAP               3.830523725799 eV   |
           -------------------------------------------------

------------------------------------------------------------------------
 * finished run on 2025/12/01 at 14:22:08.370     
------------------------------------------------------------------------
 total:
 * wall-time:     0 d,  0 h,  0 min,  0.638 sec
 *  cpu-time:     0 d,  0 h,  0 min, 14.499 sec
 * ratio c/w:    22.740 speedup
 SCF:
 * wall-time:     0 d,  0 h,  0 min,  0.034 sec
 *  cpu-time:     0 d,  0 h,  0 min,  0.734 sec
 * ratio c/w:    21.791 speedup
 ANC optimizer:
 * wall-time:     0 d,  0 h,  0 min,  0.595 sec
 *  cpu-time:     0 d,  0 h,  0 min, 13.595 sec
 * ratio c/w:    22.853 speedup

normal termination of xtb
