      -----------------------------------------------------------      
     |                   =====================                   |     
     |                           x T B                           |     
     |                   =====================                   |     
     |                         S. Grimme                         |     
     |          Mulliken Center for Theoretical Chemistry        |     
     |                    University of Bonn                     |     
      -----------------------------------------------------------      

   * xtb version 6.7.1 (edcfbbe) compiled by 'albert@albert-system' on 2024-07-22

   xtb is free software: you can redistribute it and/or modify it under
   the terms of the GNU Lesser General Public License as published by
   the Free Software Foundation, either version 3 of the License, or
   (at your option) any later version.
   
   xtb is distributed in the hope that it will be useful,
   but WITHOUT ANY WARRANTY; without even the implied warranty of
   MERCHANTABILITY or FITNESS FOR A PARTICULAR PURPOSE.  See the
   GNU Lesser General Public License for more details.
   
   Cite this work as:
   * C. Bannwarth, E. Caldeweyher, S. Ehlert, A. Hansen, P. Pracht,
     J. Seibert, S. Spicher, S. Grimme, WIREs Comput. Mol. Sci., 2020, 11,
     e01493. DOI: 10.1002/wcms.1493
   
   for GFN2-xTB:
   * C. Bannwarth, S. Ehlert and S. Grimme., J. Chem. Theory Comput., 2019,
     15, 1652-1671. DOI: 10.1021/acs.jctc.8b01176
   for GFN1-xTB:
   * S. Grimme, C. Bannwarth, P. Shushkov, J. Chem. Theory Comput., 2017,
     13, 1989-2009. DOI: 10.1021/acs.jctc.7b00118
   for GFN0-xTB:
   * P. Pracht, E. Caldeweyher, S. Ehlert, S. Grimme, ChemRxiv, 2019, preprint.
     DOI: 10.26434/chemrxiv.8326202.v1
   for GFN-FF:
   * S. Spicher and S. Grimme, Angew. Chem. Int. Ed., 2020, 59, 15665-15673.
     DOI: 10.1002/anie.202004239
   
   for ALPB and GBSA implicit solvation:
   * S. Ehlert, M. Stahn, S. Spicher, S. Grimme, J. Chem. Theory Comput.,
     2021, 17, 4250-4261. DOI: 10.1021/acs.jctc.1c00471
   
   for ddCOSMO and CPCM-X implicit solvation:
   * M. Stahn, S. Ehlert, S. Grimme, J. Phys. Chem. A,
     2023, XX, XXXX-XXXX. DOI: 10.1021/acs.jpca.3c04382
   
   for DFT-D4:
   * E. Caldeweyher, C. Bannwarth and S. Grimme, J. Chem. Phys., 2017,
     147, 034112. DOI: 10.1063/1.4993215
   * E. Caldeweyher, S. Ehlert, A. Hansen, H. Neugebauer, S. Spicher,
     C. Bannwarth and S. Grimme, J. Chem. Phys., 2019, 150, 154122.
     DOI: 10.1063/1.5090222
   * E. Caldeweyher, J.-M. Mewes, S. Ehlert and S. Grimme, Phys. Chem. Chem. Phys.
     2020, 22, 8499-8512. DOI: 10.1039/D0CP00502A
   
   for sTDA-xTB:
   * S. Grimme and C. Bannwarth, J. Chem. Phys., 2016, 145, 054103.
     DOI: 10.1063/1.4959605
   
   in the mass-spec context:
   * V. Asgeirsson, C. Bauer and S. Grimme, Chem. Sci., 2017, 8, 4879.
     DOI: 10.1039/c7sc00601b
   * J. Koopman and S. Grimme, ACS Omega 2019, 4, 12, 15120-15133.
     DOI: 10.1021/acsomega.9b02011
   
   for metadynamics refer to:
   * S. Grimme, J. Chem. Theory Comput., 2019, 155, 2847-2862
     DOI: 10.1021/acs.jctc.9b00143
   
   for SPH calculations refer to:
   * S. Spicher and S. Grimme, J. Chem. Theory Comput., 2021, 17, 1701-1714
     DOI: 10.1021/acs.jctc.0c01306
   
   for ONIOM refer to:
   * C. Plett, A. Katbashev, S. Ehlert, S. Grimme, M. Bursch,
     Phys. Chem. Chem. Phys., 2023, 25, 17860-17868. DOI: 10.1039/D3CP02178E
   
   for DIPRO refer to:
   * J. Kohn, N. Gildemeister, S. Grimme, D. Fazzi, A. Hansen,
     J. Chem. Phys., 2023, just accepted.
   
   for PTB refer to:
   * S. Grimme, M. Mueller, A. Hansen, J. Chem. Phys., 2023, 158, 124111.
     DOI: 10.1063/5.0137838
   
   with help from (in alphabetical order)
   P. Atkinson, C. Bannwarth, F. Bohle, G. Brandenburg, E. Caldeweyher
   M. Checinski, S. Dohm, S. Ehlert, S. Ehrlich, I. Gerasimov, C. Hölzer
   A. Katbashev, J. Kohn, J. Koopman, C. Lavigne, S. Lehtola, F. März, M. Müller,
   F. Musil, H. Neugebauer, J. Pisarek, C. Plett, P. Pracht, F. Pultar,
   J. Seibert, P. Shushkov, S. Spicher, M. Stahn, M. Steiner, T. Strunk,
   J. Stückrath, T. Rose, and J. Unsleber
   
 * started run on 2025/12/01 at 14:22:06.809     
   ID    Z sym.   atoms
    1    6 C      1-10, 12, 14-16
    2    8 O      11, 13
    3    1 H      17-42

           -------------------------------------------------
          |                Calculation Setup                |
           -------------------------------------------------

          program call               : xtb pipeline_data/3_conformer_xyz/acrylates/rdkit/COCLLEMEIJQBAG-UHFFFAOYSA-N_conf192.xyz --opt --gfn 2-xTB --iterations 250
          coordinate file            : pipeline_data/3_conformer_xyz/acrylates/rdkit/COCLLEMEIJQBAG-UHFFFAOYSA-N_conf192.xyz
          omp threads                :                    24

########################################################################
[WARNING] Please study the warnings concerning your input carefully
-1- readin_getIntValue: could not parse '2-xTB'
########################################################################

           -------------------------------------------------
          |                 G F N 2 - x T B                 |
           -------------------------------------------------

        Reference                      10.1021/acs.jctc.8b01176
      * Hamiltonian:
        H0-scaling (s, p, d)           1.850000    2.230000    2.230000
        zeta-weighting                 0.500000
      * Dispersion:
        s8                             2.700000
        a1                             0.520000
        a2                             5.000000
        s9                             5.000000
      * Repulsion:
        kExp                           1.500000    1.000000
        rExp                           1.000000
      * Coulomb:
        alpha                          2.000000
        third order                    shell-resolved
        anisotropic                    true
        a3                             3.000000
        a5                             4.000000
        cn-shift                       1.200000
        cn-exp                         4.000000
        max-rad                        5.000000

q/qsh data taken from xtbrestart
CAMM data taken from xtbrestart

          ...................................................
          :                      SETUP                      :
          :.................................................:
          :  # basis functions                  90          :
          :  # atomic orbitals                  90          :
          :  # shells                           58          :
          :  # electrons                        94          :
          :  max. iterations                   250          :
          :  Hamiltonian                  GFN2-xTB          :
          :  restarted?                       true          :
          :  GBSA solvation                  false          :
          :  PC potential                    false          :
          :  electronic temp.          300.0000000     K    :
          :  accuracy                    1.0000000          :
          :  -> integral cutoff          0.2500000E+02      :
          :  -> integral neglect         0.1000000E-07      :
          :  -> SCF convergence          0.1000000E-05 Eh   :
          :  -> wf. convergence          0.1000000E-03 e    :
          :  Broyden damping             0.4000000          :
          :  net charge                          0          :
          :  unpaired electrons                  0          :
          ...................................................

 iter      E             dE          RMSdq      gap      omega  full diag
   1    -51.9964194 -0.519964E+02  0.320E+00    3.51       0.0  T
   2    -52.0037804 -0.736098E-02  0.190E+00    3.47       1.0  T
   3    -51.9999441  0.383627E-02  0.457E-01    3.43       1.0  T
   4    -52.0062072 -0.626304E-02  0.183E-01    3.47       1.0  T
   5    -52.0066492 -0.442047E-03  0.836E-02    3.45       1.0  T
   6    -52.0066628 -0.135716E-04  0.212E-02    3.45       1.0  T
   7    -52.0066678 -0.505223E-05  0.991E-03    3.44       1.6  T
   8    -52.0066683 -0.430911E-06  0.448E-03    3.45       3.4  T
   9    -52.0066685 -0.231420E-06  0.151E-03    3.44      10.2  T
  10    -52.0066685 -0.100805E-07  0.577E-04    3.44      26.7  T
  11    -52.0066685 -0.142455E-08  0.137E-04    3.44     113.0  T

   *** convergence criteria satisfied after 11 iterations ***

         #    Occupation            Energy/Eh            Energy/eV
      -------------------------------------------------------------
         1        2.0000           -0.7245785             -19.7168
       ...           ...                  ...                  ...
        41        2.0000           -0.4254504             -11.5771
        42        2.0000           -0.4230429             -11.5116
        43        2.0000           -0.4212063             -11.4616
        44        2.0000           -0.4176395             -11.3645
        45        2.0000           -0.4171149             -11.3503
        46        2.0000           -0.4094449             -11.1416
        47        2.0000           -0.4067790             -11.0690 (HOMO)
        48                         -0.2802105              -7.6249 (LUMO)
        49                         -0.1657604              -4.5106
        50                         -0.0266199              -0.7244
        51                          0.0679134               1.8480
        52                          0.0697509               1.8980
       ...                                ...                  ...
        90                          0.6716047              18.2753
      -------------------------------------------------------------
                  HL-Gap            0.1265685 Eh            3.4441 eV
             Fermi-level           -0.3434947 Eh           -9.3470 eV

 SCC (total)                   0 d,  0 h,  0 min,  0.052 sec
 SCC setup                      ...        0 min,  0.000 sec (  0.470%)
 Dispersion                     ...        0 min,  0.000 sec (  0.905%)
 classical contributions        ...        0 min,  0.000 sec (  0.115%)
 integral evaluation            ...        0 min,  0.002 sec (  2.955%)
 iterations                     ...        0 min,  0.045 sec ( 86.992%)
 molecular gradient             ...        0 min,  0.004 sec (  7.992%)
 printout                       ...        0 min,  0.000 sec (  0.512%)

         :::::::::::::::::::::::::::::::::::::::::::::::::::::
         ::                     SUMMARY                     ::
         :::::::::::::::::::::::::::::::::::::::::::::::::::::
         :: total energy             -51.344452823418 Eh    ::
         :: gradient norm              0.158490928096 Eh/a0 ::
         :: HOMO-LUMO gap              3.444103842916 eV    ::
         ::.................................................::
         :: SCC energy               -52.006617726692 Eh    ::
         :: -> isotropic ES            0.052924864879 Eh    ::
         :: -> anisotropic ES          0.009456209432 Eh    ::
         :: -> anisotropic XC          0.024572355024 Eh    ::
         :: -> dispersion             -0.031072597030 Eh    ::
         :: repulsion energy           0.662164903274 Eh    ::
         :: add. restraining           0.000000000000 Eh    ::
         :: total charge               0.000000000000 e     ::
         :::::::::::::::::::::::::::::::::::::::::::::::::::::

      ----------------------------------------------------------- 
     |                   =====================                   |
     |                        A N C O P T                        |
     |                   =====================                   |
     |               Approximate Normal Coordinate               |
     |                Rational Function Optimizer                |
      ----------------------------------------------------------- 
      ----------------------------------------------------------- 
     |                   =====================                   |
     |                        A N C O P T                        |
     |                   =====================                   |
     |               Approximate Normal Coordinate               |
     |                Rational Function Optimizer                |
      ----------------------------------------------------------- 

          ...................................................
          :                      SETUP                      :
          :.................................................:
          :   optimization level            normal          :
          :   max. optcycles                   200          :
          :   ANC micro-cycles                  20          :
          :   degrees of freedom               120          :
          :.................................................:
          :   RF solver                   davidson          :
          :   write xtbopt.log                true          :
          :   linear?                        false          :
          :   energy convergence         0.5000000E-05 Eh   :
          :   grad. convergence          0.1000000E-02 Eh/α :
          :   maxmium RF displ.          1.0000000          :
          :   Hlow (freq-cutoff)         0.1000000E-01      :
          :   Hmax (freq-cutoff)         5.0000000          :
          :   S6 in model hess.         20.0000000          :
          ...................................................

generating ANC from exact Hessian ...
Using Lindh-Hessian (1995)
 Shifting diagonal of input Hessian by   9.885235297388842E-003
 Lowest  eigenvalues of input Hessian
    0.000000    0.000000    0.000000    0.000000    0.000000    0.000000
    0.010000    0.010236    0.010397    0.010501    0.010697    0.012142
    0.012460    0.012995    0.013783    0.014737    0.015561    0.017974
 Highest eigenvalues
    1.307112    1.365715    1.531242    1.853848    1.911909    2.165306
 

........................................................................
.............................. CYCLE    1 ..............................
........................................................................

 iter      E             dE          RMSdq      gap      omega  full diag
   1    -52.0066685 -0.520067E+02  0.495E-05    3.44       0.0  T
   2    -52.0066685 -0.723333E-11  0.297E-05    3.44     519.9  T
   3    -52.0066685 -0.639488E-13  0.121E-05    3.44    1280.4  T
     SCC iter.                  ...        0 min,  0.006 sec
     gradient                   ...        0 min,  0.004 sec
 * total energy  :   -51.3444528 Eh     change       -0.6328094E-10 Eh
   gradient norm :     0.1584904 Eh/α   predicted     0.0000000E+00 (-100.00%)
   displ. norm   :     0.4179332 α      lambda       -0.3274177E-01
   maximum displ.:     0.1305118 α      in ANC's #20, #24, #41, ...

........................................................................
.............................. CYCLE    2 ..............................
........................................................................

 iter      E             dE          RMSdq      gap      omega  full diag
   1    -52.0585240 -0.520585E+02  0.303E-01    3.64       0.0  T
   2    -52.0588425 -0.318525E-03  0.183E-01    3.69       1.0  T
   3    -52.0588312  0.112927E-04  0.516E-02    3.69       1.0  T
   4    -52.0588606 -0.293531E-04  0.114E-02    3.68       1.4  T
   5    -52.0588632 -0.264495E-05  0.562E-03    3.69       2.7  T
   6    -52.0588634 -0.164287E-06  0.339E-03    3.69       4.6  T
   7    -52.0588636 -0.258013E-06  0.903E-04    3.69      17.1  T
   8    -52.0588636 -0.109325E-07  0.305E-04    3.69      50.6  T
     SCC iter.                  ...        0 min,  0.015 sec
     gradient                   ...        0 min,  0.004 sec
 * total energy  :   -51.3667457 Eh     change       -0.2229292E-01 Eh
   gradient norm :     0.0620230 Eh/α   predicted    -0.1925549E-01 ( -13.63%)
   displ. norm   :     0.4111455 α      lambda       -0.9595075E-02
   maximum displ.:     0.1375329 α      in ANC's #20, #9, #22, ...

........................................................................
.............................. CYCLE    3 ..............................
........................................................................

 iter      E             dE          RMSdq      gap      omega  full diag
   1    -52.0808812 -0.520809E+02  0.163E-01    3.78       0.0  T
   2    -52.0810095 -0.128375E-03  0.988E-02    3.81       1.0  T
   3    -52.0810036  0.591111E-05  0.374E-02    3.82       1.0  T
   4    -52.0810155 -0.118894E-04  0.123E-02    3.81       1.3  T
   5    -52.0810191 -0.359342E-05  0.566E-03    3.82       2.7  T
   6    -52.0810200 -0.917559E-06  0.208E-03    3.82       7.4  T
   7    -52.0810201 -0.472983E-07  0.541E-04    3.81      28.5  T
   8    -52.0810201 -0.123852E-08  0.222E-04    3.81      69.5  T
     SCC iter.                  ...        0 min,  0.014 sec
     gradient                   ...        0 min,  0.004 sec
 * total energy  :   -51.3727617 Eh     change       -0.6015962E-02 Eh
   gradient norm :     0.0182960 Eh/α   predicted    -0.5608518E-02 (  -6.77%)
   displ. norm   :     0.3499794 α      lambda       -0.2394611E-02
   maximum displ.:     0.1515612 α      in ANC's #9, #11, #7, ...

........................................................................
.............................. CYCLE    4 ..............................
........................................................................

 iter      E             dE          RMSdq      gap      omega  full diag
   1    -52.0791422 -0.520791E+02  0.853E-02    3.83       0.0  T
   2    -52.0791682 -0.259651E-04  0.515E-02    3.82       1.0  T
   3    -52.0791633  0.482846E-05  0.209E-02    3.84       1.0  T
   4    -52.0791674 -0.403357E-05  0.942E-03    3.83       1.6  T
   5    -52.0791704 -0.306422E-05  0.206E-03    3.83       7.5  T
   6    -52.0791705 -0.113364E-06  0.785E-04    3.83      19.7  T
   7    -52.0791706 -0.266515E-08  0.211E-04    3.83      73.0  T
     SCC iter.                  ...        0 min,  0.013 sec
     gradient                   ...        0 min,  0.004 sec
 * total energy  :   -51.3744369 Eh     change       -0.1675221E-02 Eh
   gradient norm :     0.0102047 Eh/α   predicted    -0.1343960E-02 ( -19.77%)
   displ. norm   :     0.3342766 α      lambda       -0.1109061E-02
   maximum displ.:     0.1628058 α      in ANC's #9, #7, #12, ...

........................................................................
.............................. CYCLE    5 ..............................
........................................................................

 iter      E             dE          RMSdq      gap      omega  full diag
   1    -52.0758017 -0.520758E+02  0.612E-02    3.84       0.0  T
   2    -52.0758152 -0.134707E-04  0.364E-02    3.83       1.0  T
   3    -52.0758150  0.215041E-06  0.116E-02    3.84       1.3  T
   4    -52.0758158 -0.836589E-06  0.207E-03    3.83       7.5  T
   5    -52.0758159 -0.103868E-06  0.752E-04    3.83      20.5  T
   6    -52.0758159  0.570168E-09  0.434E-04    3.83      35.6  T
     SCC iter.                  ...        0 min,  0.011 sec
     gradient                   ...        0 min,  0.004 sec
 * total energy  :   -51.3751958 Eh     change       -0.7589083E-03 Eh
   gradient norm :     0.0072590 Eh/α   predicted    -0.6165159E-03 ( -18.76%)
   displ. norm   :     0.2760056 α      lambda       -0.5352036E-03
   maximum displ.:     0.1306513 α      in ANC's #9, #7, #12, ...

........................................................................
.............................. CYCLE    6 ..............................
........................................................................

 iter      E             dE          RMSdq      gap      omega  full diag
   1    -52.0743976 -0.520744E+02  0.449E-02    3.84       0.0  T
   2    -52.0743991 -0.149193E-05  0.267E-02    3.83       1.0  T
   3    -52.0743959  0.325819E-05  0.103E-02    3.83       1.5  T
   4    -52.0743995 -0.358845E-05  0.238E-03    3.83       6.5  T
   5    -52.0743996 -0.167241E-06  0.696E-04    3.83      22.2  T
   6    -52.0743996 -0.103017E-08  0.320E-04    3.83      48.2  T
     SCC iter.                  ...        0 min,  0.011 sec
     gradient                   ...        0 min,  0.007 sec
 * total energy  :   -51.3755865 Eh     change       -0.3907095E-03 Eh
   gradient norm :     0.0071139 Eh/α   predicted    -0.2880015E-03 ( -26.29%)
   displ. norm   :     0.2909782 α      lambda       -0.4432181E-03
   maximum displ.:     0.1274920 α      in ANC's #12, #9, #7, ...

........................................................................
.............................. CYCLE    7 ..............................
........................................................................

 iter      E             dE          RMSdq      gap      omega  full diag
   1    -52.0741707 -0.520742E+02  0.538E-02    3.83       0.0  T
   2    -52.0741716 -0.926527E-06  0.321E-02    3.83       1.0  T
   3    -52.0741653  0.637974E-05  0.142E-02    3.83       1.1  T
   4    -52.0741724 -0.716926E-05  0.165E-03    3.83       9.4  T
   5    -52.0741725 -0.389802E-07  0.842E-04    3.83      18.3  T
   6    -52.0741725 -0.353580E-08  0.331E-04    3.83      46.6  T
     SCC iter.                  ...        0 min,  0.011 sec
     gradient                   ...        0 min,  0.004 sec
 * total energy  :   -51.3759092 Eh     change       -0.3226347E-03 Eh
   gradient norm :     0.0068380 Eh/α   predicted    -0.2403766E-03 ( -25.50%)
   displ. norm   :     0.2827638 α      lambda       -0.3532017E-03
   maximum displ.:     0.1269982 α      in ANC's #12, #8, #14, ...

........................................................................
.............................. CYCLE    8 ..............................
........................................................................

 iter      E             dE          RMSdq      gap      omega  full diag
   1    -52.0750857 -0.520751E+02  0.548E-02    3.83       0.0  T
   2    -52.0750890 -0.333020E-05  0.326E-02    3.84       1.0  T
   3    -52.0750847  0.436756E-05  0.131E-02    3.83       1.2  T
   4    -52.0750894 -0.475035E-05  0.353E-03    3.83       4.4  T
   5    -52.0750898 -0.423501E-06  0.940E-04    3.83      16.4  T
   6    -52.0750899 -0.897872E-08  0.460E-04    3.83      33.6  T
     SCC iter.                  ...        0 min,  0.018 sec
     gradient                   ...        0 min,  0.004 sec
 * total energy  :   -51.3761627 Eh     change       -0.2535374E-03 Eh
   gradient norm :     0.0053834 Eh/α   predicted    -0.1907242E-03 ( -24.77%)
   displ. norm   :     0.2593006 α      lambda       -0.2600836E-03
   maximum displ.:     0.1289634 α      in ANC's #8, #12, #14, ...

........................................................................
.............................. CYCLE    9 ..............................
........................................................................

 iter      E             dE          RMSdq      gap      omega  full diag
   1    -52.0763324 -0.520763E+02  0.567E-02    3.83       0.0  T
   2    -52.0763336 -0.122808E-05  0.336E-02    3.84       1.0  T
   3    -52.0763325  0.115820E-05  0.678E-03    3.83       2.3  T
   4    -52.0763338 -0.131028E-05  0.230E-03    3.84       6.7  T
   5    -52.0763339 -0.152951E-06  0.912E-04    3.84      16.9  T
   6    -52.0763339 -0.509654E-08  0.364E-04    3.84      42.3  T
     SCC iter.                  ...        0 min,  0.020 sec
     gradient                   ...        0 min,  0.007 sec
 * total energy  :   -51.3763397 Eh     change       -0.1770212E-03 Eh
   gradient norm :     0.0039849 Eh/α   predicted    -0.1387886E-03 ( -21.60%)
   displ. norm   :     0.1942086 α      lambda       -0.1464791E-03
   maximum displ.:     0.1083503 α      in ANC's #8, #12, #14, ...

........................................................................
.............................. CYCLE   10 ..............................
........................................................................

 iter      E             dE          RMSdq      gap      omega  full diag
   1    -52.0778260 -0.520778E+02  0.391E-02    3.84       0.0  T
   2    -52.0778270 -0.940396E-06  0.231E-02    3.84       1.0  T
   3    -52.0778270 -0.734349E-07  0.214E-03    3.84       7.2  T
   4    -52.0778271 -0.408051E-07  0.817E-04    3.84      18.9  T
   5    -52.0778271 -0.134732E-08  0.366E-04    3.84      42.1  T
     SCC iter.                  ...        0 min,  0.017 sec
     gradient                   ...        0 min,  0.005 sec
 * total energy  :   -51.3764340 Eh     change       -0.9431113E-04 Eh
   gradient norm :     0.0029043 Eh/α   predicted    -0.7600812E-04 ( -19.41%)
   displ. norm   :     0.1299294 α      lambda       -0.7060161E-04
   maximum displ.:     0.0754202 α      in ANC's #8, #12, #14, ...

........................................................................
.............................. CYCLE   11 ..............................
........................................................................

 iter      E             dE          RMSdq      gap      omega  full diag
   1    -52.0784572 -0.520785E+02  0.284E-02    3.84       0.0  T
   2    -52.0784577 -0.507344E-06  0.169E-02    3.84       1.0  T
   3    -52.0784575  0.170869E-06  0.305E-03    3.84       5.1  T
   4    -52.0784577 -0.221888E-06  0.117E-03    3.84      13.1  T
   5    -52.0784578 -0.349235E-07  0.542E-04    3.84      28.5  T
   6    -52.0784578 -0.371400E-08  0.249E-04    3.84      61.9  T
     SCC iter.                  ...        0 min,  0.019 sec
     gradient                   ...        0 min,  0.003 sec
 * total energy  :   -51.3764825 Eh     change       -0.4845581E-04 Eh
   gradient norm :     0.0021172 Eh/α   predicted    -0.3590651E-04 ( -25.90%)
   displ. norm   :     0.1195053 α      lambda       -0.5255183E-04
   maximum displ.:     0.0617753 α      in ANC's #8, #7, #5, ...

........................................................................
.............................. CYCLE   12 ..............................
........................................................................

 iter      E             dE          RMSdq      gap      omega  full diag
   1    -52.0789592 -0.520790E+02  0.266E-02    3.84       0.0  T
   2    -52.0789597 -0.493132E-06  0.158E-02    3.84       1.0  T
   3    -52.0789596  0.125929E-06  0.284E-03    3.84       5.4  T
   4    -52.0789598 -0.193000E-06  0.821E-04    3.84      18.8  T
   5    -52.0789598 -0.121833E-07  0.506E-04    3.84      30.5  T
     SCC iter.                  ...        0 min,  0.008 sec
     gradient                   ...        0 min,  0.003 sec
 * total energy  :   -51.3765215 Eh     change       -0.3899489E-04 Eh
   gradient norm :     0.0021898 Eh/α   predicted    -0.2665215E-04 ( -31.65%)
   displ. norm   :     0.1665002 α      lambda       -0.6115750E-04
   maximum displ.:     0.0764228 α      in ANC's #8, #5, #7, ...

........................................................................
.............................. CYCLE   13 ..............................
........................................................................

 iter      E             dE          RMSdq      gap      omega  full diag
   1    -52.0780641 -0.520781E+02  0.374E-02    3.85       0.0  T
   2    -52.0780646 -0.569513E-06  0.222E-02    3.84       1.0  T
   3    -52.0780643  0.335258E-06  0.361E-03    3.85       4.3  T
   4    -52.0780647 -0.400270E-06  0.157E-03    3.84       9.8  T
   5    -52.0780648 -0.693456E-07  0.594E-04    3.84      26.0  T
   6    -52.0780648 -0.168084E-08  0.286E-04    3.84      53.9  T
     SCC iter.                  ...        0 min,  0.010 sec
     gradient                   ...        0 min,  0.003 sec
 * total energy  :   -51.3765651 Eh     change       -0.4364465E-04 Eh
   gradient norm :     0.0026142 Eh/α   predicted    -0.3142962E-04 ( -27.99%)
   displ. norm   :     0.2284512 α      lambda       -0.9044066E-04
   maximum displ.:     0.1118844 α      in ANC's #7, #5, #16, ...

........................................................................
.............................. CYCLE   14 ..............................
........................................................................

 iter      E             dE          RMSdq      gap      omega  full diag
   1    -52.0793683 -0.520794E+02  0.528E-02    3.85       0.0  T
   2    -52.0793695 -0.114712E-05  0.311E-02    3.85       1.0  T
   3    -52.0793686  0.849546E-06  0.554E-03    3.85       2.8  T
   4    -52.0793696 -0.949988E-06  0.233E-03    3.85       6.6  T
   5    -52.0793697 -0.160038E-06  0.776E-04    3.85      19.9  T
   6    -52.0793697 -0.158624E-08  0.379E-04    3.85      40.7  T
     SCC iter.                  ...        0 min,  0.020 sec
     gradient                   ...        0 min,  0.003 sec
 * total energy  :   -51.3766094 Eh     change       -0.4426743E-04 Eh
   gradient norm :     0.0047116 Eh/α   predicted    -0.4758192E-04 (   7.49%)
   displ. norm   :     0.1811194 α      lambda       -0.8522533E-04
   maximum displ.:     0.0838948 α      in ANC's #5, #2, #16, ...

........................................................................
.............................. CYCLE   15 ..............................
........................................................................

 iter      E             dE          RMSdq      gap      omega  full diag
   1    -52.0772484 -0.520772E+02  0.410E-02    3.85       0.0  T
   2    -52.0772491 -0.662266E-06  0.241E-02    3.85       1.0  T
   3    -52.0772472  0.189382E-05  0.786E-03    3.85       2.0  T
   4    -52.0772494 -0.216038E-05  0.147E-03    3.85      10.5  T
   5    -52.0772494 -0.415808E-07  0.678E-04    3.85      22.7  T
   6    -52.0772494 -0.563674E-09  0.256E-04    3.85      60.3  T
     SCC iter.                  ...        0 min,  0.015 sec
     gradient                   ...        0 min,  0.003 sec
 * total energy  :   -51.3766696 Eh     change       -0.6018858E-04 Eh
   gradient norm :     0.0044836 Eh/α   predicted    -0.4401979E-04 ( -26.86%)
   displ. norm   :     0.1885779 α      lambda       -0.1280432E-03
   maximum displ.:     0.0940820 α      in ANC's #5, #2, #11, ...

........................................................................
.............................. CYCLE   16 ..............................
........................................................................

 iter      E             dE          RMSdq      gap      omega  full diag
   1    -52.0780589 -0.520781E+02  0.374E-02    3.86       0.0  T
   2    -52.0780607 -0.178320E-05  0.219E-02    3.86       1.0  T
   3    -52.0780573  0.342580E-05  0.117E-02    3.86       1.3  T
   4    -52.0780613 -0.399512E-05  0.221E-03    3.86       7.0  T
   5    -52.0780614 -0.139283E-06  0.699E-04    3.86      22.1  T
   6    -52.0780614 -0.603990E-09  0.269E-04    3.86      57.3  T
     SCC iter.                  ...        0 min,  0.017 sec
     gradient                   ...        0 min,  0.003 sec
 * total energy  :   -51.3767434 Eh     change       -0.7379824E-04 Eh
   gradient norm :     0.0036430 Eh/α   predicted    -0.6629973E-04 ( -10.16%)
   displ. norm   :     0.4008925 α      lambda       -0.1469839E-03
   maximum displ.:     0.1962959 α      in ANC's #5, #16, #2, ...

........................................................................
.............................. CYCLE   17 ..............................
........................................................................

 iter      E             dE          RMSdq      gap      omega  full diag
   1    -52.0740158 -0.520740E+02  0.905E-02    3.87       0.0  T
   2    -52.0740218 -0.594899E-05  0.530E-02    3.87       1.0  T
   3    -52.0740138  0.801954E-05  0.177E-02    3.86       1.0  T
   4    -52.0740230 -0.919692E-05  0.448E-03    3.87       3.4  T
   5    -52.0740235 -0.553839E-06  0.186E-03    3.87       8.3  T
   6    -52.0740235 -0.170660E-07  0.871E-04    3.87      17.7  T
   7    -52.0740235 -0.535299E-08  0.152E-04    3.87     101.8  T
     SCC iter.                  ...        0 min,  0.011 sec
     gradient                   ...        0 min,  0.004 sec
 * total energy  :   -51.3767619 Eh     change       -0.1848307E-04 Eh
   gradient norm :     0.0091559 Eh/α   predicted    -0.8530438E-04 ( 361.53%)
   displ. norm   :     0.1533112 α      lambda       -0.1685940E-03
   maximum displ.:     0.0620014 α      in ANC's #8, #5, #16, ...

........................................................................
.............................. CYCLE   18 ..............................
........................................................................

 iter      E             dE          RMSdq      gap      omega  full diag
   1    -52.0787246 -0.520787E+02  0.395E-02    3.87       0.0  T
   2    -52.0787273 -0.268868E-05  0.227E-02    3.87       1.0  T
   3    -52.0787264  0.942415E-06  0.784E-03    3.87       2.0  T
   4    -52.0787274 -0.104107E-05  0.281E-03    3.87       5.5  T
   5    -52.0787277 -0.257311E-06  0.935E-04    3.87      16.5  T
   6    -52.0787277 -0.979739E-08  0.459E-04    3.87      33.6  T
     SCC iter.                  ...        0 min,  0.010 sec
     gradient                   ...        0 min,  0.004 sec
 * total energy  :   -51.3768356 Eh     change       -0.7368398E-04 Eh
   gradient norm :     0.0025273 Eh/α   predicted    -0.8627907E-04 (  17.09%)
   displ. norm   :     0.1033730 α      lambda       -0.4378827E-04
   maximum displ.:     0.0491637 α      in ANC's #5, #2, #16, ...

........................................................................
.............................. CYCLE   19 ..............................
........................................................................

 iter      E             dE          RMSdq      gap      omega  full diag
   1    -52.0792656 -0.520793E+02  0.224E-02    3.88       0.0  T
   2    -52.0792660 -0.487501E-06  0.130E-02    3.88       1.2  T
   3    -52.0792659  0.138844E-06  0.288E-03    3.88       5.4  T
   4    -52.0792661 -0.173766E-06  0.126E-03    3.88      12.3  T
   5    -52.0792661 -0.449028E-07  0.462E-04    3.88      33.4  T
   6    -52.0792661 -0.923833E-09  0.222E-04    3.88      69.5  T
     SCC iter.                  ...        0 min,  0.009 sec
     gradient                   ...        0 min,  0.005 sec
 * total energy  :   -51.3768613 Eh     change       -0.2570545E-04 Eh
   gradient norm :     0.0023280 Eh/α   predicted    -0.2212852E-04 ( -13.92%)
   displ. norm   :     0.2426757 α      lambda       -0.5583653E-04
   maximum displ.:     0.1189054 α      in ANC's #5, #2, #16, ...

........................................................................
.............................. CYCLE   20 ..............................
........................................................................

 iter      E             dE          RMSdq      gap      omega  full diag
   1    -52.0782998 -0.520783E+02  0.522E-02    3.89       0.0  T
   2    -52.0783004 -0.626691E-06  0.308E-02    3.89       1.0  T
   3    -52.0782993  0.110481E-05  0.622E-03    3.88       2.5  T
   4    -52.0783007 -0.137816E-05  0.171E-03    3.89       9.0  T
   5    -52.0783007 -0.405078E-07  0.877E-04    3.89      17.6  T
   6    -52.0783007 -0.115812E-08  0.181E-04    3.89      85.1  T
     SCC iter.                  ...        0 min,  0.015 sec
     gradient                   ...        0 min,  0.003 sec
 * total energy  :   -51.3768954 Eh     change       -0.3409318E-04 Eh
   gradient norm :     0.0028759 Eh/α   predicted    -0.2956303E-04 ( -13.29%)
   displ. norm   :     0.0986373 α      lambda       -0.2365772E-04
   maximum displ.:     0.0446724 α      in ANC's #5, #2, #16, ...
 * RMSD in coord.:     0.4514191 α      energy gain  -0.3244254E-01 Eh

generating ANC from exact Hessian ...
Using Lindh-Hessian (1995)
 Shifting diagonal of input Hessian by   9.866388499902142E-003
 Lowest  eigenvalues of input Hessian
    0.000000    0.000000    0.000000    0.000000    0.000000    0.000000
    0.010000    0.010280    0.010450    0.010513    0.010762    0.012107
    0.012170    0.013098    0.013918    0.014644    0.015653    0.017635
 Highest eigenvalues
    1.286817    1.313822    1.471268    1.830361    1.923932    2.379088
 

........................................................................
.............................. CYCLE   21 ..............................
........................................................................

 iter      E             dE          RMSdq      gap      omega  full diag
   1    -52.0782854 -0.520783E+02  0.229E-02    3.89       0.0  T
   2    -52.0782856 -0.143851E-06  0.136E-02    3.89       1.1  T
   3    -52.0782855  0.557468E-07  0.179E-03    3.89       8.6  T
   4    -52.0782856 -0.892471E-07  0.876E-04    3.89      17.6  T
   5    -52.0782856 -0.163275E-07  0.393E-04    3.89      39.3  T
     SCC iter.                  ...        0 min,  0.008 sec
     gradient                   ...        0 min,  0.004 sec
 * total energy  :   -51.3769124 Eh     change       -0.1702111E-04 Eh
   gradient norm :     0.0023684 Eh/α   predicted     0.0000000E+00 (-100.00%)
   displ. norm   :     0.0225399 α      lambda       -0.5710099E-05
   maximum displ.:     0.0109679 α      in ANC's #15, #3, #11, ...

........................................................................
.............................. CYCLE   22 ..............................
........................................................................

 iter      E             dE          RMSdq      gap      omega  full diag
   1    -52.0792071 -0.520792E+02  0.676E-03    3.89       0.0  T
   2    -52.0792072 -0.945522E-07  0.400E-03    3.89       3.9  T
   3    -52.0792071  0.940128E-07  0.201E-03    3.89       7.7  T
   4    -52.0792072 -0.109555E-06  0.582E-04    3.89      26.5  T
   5    -52.0792072 -0.959737E-08  0.156E-04    3.89      99.0  T
     SCC iter.                  ...        0 min,  0.007 sec
     gradient                   ...        0 min,  0.004 sec
 * total energy  :   -51.3769254 Eh     change       -0.1296637E-04 Eh
   gradient norm :     0.0006893 Eh/α   predicted    -0.8626592E-05 ( -33.47%)
   displ. norm   :     0.0764777 α      lambda       -0.1833225E-04
   maximum displ.:     0.0388488 α      in ANC's #15, #3, #11, ...

........................................................................
.............................. CYCLE   23 ..............................
........................................................................

 iter      E             dE          RMSdq      gap      omega  full diag
   1    -52.0803382 -0.520803E+02  0.177E-02    3.89       0.0  T
   2    -52.0803384 -0.119331E-06  0.105E-02    3.89       1.5  T
   3    -52.0803378  0.562792E-06  0.416E-03    3.89       3.7  T
   4    -52.0803384 -0.630608E-06  0.592E-04    3.89      26.0  T
   5    -52.0803384 -0.651684E-08  0.250E-04    3.89      61.7  T
     SCC iter.                  ...        0 min,  0.007 sec
     gradient                   ...        0 min,  0.003 sec
 * total energy  :   -51.3769418 Eh     change       -0.1649645E-04 Eh
   gradient norm :     0.0020559 Eh/α   predicted    -0.9190672E-05 ( -44.29%)
   displ. norm   :     0.0618157 α      lambda       -0.1561700E-04
   maximum displ.:     0.0344829 α      in ANC's #15, #3, #7, ...

........................................................................
.............................. CYCLE   24 ..............................
........................................................................

 iter      E             dE          RMSdq      gap      omega  full diag
   1    -52.0802225 -0.520802E+02  0.119E-02    3.89       0.0  T
   2    -52.0802225 -0.290152E-07  0.711E-03    3.89       2.2  T
   3    -52.0802225 -0.610541E-09  0.418E-04    3.89      36.9  T
   4    -52.0802225 -0.158879E-08  0.281E-04    3.89      54.9  T
     SCC iter.                  ...        0 min,  0.006 sec
     gradient                   ...        0 min,  0.004 sec
 * total energy  :   -51.3769556 Eh     change       -0.1375701E-04 Eh
   gradient norm :     0.0019311 Eh/α   predicted    -0.7886625E-05 ( -42.67%)
   displ. norm   :     0.3968150 α      lambda       -0.6137798E-04
   maximum displ.:     0.2236009 α      in ANC's #15, #3, #7, ...

........................................................................
.............................. CYCLE   25 ..............................
........................................................................

 iter      E             dE          RMSdq      gap      omega  full diag
   1    -52.0767459 -0.520767E+02  0.759E-02    3.88       0.0  T
   2    -52.0767498 -0.386523E-05  0.447E-02    3.88       1.0  T
   3    -52.0767499 -0.391985E-07  0.486E-03    3.88       3.2  T
   4    -52.0767500 -0.137501E-06  0.202E-03    3.88       7.7  T
   5    -52.0767501 -0.977347E-07  0.103E-03    3.88      15.0  T
   6    -52.0767501 -0.111070E-07  0.300E-04    3.88      51.3  T
   7    -52.0767501 -0.131195E-08  0.708E-05    3.88     217.8  T
     SCC iter.                  ...        0 min,  0.010 sec
     gradient                   ...        0 min,  0.004 sec
 * total energy  :   -51.3769393 Eh     change        0.1631459E-04 Eh
   gradient norm :     0.0066345 Eh/α   predicted    -0.3283737E-04 (-301.28%)
   displ. norm   :     0.1518267 α      lambda       -0.1098168E-03
   maximum displ.:     0.0859248 α      in ANC's #15, #3, #11, ...

........................................................................
.............................. CYCLE   26 ..............................
........................................................................

 iter      E             dE          RMSdq      gap      omega  full diag
   1    -52.0788173 -0.520788E+02  0.322E-02    3.88       0.0  T
   2    -52.0788186 -0.122841E-05  0.187E-02    3.88       1.0  T
   3    -52.0788184  0.165320E-06  0.386E-03    3.89       4.0  T
   4    -52.0788185 -0.128147E-06  0.190E-03    3.88       8.1  T
   5    -52.0788187 -0.129833E-06  0.499E-04    3.88      30.9  T
   6    -52.0788187 -0.148358E-08  0.152E-04    3.88     101.3  T
     SCC iter.                  ...        0 min,  0.009 sec
     gradient                   ...        0 min,  0.003 sec
 * total energy  :   -51.3769946 Eh     change       -0.5530439E-04 Eh
   gradient norm :     0.0019024 Eh/α   predicted    -0.5620791E-04 (   1.63%)
   displ. norm   :     0.0353590 α      lambda       -0.1118587E-04
   maximum displ.:     0.0188066 α      in ANC's #3, #15, #12, ...

........................................................................
.............................. CYCLE   27 ..............................
........................................................................

 iter      E             dE          RMSdq      gap      omega  full diag
   1    -52.0793337 -0.520793E+02  0.860E-03    3.88       0.0  T
   2    -52.0793338 -0.522668E-07  0.506E-03    3.88       3.0  T
   3    -52.0793337  0.118287E-07  0.849E-04    3.88      18.2  T
   4    -52.0793338 -0.113095E-07  0.444E-04    3.88      34.7  T
     SCC iter.                  ...        0 min,  0.006 sec
     gradient                   ...        0 min,  0.004 sec
 * total energy  :   -51.3770077 Eh     change       -0.1308334E-04 Eh
   gradient norm :     0.0008260 Eh/α   predicted    -0.5596633E-05 ( -57.22%)
   displ. norm   :     0.1428206 α      lambda       -0.1978884E-04
   maximum displ.:     0.0848392 α      in ANC's #3, #15, #7, ...

........................................................................
.............................. CYCLE   28 ..............................
........................................................................

 iter      E             dE          RMSdq      gap      omega  full diag
   1    -52.0794877 -0.520795E+02  0.278E-02    3.88       0.0  T
   2    -52.0794879 -0.143229E-06  0.165E-02    3.88       1.0  T
   3    -52.0794879 -0.132598E-07  0.915E-04    3.88      16.9  T
   4    -52.0794879 -0.150531E-07  0.407E-04    3.88      37.9  T
     SCC iter.                  ...        0 min,  0.006 sec
     gradient                   ...        0 min,  0.004 sec
 * total energy  :   -51.3770293 Eh     change       -0.2159588E-04 Eh
   gradient norm :     0.0008636 Eh/α   predicted    -0.1001385E-04 ( -53.63%)
   displ. norm   :     0.1714882 α      lambda       -0.1404506E-04
   maximum displ.:     0.1047488 α      in ANC's #3, #15, #7, ...

........................................................................
.............................. CYCLE   29 ..............................
........................................................................

 iter      E             dE          RMSdq      gap      omega  full diag
   1    -52.0788036 -0.520788E+02  0.339E-02    3.88       0.0  T
   2    -52.0788039 -0.329340E-06  0.201E-02    3.88       1.0  T
   3    -52.0788039  0.280933E-07  0.169E-03    3.88       9.1  T
   4    -52.0788040 -0.592713E-07  0.822E-04    3.88      18.8  T
   5    -52.0788040 -0.155597E-07  0.388E-04    3.88      39.7  T
     SCC iter.                  ...        0 min,  0.009 sec
     gradient                   ...        0 min,  0.003 sec
 * total energy  :   -51.3770412 Eh     change       -0.1195546E-04 Eh
   gradient norm :     0.0022430 Eh/α   predicted    -0.7119658E-05 ( -40.45%)
   displ. norm   :     0.0481385 α      lambda       -0.1082531E-04
   maximum displ.:     0.0338199 α      in ANC's #3, #5, #16, ...

........................................................................
.............................. CYCLE   30 ..............................
........................................................................

 iter      E             dE          RMSdq      gap      omega  full diag
   1    -52.0789665 -0.520790E+02  0.121E-02    3.88       0.0  T
   2    -52.0789666 -0.210351E-07  0.716E-03    3.88       2.2  T
   3    -52.0789665  0.653029E-08  0.682E-04    3.88      22.6  T
   4    -52.0789666 -0.118017E-07  0.284E-04    3.88      54.4  T
     SCC iter.                  ...        0 min,  0.007 sec
     gradient                   ...        0 min,  0.003 sec
 * total energy  :   -51.3770504 Eh     change       -0.9170254E-05 Eh
   gradient norm :     0.0015853 Eh/α   predicted    -0.5426066E-05 ( -40.83%)
   displ. norm   :     0.2494094 α      lambda       -0.2746353E-04
   maximum displ.:     0.1779036 α      in ANC's #3, #5, #16, ...

........................................................................
.............................. CYCLE   31 ..............................
........................................................................

 iter      E             dE          RMSdq      gap      omega  full diag
   1    -52.0790605 -0.520791E+02  0.609E-02    3.88       0.0  T
   2    -52.0790607 -0.263599E-06  0.360E-02    3.88       1.0  T
   3    -52.0790608 -0.303485E-07  0.183E-03    3.88       8.4  T
   4    -52.0790608 -0.623967E-07  0.105E-03    3.88      14.8  T
   5    -52.0790609 -0.150255E-07  0.503E-04    3.88      30.7  T
   6    -52.0790609 -0.386715E-08  0.137E-04    3.88     112.4  T
     SCC iter.                  ...        0 min,  0.010 sec
     gradient                   ...        0 min,  0.003 sec
 * total energy  :   -51.3770755 Eh     change       -0.2509678E-04 Eh
   gradient norm :     0.0011320 Eh/α   predicted    -0.1411521E-04 ( -43.76%)
   displ. norm   :     0.1275138 α      lambda       -0.1088733E-04
   maximum displ.:     0.0949326 α      in ANC's #3, #5, #16, ...

........................................................................
.............................. CYCLE   32 ..............................
........................................................................

 iter      E             dE          RMSdq      gap      omega  full diag
   1    -52.0792962 -0.520793E+02  0.345E-02    3.88       0.0  T
   2    -52.0792963 -0.708393E-07  0.203E-02    3.88       1.0  T
   3    -52.0792963  0.510922E-07  0.160E-03    3.88       9.7  T
   4    -52.0792963 -0.822642E-07  0.502E-04    3.88      30.8  T
   5    -52.0792964 -0.303774E-08  0.258E-04    3.88      59.8  T
     SCC iter.                  ...        0 min,  0.008 sec
     gradient                   ...        0 min,  0.003 sec
 * total energy  :   -51.3770884 Eh     change       -0.1286673E-04 Eh
   gradient norm :     0.0008483 Eh/α   predicted    -0.5501441E-05 ( -57.24%)
   displ. norm   :     0.2093528 α      lambda       -0.1501847E-04
   maximum displ.:     0.1573784 α      in ANC's #3, #5, #1, ...

........................................................................
.............................. CYCLE   33 ..............................
........................................................................

 iter      E             dE          RMSdq      gap      omega  full diag
   1    -52.0792191 -0.520792E+02  0.595E-02    3.87       0.0  T
   2    -52.0792193 -0.257882E-06  0.350E-02    3.87       1.0  T
   3    -52.0792188  0.589194E-06  0.439E-03    3.87       3.5  T
   4    -52.0792195 -0.708146E-06  0.903E-04    3.87      17.1  T
   5    -52.0792195 -0.133154E-07  0.432E-04    3.87      35.7  T
     SCC iter.                  ...        0 min,  0.008 sec
     gradient                   ...        0 min,  0.003 sec
 * total energy  :   -51.3771036 Eh     change       -0.1518899E-04 Eh
   gradient norm :     0.0010779 Eh/α   predicted    -0.7660126E-05 ( -49.57%)
   displ. norm   :     0.1723291 α      lambda       -0.1521457E-04
   maximum displ.:     0.1225073 α      in ANC's #3, #5, #1, ...

........................................................................
.............................. CYCLE   34 ..............................
........................................................................

 iter      E             dE          RMSdq      gap      omega  full diag
   1    -52.0806682 -0.520807E+02  0.557E-02    3.87       0.0  T
   2    -52.0806689 -0.643545E-06  0.326E-02    3.87       1.0  T
   3    -52.0806686  0.313971E-06  0.361E-03    3.87       4.3  T
   4    -52.0806689 -0.370976E-06  0.142E-03    3.87      10.9  T
   5    -52.0806690 -0.648081E-07  0.499E-04    3.87      30.9  T
   6    -52.0806690 -0.193624E-08  0.217E-04    3.87      71.2  T
     SCC iter.                  ...        0 min,  0.010 sec
     gradient                   ...        0 min,  0.003 sec
 * total energy  :   -51.3771035 Eh     change        0.5493924E-08 Eh
   gradient norm :     0.0028363 Eh/α   predicted    -0.7708007E-05 (*******%)
   displ. norm   :     0.3215525 α      lambda       -0.3845933E-04
   maximum displ.:     0.2432580 α      in ANC's #3, #5, #15, ...

........................................................................
.............................. CYCLE   35 ..............................
........................................................................

 iter      E             dE          RMSdq      gap      omega  full diag
   1    -52.0782809 -0.520783E+02  0.930E-02    3.87       0.0  T
   2    -52.0782825 -0.158089E-05  0.546E-02    3.87       1.0  T
   3    -52.0782807  0.172360E-05  0.750E-03    3.87       2.1  T
   4    -52.0782827 -0.192518E-05  0.263E-03    3.86       5.9  T
   5    -52.0782829 -0.208324E-06  0.820E-04    3.87      18.8  T
   6    -52.0782829 -0.776360E-09  0.211E-04    3.87      73.1  T
     SCC iter.                  ...        0 min,  0.010 sec
     gradient                   ...        0 min,  0.003 sec
 * total energy  :   -51.3771038 Eh     change       -0.2465841E-06 Eh
   gradient norm :     0.0033613 Eh/α   predicted    -0.2121830E-04 (8504.89%)
   displ. norm   :     0.2263417 α      lambda       -0.5142520E-04
   maximum displ.:     0.1702865 α      in ANC's #3, #5, #1, ...

........................................................................
.............................. CYCLE   36 ..............................
........................................................................

 iter      E             dE          RMSdq      gap      omega  full diag
   1    -52.0800956 -0.520801E+02  0.673E-02    3.87       0.0  T
   2    -52.0800962 -0.536443E-06  0.396E-02    3.87       1.0  T
   3    -52.0800948  0.142463E-05  0.654E-03    3.87       2.4  T
   4    -52.0800964 -0.161393E-05  0.133E-03    3.87      11.6  T
   5    -52.0800964 -0.438747E-07  0.515E-04    3.87      29.9  T
   6    -52.0800964 -0.367685E-09  0.112E-04    3.87     137.4  T
     SCC iter.                  ...        0 min,  0.010 sec
     gradient                   ...        0 min,  0.004 sec
 * total energy  :   -51.3771231 Eh     change       -0.1927289E-04 Eh
   gradient norm :     0.0008292 Eh/α   predicted    -0.2704051E-04 (  40.30%)
   displ. norm   :     0.0759077 α      lambda       -0.5574026E-05
   maximum displ.:     0.0564748 α      in ANC's #3, #5, #15, ...

........................................................................
.............................. CYCLE   37 ..............................
........................................................................

 iter      E             dE          RMSdq      gap      omega  full diag
   1    -52.0796566 -0.520797E+02  0.229E-02    3.87       0.0  T
   2    -52.0796566 -0.541230E-07  0.135E-02    3.87       1.1  T
   3    -52.0796564  0.183559E-06  0.230E-03    3.87       6.7  T
   4    -52.0796567 -0.209920E-06  0.441E-04    3.87      35.0  T
   5    -52.0796567 -0.351684E-08  0.196E-04    3.87      78.6  T
     SCC iter.                  ...        0 min,  0.016 sec
     gradient                   ...        0 min,  0.006 sec
 * total energy  :   -51.3771301 Eh     change       -0.7046016E-05 Eh
   gradient norm :     0.0006056 Eh/α   predicted    -0.2797399E-05 ( -60.30%)
   displ. norm   :     0.2959524 α      lambda       -0.1703423E-04
   maximum displ.:     0.2179088 α      in ANC's #3, #5, #1, ...

........................................................................
.............................. CYCLE   38 ..............................
........................................................................

 iter      E             dE          RMSdq      gap      omega  full diag
   1    -52.0780433 -0.520780E+02  0.900E-02    3.86       0.0  T
   2    -52.0780441 -0.786048E-06  0.529E-02    3.86       1.0  T
   3    -52.0780417  0.240186E-05  0.839E-03    3.86       1.8  T
   4    -52.0780445 -0.276762E-05  0.166E-03    3.86       9.3  T
   5    -52.0780445 -0.525386E-07  0.729E-04    3.86      21.2  T
   6    -52.0780445 -0.144273E-08  0.257E-04    3.86      60.0  T
     SCC iter.                  ...        0 min,  0.012 sec
     gradient                   ...        0 min,  0.005 sec
 * total energy  :   -51.3771396 Eh     change       -0.9473644E-05 Eh
   gradient norm :     0.0028600 Eh/α   predicted    -0.8850252E-05 (  -6.58%)
   displ. norm   :     0.0499984 α      lambda       -0.1215925E-04
   maximum displ.:     0.0346481 α      in ANC's #3, #5, #6, ...

........................................................................
.............................. CYCLE   39 ..............................
........................................................................

 iter      E             dE          RMSdq      gap      omega  full diag
   1    -52.0787795 -0.520788E+02  0.135E-02    3.86       0.0  T
   2    -52.0787796 -0.841952E-07  0.792E-03    3.87       1.9  T
   3    -52.0787794  0.179154E-06  0.234E-03    3.86       6.6  T
   4    -52.0787796 -0.193514E-06  0.572E-04    3.87      27.0  T
   5    -52.0787796 -0.102533E-07  0.147E-04    3.86     104.6  T
     SCC iter.                  ...        0 min,  0.008 sec
     gradient                   ...        0 min,  0.005 sec
 * total energy  :   -51.3771477 Eh     change       -0.8150302E-05 Eh
   gradient norm :     0.0015313 Eh/α   predicted    -0.6095428E-05 ( -25.21%)
   displ. norm   :     0.0846300 α      lambda       -0.8344680E-05
   maximum displ.:     0.0462395 α      in ANC's #3, #5, #6, ...

........................................................................
.............................. CYCLE   40 ..............................
........................................................................

 iter      E             dE          RMSdq      gap      omega  full diag
   1    -52.0794394 -0.520794E+02  0.245E-02    3.87       0.0  T
   2    -52.0794395 -0.101605E-06  0.143E-02    3.87       1.1  T
   3    -52.0794395 -0.129235E-07  0.691E-04    3.87      22.3  T
   4    -52.0794395 -0.659787E-08  0.316E-04    3.87      48.9  T
     SCC iter.                  ...        0 min,  0.007 sec
     gradient                   ...        0 min,  0.004 sec
 * total energy  :   -51.3771563 Eh     change       -0.8581250E-05 Eh
   gradient norm :     0.0009052 Eh/α   predicted    -0.4189370E-05 ( -51.18%)
   displ. norm   :     0.2027069 α      lambda       -0.9673153E-05
   maximum displ.:     0.1353857 α      in ANC's #3, #5, #1, ...

........................................................................
.............................. CYCLE   41 ..............................
........................................................................

 iter      E             dE          RMSdq      gap      omega  full diag
   1    -52.0794085 -0.520794E+02  0.622E-02    3.86       0.0  T
   2    -52.0794087 -0.204854E-06  0.365E-02    3.86       1.0  T
   3    -52.0794083  0.390036E-06  0.375E-03    3.86       4.1  T
   4    -52.0794089 -0.519559E-06  0.842E-04    3.86      18.3  T
   5    -52.0794089 -0.309284E-08  0.361E-04    3.86      42.8  T
     SCC iter.                  ...        0 min,  0.010 sec
     gradient                   ...        0 min,  0.004 sec
 * total energy  :   -51.3771686 Eh     change       -0.1230019E-04 Eh
   gradient norm :     0.0007110 Eh/α   predicted    -0.4932762E-05 ( -59.90%)
   displ. norm   :     0.4775006 α      lambda       -0.1876285E-04
   maximum displ.:     0.3209622 α      in ANC's #3, #5, #1, ...

........................................................................
.............................. CYCLE   42 ..............................
........................................................................

 iter      E             dE          RMSdq      gap      omega  full diag
   1    -52.0770915 -0.520771E+02  0.147E-01    3.85       0.0  T
   2    -52.0770931 -0.159380E-05  0.867E-02    3.85       1.0  T
   3    -52.0770862  0.691381E-05  0.142E-02    3.85       1.1  T
   4    -52.0770942 -0.799842E-05  0.227E-03    3.85       6.8  T
   5    -52.0770943 -0.536529E-07  0.106E-03    3.85      14.6  T
   6    -52.0770943 -0.243042E-08  0.236E-04    3.85      65.4  T
   7    -52.0770943 -0.171092E-09  0.100E-04    3.85     153.6  T
     SCC iter.                  ...        0 min,  0.011 sec
     gradient                   ...        0 min,  0.004 sec
 * total energy  :   -51.3771696 Eh     change       -0.9344043E-06 Eh
   gradient norm :     0.0038081 Eh/α   predicted    -0.1037629E-04 (1010.47%)
   displ. norm   :     0.1134776 α      lambda       -0.3347722E-04
   maximum displ.:     0.0858694 α      in ANC's #3, #5, #1, ...
 * RMSD in coord.:     0.3554387 α      energy gain  -0.2741880E-03 Eh

generating ANC from exact Hessian ...
Using Lindh-Hessian (1995)
 Shifting diagonal of input Hessian by   9.873932733893141E-003
 Lowest  eigenvalues of input Hessian
    0.000000    0.000000    0.000000    0.000000    0.000000    0.010000
    0.000000    0.010295    0.010448    0.010516    0.010778    0.012073
    0.012166    0.013130    0.013899    0.014636    0.015639    0.017509
 Highest eigenvalues
    1.285333    1.313395    1.470952    1.831078    1.927083    2.383648
 

........................................................................
.............................. CYCLE   43 ..............................
........................................................................

 iter      E             dE          RMSdq      gap      omega  full diag
   1    -52.0791341 -0.520791E+02  0.355E-02    3.86       0.0  T
   2    -52.0791343 -0.266354E-06  0.211E-02    3.86       1.0  T
   3    -52.0791314  0.291034E-05  0.902E-03    3.86       1.7  T
   4    -52.0791346 -0.323178E-05  0.794E-04    3.86      19.4  T
   5    -52.0791347 -0.121092E-07  0.330E-04    3.86      46.7  T
   6    -52.0791347 -0.277161E-09  0.154E-04    3.86     100.4  T
     SCC iter.                  ...        0 min,  0.010 sec
     gradient                   ...        0 min,  0.004 sec
 * total energy  :   -51.3771869 Eh     change       -0.1731565E-04 Eh
   gradient norm :     0.0011575 Eh/α   predicted     0.0000000E+00 (-100.00%)
   displ. norm   :     0.0196765 α      lambda       -0.5639078E-05
   maximum displ.:     0.0092830 α      in ANC's #4, #5, #7, ...

........................................................................
.............................. CYCLE   44 ..............................
........................................................................

 iter      E             dE          RMSdq      gap      omega  full diag
   1    -52.0796964 -0.520797E+02  0.742E-03    3.86       0.0  T
   2    -52.0796965 -0.571994E-07  0.431E-03    3.86       3.6  T
   3    -52.0796965  0.115612E-07  0.952E-04    3.86      16.2  T
   4    -52.0796965 -0.115338E-07  0.468E-04    3.86      32.9  T
     SCC iter.                  ...        0 min,  0.007 sec
     gradient                   ...        0 min,  0.004 sec
 * total energy  :   -51.3771916 Eh     change       -0.4752691E-05 Eh
   gradient norm :     0.0005060 Eh/α   predicted    -0.2846245E-05 ( -40.11%)
   displ. norm   :     0.0270255 α      lambda       -0.3069669E-05
   maximum displ.:     0.0138190 α      in ANC's #4, #5, #7, ...

   *** GEOMETRY OPTIMIZATION CONVERGED AFTER 44 ITERATIONS ***

------------------------------------------------------------------------
 total energy gain   :        -0.0327388 Eh      -20.5439 kcal/mol
 total RMSD          :         0.6424744 a0        0.3400 Å
 total power (kW/mol):        -1.9535387 (step) -102.7301 (real)
------------------------------------------------------------------------

 ANCopt (total)                0 d,  0 h,  0 min,  0.837 sec
 optimizer setup                ...        0 min,  0.000 sec (  0.012%)
 model hessian                  ...        0 min,  0.074 sec (  8.790%)
 ANC generation                 ...        0 min,  0.005 sec (  0.538%)
 coordinate transformation      ...        0 min,  0.001 sec (  0.082%)
 single point calculation       ...        0 min,  0.728 sec ( 87.028%)
 optimization log               ...        0 min,  0.016 sec (  1.947%)
 hessian update                 ...        0 min,  0.008 sec (  0.901%)
 rational function              ...        0 min,  0.004 sec (  0.492%)

================
 final structure:
================
42
 xtb: 6.7.1 (edcfbbe)
C            5.42188880938383        0.55954471056771        0.14879401768545
C            4.60237984384560       -0.72830603581395        0.11547341850229
C            5.42285070428091       -1.87862120849808        0.69723128579669
C            3.28568925184560       -0.58470083687876        0.88702046818051
C            2.28434310210752        0.36273451739705        0.22874404811958
C            0.95049258493232        0.36758062045634        0.97400055243210
C           -0.05569915499736        1.37852111122890        0.42082024552050
C           -0.60606318137765        0.98313894225727       -0.94824192513978
C           -1.57951296858856        2.01229141526650       -1.52624499440858
C           -2.91290130138152        2.05921795529618       -0.79138218014493
O           -3.57604388187146        0.80644666846677       -0.95456928227559
C           -4.47090289379217        0.46945224446293       -0.02032509969819
O           -4.74568467093192        1.17166147807892        0.92347640169493
C           -5.08531024514483       -0.86566909068302       -0.26603198851252
C           -6.24353079767647       -1.18478825525674        0.62400162095251
C           -4.60905358355114       -1.68909179345709       -1.19307978217129
H            6.36273060308627        0.42212090033313       -0.37988165690541
H            5.64493488132533        0.83875947201374        1.17656736806913
H            4.88646631616080        1.37861290761639       -0.32357760749640
H            4.36739457982567       -0.96485221113583       -0.92887169117217
H            6.35866175650894       -1.99446561669482        0.15499576722453
H            4.87317496379107       -2.81521771600317        0.63470859314963
H            5.65444946631045       -1.68633270435802        1.74285243770038
H            3.50162221684590       -0.23731355676597        1.90027134645631
H            2.82260578775548       -1.57135399444595        0.97051007986742
H            2.13130592449145        0.05060962035588       -0.80596398275396
H            2.68466182582340        1.37790683364875        0.21732647302809
H            0.51109665178260       -0.63216381717857        0.93994627151240
H            1.14207510748252        0.60598698124603        2.02317450162314
H            0.42132726359465        2.35922813650258        0.34964964250818
H           -0.88108943829384        1.46250494880433        1.13029132881616
H            0.22195022479350        0.86946496162430       -1.64942560484639
H           -1.11402008361690        0.01982318447107       -0.87124954976941
H           -1.13387048762508        3.00776576967360       -1.48743591556762
H           -1.77847168689337        1.76749065375426       -2.57132204600463
H           -3.55318324312984        2.84593653225246       -1.20775306494926
H           -2.78446502206158        2.25683232072983        0.27734446385229
H           -5.95559653921046       -1.04623538045483        1.66414594180839
H           -6.58475849994520       -2.20408678795308        0.47031353678874
H           -7.06367513176064       -0.49681475113426        0.42390209636005
H           -3.76980703022959       -1.42098346897863       -1.81002030373670
H           -5.04846102389237       -2.65859266081630       -1.36018523209832
 
 Bond Distances (Angstroems)
 ---------------------------
C1-C2=1.5268         C1-H17=1.0879        C1-H18=1.0881        C1-H19=1.0866        C2-C1=1.5268         C2-C3=1.5280         
C2-C4=1.5328         C2-H20=1.0963        C3-C2=1.5280         C3-H21=1.0877        C3-H22=1.0878        C3-H23=1.0881        
C4-C2=1.5328         C4-C5=1.5276         C4-H24=1.0927        C4-H25=1.0931        C5-C4=1.5276         C5-C6=1.5279         
C5-H26=1.0915        C5-H27=1.0913        C6-C5=1.5279         C6-C7=1.5298         C6-H28=1.0926        C6-H29=1.0928        
C7-C6=1.5298         C7-C8=1.5276         C7-H30=1.0929        C7-H31=1.0916        C8-C7=1.5276         C8-C9=1.5300         
C8-H32=1.0910        C8-H33=1.0918        C9-C8=1.5300         C9-C10=1.5232        C9-H34=1.0914        C9-H35=1.0916        
C10-C9=1.5232        C10-O11=1.4268       C10-H36=1.0965       C10-H37=1.0944       O11-C10=1.4268       O11-C12=1.3368       
C12-O11=1.3368       C12-O13=1.2080       C12-C14=1.4901       O13-C12=1.2080       C14-C12=1.4901       C14-C15=1.4951       
C14-C16=1.3283       C15-C14=1.4951       C15-H38=1.0881       C15-H39=1.0858       C15-H40=1.0890       C16-C14=1.3283       
C16-H41=1.0756       C16-H42=1.0775       H17-C1=1.0879        H18-C1=1.0881        H19-C1=1.0866        H20-C2=1.0963        
H21-C3=1.0877        H22-C3=1.0878        H23-C3=1.0881        H24-C4=1.0927        H25-C4=1.0931        H26-C5=1.0915        
H27-C5=1.0913        H28-C6=1.0926        H29-C6=1.0928        H30-C7=1.0929        H31-C7=1.0916        H32-C8=1.0910        
H33-C8=1.0918        H34-C9=1.0914        H35-C9=1.0916        H36-C10=1.0965       H37-C10=1.0944       H38-C15=1.0881       
H39-C15=1.0858       H40-C15=1.0890       H41-C16=1.0756       H42-C16=1.0775       
 C  H  Rav=1.0898 sigma=0.0047  Rmin=1.0756  Rmax=1.0965    26
 C  C  Rav=1.5056 sigma=0.0551  Rmin=1.3283  Rmax=1.5328    12
 O  C  Rav=1.3239 sigma=0.0898  Rmin=1.2080  Rmax=1.4268     3
 
 selected bond angles (degree)
 --------------------
H17-C1-C2=110.31               H18-C1-C2=110.31               H18-C1-H17=108.31              H19-C1-C2=111.21               
H19-C1-H17=108.07              H19-C1-H18=108.55              C3-C2-C1=109.78                C4-C2-C1=111.78                
C4-C2-C3=109.88                H20-C2-C1=108.53               H20-C2-C3=108.38               H20-C2-C4=108.40               
H21-C3-C2=110.63               H22-C3-C2=110.79               H22-C3-H21=108.32              H23-C3-C2=110.31               
H23-C3-H21=108.35              H23-C3-H22=108.36              C5-C4-C2=113.85                H24-C4-C2=109.07               
H24-C4-C5=109.39               H25-C4-C2=108.53               H25-C4-C5=108.36               H25-C4-H24=107.45              
C6-C5-C4=111.35                H26-C5-C4=108.85               H26-C5-C6=109.93               H27-C5-C4=109.94               
H27-C5-C6=108.81               H27-C5-H26=107.91              C7-C6-C5=113.57                H28-C6-C5=109.45               
H28-C6-C7=109.20               H29-C6-C5=108.42               H29-C6-C7=108.56               H29-C6-H28=107.46              
C8-C7-C6=112.95                H30-C7-C6=109.24               H30-C7-C8=109.34               H31-C7-C6=108.25               
H31-C7-C8=109.27               H31-C7-H30=107.66              C9-C8-C7=113.19                H32-C8-C7=109.24               
H32-C8-C9=108.07               H33-C8-C7=109.44               H33-C8-C9=108.91               H33-C8-H32=107.85              
C10-C9-C8=113.29               H34-C9-C8=109.90               H34-C9-C10=108.19              H35-C9-C8=109.07               
H35-C9-C10=108.01              H35-C9-H34=108.24              O11-C10-C9=108.94              H36-C10-C9=110.49              
H36-C10-O11=108.37             H37-C10-C9=111.96              H37-C10-O11=108.95             H37-C10-H36=108.05             
 
 selected dihedral angles (degree)
 ---------------------------------
C3-C2-C1-H17= 56.12           C3-C2-C1-H18=296.52           C3-C2-C1-H19=176.01           C4-C2-C1-H17=178.33           
C4-C2-C1-H18= 58.72           C4-C2-C1-H19=298.22           H20-C2-C1-H17=297.83          H20-C2-C1-H18=178.22          
H20-C2-C1-H19= 57.72          H21-C3-C2-C1=303.05           H21-C3-C2-C4=179.73           H21-C3-C2-H20= 61.44          
H22-C3-C2-C1=182.90           H22-C3-C2-C4= 59.58           H22-C3-C2-H20=301.29          H23-C3-C2-C1= 62.92           
H23-C3-C2-C4=299.59           H23-C3-C2-H20=181.31          C5-C4-C2-C1= 68.46            C5-C4-C2-C3=190.60            
C5-C4-C2-H20=308.88           H24-C4-C2-C1=305.99           H24-C4-C2-C3= 68.14           H24-C4-C2-H20=186.41          
H25-C4-C2-C1=189.21           H25-C4-C2-C3=311.36           H25-C4-C2-H20= 69.64          C6-C5-C4-C2=174.91            
C6-C5-C4-H24=297.20           C6-C5-C4-H25= 54.06           H26-C5-C4-C2= 53.57           H26-C5-C4-H24=175.86          
H26-C5-C4-H25=292.72          H27-C5-C4-C2=295.57           H27-C5-C4-H24= 57.86          H27-C5-C4-H25=174.72          
C7-C6-C5-C4=175.63            C7-C6-C5-H26=296.34           C7-C6-C5-H27= 54.31           H28-C6-C5-C4=297.95           
H28-C6-C5-H26= 58.66          H28-C6-C5-H27=176.63          H29-C6-C5-C4= 54.89           H29-C6-C5-H26=175.59          
H29-C6-C5-H27=293.56          C8-C7-C6-C5= 70.67            C8-C7-C6-H28=308.21           C8-C7-C6-H29=191.34           
H30-C7-C6-C5=308.75           H30-C7-C6-H28=186.30          H30-C7-C6-H29= 69.42          H31-C7-C6-C5=191.80           
H31-C7-C6-H28= 69.34          H31-C7-C6-H29=312.47          C9-C8-C7-C6=181.81            C9-C8-C7-H30=303.67           
C9-C8-C7-H31= 61.26           H32-C8-C7-C6=302.27           H32-C8-C7-H30= 64.13          H32-C8-C7-H31=181.72          
H33-C8-C7-C6= 60.14           H33-C8-C7-H30=182.00          H33-C8-C7-H31=299.59          C10-C9-C8-C7=289.41           
C10-C9-C8-H32=168.29          C10-C9-C8-H33= 51.38          H34-C9-C8-C7= 50.56           H34-C9-C8-H32=289.44          
H34-C9-C8-H33=172.53          H35-C9-C8-C7=169.08           H35-C9-C8-H32= 47.96          H35-C9-C8-H33=291.05          
O11-C10-C9-C8=295.94          O11-C10-C9-H34=173.84         O11-C10-C9-H35= 56.88         H36-C10-C9-C8=177.00          
H36-C10-C9-H34= 54.89         H36-C10-C9-H35=297.94         H37-C10-C9-C8= 56.51          H37-C10-C9-H34=294.41         
H37-C10-C9-H35=177.45         
           -------------------------------------------------
          |                Final Singlepoint                |
           -------------------------------------------------

          ...................................................
          :                      SETUP                      :
          :.................................................:
          :  # basis functions                  90          :
          :  # atomic orbitals                  90          :
          :  # shells                           58          :
          :  # electrons                        94          :
          :  max. iterations                   250          :
          :  Hamiltonian                  GFN2-xTB          :
          :  restarted?                      false          :
          :  GBSA solvation                  false          :
          :  PC potential                    false          :
          :  electronic temp.          300.0000000     K    :
          :  accuracy                    1.0000000          :
          :  -> integral cutoff          0.2500000E+02      :
          :  -> integral neglect         0.1000000E-07      :
          :  -> SCF convergence          0.1000000E-05 Eh   :
          :  -> wf. convergence          0.1000000E-03 e    :
          :  Broyden damping             0.4000000          :
          :  net charge                          0          :
          :  unpaired electrons                  0          :
          ...................................................

 iter      E             dE          RMSdq      gap      omega  full diag
   1    -52.0796965 -0.520797E+02  0.137E-04    3.86       0.0  T
   2    -52.0796965 -0.223679E-10  0.846E-05    3.86     182.3  T
   3    -52.0796965  0.800853E-10  0.625E-05    3.86     247.0  T

   *** convergence criteria satisfied after 3 iterations ***

         #    Occupation            Energy/Eh            Energy/eV
      -------------------------------------------------------------
         1        2.0000           -0.7362284             -20.0338
       ...           ...                  ...                  ...
        41        2.0000           -0.4286230             -11.6634
        42        2.0000           -0.4222589             -11.4903
        43        2.0000           -0.4209618             -11.4550
        44        2.0000           -0.4183805             -11.3847
        45        2.0000           -0.4152890             -11.3006
        46        2.0000           -0.4128821             -11.2351
        47        2.0000           -0.4074237             -11.0866 (HOMO)
        48                         -0.2654813              -7.2241 (LUMO)
        49                         -0.1599337              -4.3520
        50                          0.0065916               0.1794
        51                          0.0476040               1.2954
        52                          0.0727556               1.9798
       ...                                ...                  ...
        90                          0.7016458              19.0928
      -------------------------------------------------------------
                  HL-Gap            0.1419424 Eh            3.8624 eV
             Fermi-level           -0.3364525 Eh           -9.1553 eV

 SCC (total)                   0 d,  0 h,  0 min,  0.015 sec
 SCC setup                      ...        0 min,  0.000 sec (  0.574%)
 Dispersion                     ...        0 min,  0.000 sec (  1.198%)
 classical contributions        ...        0 min,  0.000 sec (  0.272%)
 integral evaluation            ...        0 min,  0.001 sec (  6.091%)
 iterations                     ...        0 min,  0.005 sec ( 34.114%)
 molecular gradient             ...        0 min,  0.008 sec ( 56.756%)
 printout                       ...        0 min,  0.000 sec (  0.835%)

         :::::::::::::::::::::::::::::::::::::::::::::::::::::
         ::                     SUMMARY                     ::
         :::::::::::::::::::::::::::::::::::::::::::::::::::::
         :: total energy             -51.377191627940 Eh    ::
         :: gradient norm              0.000506896236 Eh/a0 ::
         :: HOMO-LUMO gap              3.862449561037 eV    ::
         ::.................................................::
         :: SCC energy               -52.079623221443 Eh    ::
         :: -> isotropic ES            0.050520856301 Eh    ::
         :: -> anisotropic ES          0.009476049948 Eh    ::
         :: -> anisotropic XC          0.022579460513 Eh    ::
         :: -> dispersion             -0.030678215175 Eh    ::
         :: repulsion energy           0.702431593503 Eh    ::
         :: add. restraining           0.000000000000 Eh    ::
         :: total charge               0.000000000000 e     ::
         :::::::::::::::::::::::::::::::::::::::::::::::::::::

           -------------------------------------------------
          |                Property Printout                |
           -------------------------------------------------

    * Orbital Energies and Occupations

         #    Occupation            Energy/Eh            Energy/eV
      -------------------------------------------------------------
         1        2.0000           -0.7362284             -20.0338
       ...           ...                  ...                  ...
        35        2.0000           -0.4547387             -12.3741
        36        2.0000           -0.4532700             -12.3341
        37        2.0000           -0.4484551             -12.2031
        38        2.0000           -0.4434485             -12.0668
        39        2.0000           -0.4395907             -11.9619
        40        2.0000           -0.4339373             -11.8080
        41        2.0000           -0.4286230             -11.6634
        42        2.0000           -0.4222589             -11.4903
        43        2.0000           -0.4209618             -11.4550
        44        2.0000           -0.4183805             -11.3847
        45        2.0000           -0.4152890             -11.3006
        46        2.0000           -0.4128821             -11.2351
        47        2.0000           -0.4074237             -11.0866 (HOMO)
        48                         -0.2654813              -7.2241 (LUMO)
        49                         -0.1599337              -4.3520
        50                          0.0065916               0.1794
        51                          0.0476040               1.2954
        52                          0.0727556               1.9798
        53                          0.0847485               2.3061
        54                          0.0976929               2.6584
        55                          0.1032947               2.8108
        56                          0.1094747               2.9790
        57                          0.1133068               3.0832
        58                          0.1181068               3.2139
       ...                                ...                  ...
        90                          0.7016458              19.0928
      -------------------------------------------------------------
                  HL-Gap            0.1419424 Eh            3.8624 eV
             Fermi-level           -0.3364525 Eh           -9.1553 eV

     #   Z          covCN         q      C6AA      α(0)
     1   6 C        3.756    -0.106    22.576     6.775
     2   6 C        3.849    -0.010    20.719     6.474
     3   6 C        3.757    -0.106    22.587     6.776
     4   6 C        3.806    -0.064    21.718     6.634
     5   6 C        3.801    -0.059    21.627     6.621
     6   6 C        3.802    -0.058    21.625     6.621
     7   6 C        3.801    -0.060    21.652     6.625
     8   6 C        3.802    -0.059    21.633     6.622
     9   6 C        3.801    -0.065    21.752     6.640
    10   6 C        3.702     0.080    19.403     6.298
    11   8 O        1.704    -0.264    18.380     5.788
    12   6 C        2.727     0.351    21.047     7.511
    13   8 O        0.856    -0.420    22.080     6.300
    14   6 C        2.937    -0.008    28.209     8.711
    15   6 C        3.759    -0.110    22.654     6.786
    16   6 C        2.844    -0.083    30.060     8.985
    17   1 H        0.925     0.033     2.550     2.497
    18   1 H        0.925     0.035     2.520     2.482
    19   1 H        0.925     0.033     2.540     2.492
    20   1 H        0.924     0.026     2.651     2.546
    21   1 H        0.925     0.034     2.532     2.488
    22   1 H        0.925     0.031     2.567     2.506
    23   1 H        0.925     0.035     2.521     2.483
    24   1 H        0.924     0.031     2.570     2.507
    25   1 H        0.924     0.030     2.587     2.515
    26   1 H        0.924     0.029     2.605     2.524
    27   1 H        0.924     0.032     2.562     2.503
    28   1 H        0.924     0.030     2.585     2.514
    29   1 H        0.924     0.031     2.571     2.507
    30   1 H        0.924     0.031     2.572     2.508
    31   1 H        0.924     0.033     2.549     2.497
    32   1 H        0.924     0.037     2.482     2.464
    33   1 H        0.924     0.042     2.428     2.437
    34   1 H        0.924     0.043     2.406     2.426
    35   1 H        0.924     0.049     2.328     2.386
    36   1 H        0.924     0.043     2.410     2.428
    37   1 H        0.924     0.060     2.203     2.321
    38   1 H        0.925     0.069     2.102     2.267
    39   1 H        0.925     0.050     2.324     2.384
    40   1 H        0.925     0.061     2.183     2.310
    41   1 H        0.926     0.061     2.190     2.314
    42   1 H        0.926     0.054     2.272     2.357

 Mol. C6AA /au·bohr⁶  :      13452.136406
 Mol. C8AA /au·bohr⁸  :     290141.271319
 Mol. α(0) /au        :        173.832259


Wiberg/Mayer (AO) data.
largest (>0.10) Wiberg bond orders for each atom

 ---------------------------------------------------------------------------
     #   Z sym  total        # sym  WBO       # sym  WBO       # sym  WBO
 ---------------------------------------------------------------------------
     1   6 C    3.997 --     2 C    1.010    18 H    0.987    17 H    0.986
                            19 H    0.985
     2   6 C    3.996 --     1 C    1.010     3 C    1.008     4 C    0.996
                            20 H    0.969
     3   6 C    3.996 --     2 C    1.008    23 H    0.987    22 H    0.987
                            21 H    0.987
     4   6 C    3.997 --     5 C    1.007     2 C    0.996    24 H    0.977
                            25 H    0.976
     5   6 C    3.997 --     6 C    1.008     4 C    1.007    27 H    0.975
                            26 H    0.975
     6   6 C    3.997 --     5 C    1.008     7 C    1.006    29 H    0.977
                            28 H    0.977
     7   6 C    3.997 --     8 C    1.009     6 C    1.006    30 H    0.977
                            31 H    0.975
     8   6 C    3.996 --     7 C    1.009     9 C    1.006    33 H    0.976
                            32 H    0.974
     9   6 C    3.994 --     8 C    1.006    10 C    1.005    35 H    0.975
                            34 H    0.974
    10   6 C    3.927 --     9 C    1.005    36 H    0.967    37 H    0.963
                            11 O    0.940
    11   8 O    2.310 --    12 C    1.130    10 C    0.940    13 O    0.173
    12   6 C    3.918 --    13 O    1.722    11 O    1.130    14 C    0.990
    13   8 O    2.028 --    12 C    1.722    11 O    0.173
    14   6 C    3.986 --    16 C    1.881    15 C    1.030    12 C    0.990
    15   6 C    3.994 --    14 C    1.030    39 H    0.985    38 H    0.967
                            40 H    0.966
    16   6 C    3.989 --    14 C    1.881    42 H    0.974    41 H    0.973
    17   1 H    0.999 --     1 C    0.986
    18   1 H    0.999 --     1 C    0.987
    19   1 H    0.999 --     1 C    0.985
    20   1 H    0.999 --     2 C    0.969
    21   1 H    0.999 --     3 C    0.987
    22   1 H    0.999 --     3 C    0.987
    23   1 H    0.999 --     3 C    0.987
    24   1 H    0.999 --     4 C    0.977
    25   1 H    0.999 --     4 C    0.976
    26   1 H    0.999 --     5 C    0.975
    27   1 H    0.999 --     5 C    0.975
    28   1 H    0.999 --     6 C    0.977
    29   1 H    0.999 --     6 C    0.977
    30   1 H    0.999 --     7 C    0.977
    31   1 H    0.999 --     7 C    0.975
    32   1 H    0.999 --     8 C    0.974
    33   1 H    0.998 --     8 C    0.976
    34   1 H    0.997 --     9 C    0.974
    35   1 H    0.997 --     9 C    0.975
    36   1 H    0.998 --    10 C    0.967
    37   1 H    0.996 --    10 C    0.963
    38   1 H    0.995 --    15 C    0.967
    39   1 H    0.997 --    15 C    0.985
    40   1 H    0.996 --    15 C    0.966
    41   1 H    0.996 --    16 C    0.973
    42   1 H    0.997 --    16 C    0.974
 ---------------------------------------------------------------------------

Topologies differ in total number of bonds
Writing topology from bond orders to xtbtopo.mol

molecular dipole:
                 x           y           z       tot (Debye)
 q only:        0.464      -0.381      -0.595
   full:        0.430      -0.367      -0.663       2.216
molecular quadrupole (traceless):
                xx          xy          yy          xz          yz          zz
 q only:       -3.393      10.366       3.955       6.318      -3.266      -0.562
  q+dip:       -4.855      10.803       4.683       7.843      -2.500       0.171
   full:       -3.820      10.074       4.325       8.593      -3.667      -0.505

           -------------------------------------------------
          |                Geometry Summary                 |
           -------------------------------------------------

      molecular mass/u    :      226.3555719
   center of mass at/Å    :       -0.7259092       0.2135780      -0.0336169
  moments of inertia/u·Å² :        0.4960411E+03   0.3623742E+04   0.3845562E+04
rotational constants/cm⁻¹ :        0.3398434E-01   0.4651995E-02   0.4383659E-02

 * 39 selected distances

     #   Z          #   Z                                           value/Å
     1   6 C        2   6 C                                       1.5268481
     2   6 C        3   6 C                                       1.5280184
     2   6 C        4   6 C                                       1.5328346 (max)
     4   6 C        5   6 C                                       1.5276309
     5   6 C        6   6 C                                       1.5279360
     6   6 C        7   6 C                                       1.5298468
     7   6 C        8   6 C                                       1.5275992
     8   6 C        9   6 C                                       1.5299828
     9   6 C       10   6 C                                       1.5232040
    10   6 C       11   8 O                                       1.4268232
    11   8 O       12   6 C                                       1.3368435
    12   6 C       13   8 O                                       1.2080415
    14   6 C       16   6 C                                       1.3282557
     1   6 C       17   1 H                                       1.0879186
     1   6 C       18   1 H                                       1.0881308
     1   6 C       19   1 H                                       1.0865934
     2   6 C       20   1 H                                       1.0962797
     3   6 C       21   1 H                                       1.0877416
     3   6 C       22   1 H                                       1.0877802
     3   6 C       23   1 H                                       1.0880885
     4   6 C       24   1 H                                       1.0926951
     4   6 C       25   1 H                                       1.0931155
     5   6 C       26   1 H                                       1.0915417
     5   6 C       27   1 H                                       1.0913114
     6   6 C       28   1 H                                       1.0925739
     6   6 C       29   1 H                                       1.0928438
     7   6 C       30   1 H                                       1.0928888
     7   6 C       31   1 H                                       1.0916372
     8   6 C       32   1 H                                       1.0909568
     8   6 C       33   1 H                                       1.0917534
     9   6 C       34   1 H                                       1.0913628
     9   6 C       35   1 H                                       1.0916493
    10   6 C       36   1 H                                       1.0964725
    10   6 C       37   1 H                                       1.0944059
    15   6 C       38   1 H                                       1.0881192
    15   6 C       39   1 H                                       1.0858297
    15   6 C       40   1 H                                       1.0890291
    16   6 C       41   1 H                                       1.0755616 (min)
    16   6 C       42   1 H                                       1.0774671

 * 3 distinct bonds (by element types)

   Z      Z             #   av. dist./Å        max./Å        min./Å
   1 H    6 C          26     1.0897595     1.0964725     1.0755616
   6 C    6 C          10     1.5082156     1.5328346     1.3282557
   6 C    8 O           3     1.3239027     1.4268232     1.2080415


optimized geometry written to: xtbopt.xyz


           -------------------------------------------------
          | TOTAL ENERGY              -51.377191627940 Eh   |
          | GRADIENT NORM               0.000506896236 Eh/α |
          | HOMO-LUMO GAP               3.862449561037 eV   |
           -------------------------------------------------

------------------------------------------------------------------------
 * finished run on 2025/12/01 at 14:22:07.724     
------------------------------------------------------------------------
 total:
 * wall-time:     0 d,  0 h,  0 min,  0.915 sec
 *  cpu-time:     0 d,  0 h,  0 min, 20.670 sec
 * ratio c/w:    22.594 speedup
 SCF:
 * wall-time:     0 d,  0 h,  0 min,  0.052 sec
 *  cpu-time:     0 d,  0 h,  0 min,  1.159 sec
 * ratio c/w:    22.151 speedup
 ANC optimizer:
 * wall-time:     0 d,  0 h,  0 min,  0.853 sec
 *  cpu-time:     0 d,  0 h,  0 min, 19.314 sec
 * ratio c/w:    22.656 speedup

normal termination of xtb
