      -----------------------------------------------------------      
     |                   =====================                   |     
     |                           x T B                           |     
     |                   =====================                   |     
     |                         S. Grimme                         |     
     |          Mulliken Center for Theoretical Chemistry        |     
     |                    University of Bonn                     |     
      -----------------------------------------------------------      

   * xtb version 6.7.1 (edcfbbe) compiled by 'albert@albert-system' on 2024-07-22

   xtb is free software: you can redistribute it and/or modify it under
   the terms of the GNU Lesser General Public License as published by
   the Free Software Foundation, either version 3 of the License, or
   (at your option) any later version.
   
   xtb is distributed in the hope that it will be useful,
   but WITHOUT ANY WARRANTY; without even the implied warranty of
   MERCHANTABILITY or FITNESS FOR A PARTICULAR PURPOSE.  See the
   GNU Lesser General Public License for more details.
   
   Cite this work as:
   * C. Bannwarth, E. Caldeweyher, S. Ehlert, A. Hansen, P. Pracht,
     J. Seibert, S. Spicher, S. Grimme, WIREs Comput. Mol. Sci., 2020, 11,
     e01493. DOI: 10.1002/wcms.1493
   
   for GFN2-xTB:
   * C. Bannwarth, S. Ehlert and S. Grimme., J. Chem. Theory Comput., 2019,
     15, 1652-1671. DOI: 10.1021/acs.jctc.8b01176
   for GFN1-xTB:
   * S. Grimme, C. Bannwarth, P. Shushkov, J. Chem. Theory Comput., 2017,
     13, 1989-2009. DOI: 10.1021/acs.jctc.7b00118
   for GFN0-xTB:
   * P. Pracht, E. Caldeweyher, S. Ehlert, S. Grimme, ChemRxiv, 2019, preprint.
     DOI: 10.26434/chemrxiv.8326202.v1
   for GFN-FF:
   * S. Spicher and S. Grimme, Angew. Chem. Int. Ed., 2020, 59, 15665-15673.
     DOI: 10.1002/anie.202004239
   
   for ALPB and GBSA implicit solvation:
   * S. Ehlert, M. Stahn, S. Spicher, S. Grimme, J. Chem. Theory Comput.,
     2021, 17, 4250-4261. DOI: 10.1021/acs.jctc.1c00471
   
   for ddCOSMO and CPCM-X implicit solvation:
   * M. Stahn, S. Ehlert, S. Grimme, J. Phys. Chem. A,
     2023, XX, XXXX-XXXX. DOI: 10.1021/acs.jpca.3c04382
   
   for DFT-D4:
   * E. Caldeweyher, C. Bannwarth and S. Grimme, J. Chem. Phys., 2017,
     147, 034112. DOI: 10.1063/1.4993215
   * E. Caldeweyher, S. Ehlert, A. Hansen, H. Neugebauer, S. Spicher,
     C. Bannwarth and S. Grimme, J. Chem. Phys., 2019, 150, 154122.
     DOI: 10.1063/1.5090222
   * E. Caldeweyher, J.-M. Mewes, S. Ehlert and S. Grimme, Phys. Chem. Chem. Phys.
     2020, 22, 8499-8512. DOI: 10.1039/D0CP00502A
   
   for sTDA-xTB:
   * S. Grimme and C. Bannwarth, J. Chem. Phys., 2016, 145, 054103.
     DOI: 10.1063/1.4959605
   
   in the mass-spec context:
   * V. Asgeirsson, C. Bauer and S. Grimme, Chem. Sci., 2017, 8, 4879.
     DOI: 10.1039/c7sc00601b
   * J. Koopman and S. Grimme, ACS Omega 2019, 4, 12, 15120-15133.
     DOI: 10.1021/acsomega.9b02011
   
   for metadynamics refer to:
   * S. Grimme, J. Chem. Theory Comput., 2019, 155, 2847-2862
     DOI: 10.1021/acs.jctc.9b00143
   
   for SPH calculations refer to:
   * S. Spicher and S. Grimme, J. Chem. Theory Comput., 2021, 17, 1701-1714
     DOI: 10.1021/acs.jctc.0c01306
   
   for ONIOM refer to:
   * C. Plett, A. Katbashev, S. Ehlert, S. Grimme, M. Bursch,
     Phys. Chem. Chem. Phys., 2023, 25, 17860-17868. DOI: 10.1039/D3CP02178E
   
   for DIPRO refer to:
   * J. Kohn, N. Gildemeister, S. Grimme, D. Fazzi, A. Hansen,
     J. Chem. Phys., 2023, just accepted.
   
   for PTB refer to:
   * S. Grimme, M. Mueller, A. Hansen, J. Chem. Phys., 2023, 158, 124111.
     DOI: 10.1063/5.0137838
   
   with help from (in alphabetical order)
   P. Atkinson, C. Bannwarth, F. Bohle, G. Brandenburg, E. Caldeweyher
   M. Checinski, S. Dohm, S. Ehlert, S. Ehrlich, I. Gerasimov, C. Hölzer
   A. Katbashev, J. Kohn, J. Koopman, C. Lavigne, S. Lehtola, F. März, M. Müller,
   F. Musil, H. Neugebauer, J. Pisarek, C. Plett, P. Pracht, F. Pultar,
   J. Seibert, P. Shushkov, S. Spicher, M. Stahn, M. Steiner, T. Strunk,
   J. Stückrath, T. Rose, and J. Unsleber
   
 * started run on 2025/12/01 at 14:22:08.630     
   ID    Z sym.   atoms
    1    6 C      1, 3-5, 7, 9, 10
    2    7 N      2
    3    8 O      6, 8
    4    1 H      11-23

           -------------------------------------------------
          |                Calculation Setup                |
           -------------------------------------------------

          program call               : xtb pipeline_data/3_conformer_xyz/acrylates/rdkit/DPBJAVGHACCNRL-UHFFFAOYSA-N_conf36.xyz --opt --gfn 2-xTB --iterations 250
          coordinate file            : pipeline_data/3_conformer_xyz/acrylates/rdkit/DPBJAVGHACCNRL-UHFFFAOYSA-N_conf36.xyz
          omp threads                :                    24

########################################################################
[WARNING] Please study the warnings concerning your input carefully
-1- readin_getIntValue: could not parse '2-xTB'
########################################################################

           -------------------------------------------------
          |                 G F N 2 - x T B                 |
           -------------------------------------------------

        Reference                      10.1021/acs.jctc.8b01176
      * Hamiltonian:
        H0-scaling (s, p, d)           1.850000    2.230000    2.230000
        zeta-weighting                 0.500000
      * Dispersion:
        s8                             2.700000
        a1                             0.520000
        a2                             5.000000
        s9                             5.000000
      * Repulsion:
        kExp                           1.500000    1.000000
        rExp                           1.000000
      * Coulomb:
        alpha                          2.000000
        third order                    shell-resolved
        anisotropic                    true
        a3                             3.000000
        a5                             4.000000
        cn-shift                       1.200000
        cn-exp                         4.000000
        max-rad                        5.000000

q/qsh data taken from xtbrestart
CAMM data taken from xtbrestart

          ...................................................
          :                      SETUP                      :
          :.................................................:
          :  # basis functions                  53          :
          :  # atomic orbitals                  53          :
          :  # shells                           33          :
          :  # electrons                        58          :
          :  max. iterations                   250          :
          :  Hamiltonian                  GFN2-xTB          :
          :  restarted?                       true          :
          :  GBSA solvation                  false          :
          :  PC potential                    false          :
          :  electronic temp.          300.0000000     K    :
          :  accuracy                    1.0000000          :
          :  -> integral cutoff          0.2500000E+02      :
          :  -> integral neglect         0.1000000E-07      :
          :  -> SCF convergence          0.1000000E-05 Eh   :
          :  -> wf. convergence          0.1000000E-03 e    :
          :  Broyden damping             0.4000000          :
          :  net charge                          0          :
          :  unpaired electrons                  0          :
          ...................................................

 iter      E             dE          RMSdq      gap      omega  full diag
   1    -32.9703036 -0.329703E+02  0.460E+00    2.38       0.0  T
   2    -32.9769505 -0.664688E-02  0.272E+00    1.95       1.0  T
   3    -32.9679199  0.903060E-02  0.812E-01    1.93       1.0  T
   4    -32.9789727 -0.110528E-01  0.201E-01    1.81       1.0  T
   5    -32.9793574 -0.384733E-03  0.992E-02    1.82       1.0  T
   6    -32.9793864 -0.289602E-04  0.371E-02    1.82       1.0  T
   7    -32.9793985 -0.120584E-04  0.115E-02    1.81       1.8  T
   8    -32.9793988 -0.345933E-06  0.372E-03    1.81       5.6  T
   9    -32.9793988 -0.360006E-07  0.124E-03    1.81      16.8  T
  10    -32.9793988 -0.204467E-08  0.393E-04    1.81      53.1  T
  11    -32.9793988 -0.340663E-09  0.109E-04    1.81     190.5  T

   *** convergence criteria satisfied after 11 iterations ***

         #    Occupation            Energy/Eh            Energy/eV
      -------------------------------------------------------------
         1        2.0000           -0.7302932             -19.8723
       ...           ...                  ...                  ...
        23        2.0000           -0.4578684             -12.4592
        24        2.0000           -0.4571361             -12.4393
        25        2.0000           -0.4500231             -12.2458
        26        2.0000           -0.4388945             -11.9429
        27        2.0000           -0.4351396             -11.8408
        28        2.0000           -0.4162821             -11.3276
        29        2.0000           -0.3559786              -9.6867 (HOMO)
        30                         -0.2895823              -7.8799 (LUMO)
        31                         -0.1775026              -4.8301
        32                         -0.0370064              -1.0070
        33                          0.0472761               1.2864
        34                          0.0692984               1.8857
       ...                                ...                  ...
        53                          0.5942925              16.1715
      -------------------------------------------------------------
                  HL-Gap            0.0663963 Eh            1.8067 eV
             Fermi-level           -0.3227804 Eh           -8.7833 eV

 SCC (total)                   0 d,  0 h,  0 min,  0.023 sec
 SCC setup                      ...        0 min,  0.000 sec (  1.038%)
 Dispersion                     ...        0 min,  0.000 sec (  0.901%)
 classical contributions        ...        0 min,  0.000 sec (  0.220%)
 integral evaluation            ...        0 min,  0.001 sec (  3.173%)
 iterations                     ...        0 min,  0.019 sec ( 85.130%)
 molecular gradient             ...        0 min,  0.002 sec (  8.703%)
 printout                       ...        0 min,  0.000 sec (  0.708%)

         :::::::::::::::::::::::::::::::::::::::::::::::::::::
         ::                     SUMMARY                     ::
         :::::::::::::::::::::::::::::::::::::::::::::::::::::
         :: total energy             -32.621098182747 Eh    ::
         :: gradient norm              0.117662791471 Eh/a0 ::
         :: HOMO-LUMO gap              1.806735588611 eV    ::
         ::.................................................::
         :: SCC energy               -32.979488445372 Eh    ::
         :: -> isotropic ES            0.052379479193 Eh    ::
         :: -> anisotropic ES          0.003022343151 Eh    ::
         :: -> anisotropic XC          0.017598462489 Eh    ::
         :: -> dispersion             -0.014901256771 Eh    ::
         :: repulsion energy           0.358390262626 Eh    ::
         :: add. restraining           0.000000000000 Eh    ::
         :: total charge               0.000000000000 e     ::
         :::::::::::::::::::::::::::::::::::::::::::::::::::::

      ----------------------------------------------------------- 
     |                   =====================                   |
     |                        A N C O P T                        |
     |                   =====================                   |
     |               Approximate Normal Coordinate               |
     |                Rational Function Optimizer                |
      ----------------------------------------------------------- 
      ----------------------------------------------------------- 
     |                   =====================                   |
     |                        A N C O P T                        |
     |                   =====================                   |
     |               Approximate Normal Coordinate               |
     |                Rational Function Optimizer                |
      ----------------------------------------------------------- 

          ...................................................
          :                      SETUP                      :
          :.................................................:
          :   optimization level            normal          :
          :   max. optcycles                   200          :
          :   ANC micro-cycles                  20          :
          :   degrees of freedom                63          :
          :.................................................:
          :   RF solver                   davidson          :
          :   write xtbopt.log                true          :
          :   linear?                        false          :
          :   energy convergence         0.5000000E-05 Eh   :
          :   grad. convergence          0.1000000E-02 Eh/α :
          :   maxmium RF displ.          1.0000000          :
          :   Hlow (freq-cutoff)         0.1000000E-01      :
          :   Hmax (freq-cutoff)         5.0000000          :
          :   S6 in model hess.         20.0000000          :
          ...................................................

generating ANC from exact Hessian ...
Using Lindh-Hessian (1995)
 Shifting diagonal of input Hessian by   9.152526721274820E-003
 Lowest  eigenvalues of input Hessian
    0.000000    0.000000    0.000000    0.000000    0.000000    0.000000
    0.010000    0.010579    0.010728    0.013612    0.014433    0.017565
    0.018510    0.019208    0.020579    0.021483    0.027900    0.031177
 Highest eigenvalues
    1.411809    1.467602    1.511783    1.678991    1.936607    2.108609
 

........................................................................
.............................. CYCLE    1 ..............................
........................................................................

 iter      E             dE          RMSdq      gap      omega  full diag
   1    -32.9793988 -0.329794E+02  0.499E-05    1.81       0.0  T
   2    -32.9793988 -0.349587E-11  0.318E-05    1.81     655.5  T
   3    -32.9793988  0.632383E-12  0.146E-05    1.81    1427.0  T
     SCC iter.                  ...        0 min,  0.003 sec
     gradient                   ...        0 min,  0.001 sec
 * total energy  :   -32.6210982 Eh     change       -0.2496137E-10 Eh
   gradient norm :     0.1176631 Eh/α   predicted     0.0000000E+00 (-100.00%)
   displ. norm   :     0.3269361 α      lambda       -0.1949400E-01
   maximum displ.:     0.1548797 α      in ANC's #15, #14, #38, ...

........................................................................
.............................. CYCLE    2 ..............................
........................................................................

 iter      E             dE          RMSdq      gap      omega  full diag
   1    -33.0142588 -0.330143E+02  0.267E-01    2.06       0.0  T
   2    -33.0145088 -0.249980E-03  0.174E-01    2.03       1.0  T
   3    -33.0144965  0.122724E-04  0.109E-01    2.02       1.0  T
   4    -33.0145980 -0.101538E-03  0.372E-02    2.02       1.0  T
   5    -33.0146181 -0.200816E-04  0.794E-03    2.02       2.6  T
   6    -33.0146185 -0.357190E-06  0.429E-03    2.02       4.9  T
   7    -33.0146185 -0.396481E-07  0.126E-03    2.02      16.5  T
   8    -33.0146185 -0.290717E-08  0.507E-04    2.02      41.1  T
   9    -33.0146185 -0.649969E-09  0.143E-04    2.02     146.0  T
     SCC iter.                  ...        0 min,  0.008 sec
     gradient                   ...        0 min,  0.002 sec
 * total energy  :   -32.6344768 Eh     change       -0.1337859E-01 Eh
   gradient norm :     0.0432955 Eh/α   predicted    -0.1079759E-01 ( -19.29%)
   displ. norm   :     0.3445319 α      lambda       -0.5845470E-02
   maximum displ.:     0.1469570 α      in ANC's #6, #15, #14, ...

........................................................................
.............................. CYCLE    3 ..............................
........................................................................

 iter      E             dE          RMSdq      gap      omega  full diag
   1    -33.0293436 -0.330293E+02  0.151E-01    2.16       0.0  T
   2    -33.0294288 -0.851847E-04  0.102E-01    2.15       1.0  T
   3    -33.0294321 -0.332044E-05  0.638E-02    2.14       1.0  T
   4    -33.0294639 -0.318354E-04  0.204E-02    2.14       1.0  T
   5    -33.0294694 -0.541727E-05  0.444E-03    2.14       4.7  T
   6    -33.0294695 -0.145465E-06  0.192E-03    2.14      10.9  T
   7    -33.0294695 -0.911837E-08  0.517E-04    2.14      40.3  T
   8    -33.0294695 -0.393698E-09  0.228E-04    2.14      91.5  T
     SCC iter.                  ...        0 min,  0.007 sec
     gradient                   ...        0 min,  0.002 sec
 * total energy  :   -32.6381471 Eh     change       -0.3670355E-02 Eh
   gradient norm :     0.0134465 Eh/α   predicted    -0.3271349E-02 ( -10.87%)
   displ. norm   :     0.3337696 α      lambda       -0.1861164E-02
   maximum displ.:     0.1744970 α      in ANC's #6, #7, #8, ...

........................................................................
.............................. CYCLE    4 ..............................
........................................................................

 iter      E             dE          RMSdq      gap      omega  full diag
   1    -33.0292261 -0.330292E+02  0.107E-01    2.15       0.0  T
   2    -33.0292327 -0.662768E-05  0.651E-02    2.16       1.0  T
   3    -33.0292117  0.210238E-04  0.376E-02    2.16       1.0  T
   4    -33.0292367 -0.249614E-04  0.519E-03    2.16       4.0  T
   5    -33.0292370 -0.322857E-06  0.171E-03    2.16      12.2  T
   6    -33.0292370 -0.296652E-08  0.619E-04    2.16      33.7  T
   7    -33.0292370 -0.208236E-08  0.228E-04    2.16      91.4  T
     SCC iter.                  ...        0 min,  0.006 sec
     gradient                   ...        0 min,  0.002 sec
 * total energy  :   -32.6394617 Eh     change       -0.1314528E-02 Eh
   gradient norm :     0.0115382 Eh/α   predicted    -0.1034267E-02 ( -21.32%)
   displ. norm   :     0.4130371 α      lambda       -0.1483077E-02
   maximum displ.:     0.2228284 α      in ANC's #7, #6, #8, ...

........................................................................
.............................. CYCLE    5 ..............................
........................................................................

 iter      E             dE          RMSdq      gap      omega  full diag
   1    -33.0270382 -0.330270E+02  0.127E-01    2.17       0.0  T
   2    -33.0270438 -0.563874E-05  0.757E-02    2.18       1.0  T
   3    -33.0270348  0.903792E-05  0.257E-02    2.17       1.0  T
   4    -33.0270451 -0.102938E-04  0.673E-03    2.18       3.1  T
   5    -33.0270458 -0.708779E-06  0.225E-03    2.18       9.3  T
   6    -33.0270458 -0.136741E-07  0.958E-04    2.18      21.8  T
   7    -33.0270458 -0.351689E-08  0.284E-04    2.18      73.5  T
     SCC iter.                  ...        0 min,  0.006 sec
     gradient                   ...        0 min,  0.001 sec
 * total energy  :   -32.6402801 Eh     change       -0.8184820E-03 Eh
   gradient norm :     0.0143376 Eh/α   predicted    -0.8681099E-03 (   6.06%)
   displ. norm   :     0.2333043 α      lambda       -0.8355327E-03
   maximum displ.:     0.1283888 α      in ANC's #7, #6, #8, ...

........................................................................
.............................. CYCLE    6 ..............................
........................................................................

 iter      E             dE          RMSdq      gap      omega  full diag
   1    -33.0293965 -0.330294E+02  0.855E-02    2.17       0.0  T
   2    -33.0293997 -0.324771E-05  0.512E-02    2.18       1.0  T
   3    -33.0293992  0.529752E-06  0.832E-03    2.18       2.5  T
   4    -33.0293999 -0.740196E-06  0.330E-03    2.18       6.3  T
   5    -33.0294001 -0.176360E-06  0.164E-03    2.18      12.7  T
   6    -33.0294001 -0.237925E-07  0.686E-04    2.18      30.4  T
   7    -33.0294001 -0.115155E-08  0.161E-04    2.18     129.3  T
     SCC iter.                  ...        0 min,  0.006 sec
     gradient                   ...        0 min,  0.002 sec
 * total energy  :   -32.6408429 Eh     change       -0.5628072E-03 Eh
   gradient norm :     0.0104324 Eh/α   predicted    -0.4405202E-03 ( -21.73%)
   displ. norm   :     0.2226785 α      lambda       -0.6391139E-03
   maximum displ.:     0.1381503 α      in ANC's #7, #4, #8, ...

........................................................................
.............................. CYCLE    7 ..............................
........................................................................

 iter      E             dE          RMSdq      gap      omega  full diag
   1    -33.0336820 -0.330337E+02  0.751E-02    2.18       0.0  T
   2    -33.0336858 -0.383935E-05  0.445E-02    2.19       1.0  T
   3    -33.0336837  0.212171E-05  0.128E-02    2.19       1.6  T
   4    -33.0336858 -0.206407E-05  0.543E-03    2.19       3.8  T
   5    -33.0336863 -0.570522E-06  0.122E-03    2.19      17.1  T
   6    -33.0336863 -0.326894E-08  0.581E-04    2.19      35.9  T
   7    -33.0336863 -0.129889E-08  0.145E-04    2.19     144.3  T
     SCC iter.                  ...        0 min,  0.006 sec
     gradient                   ...        0 min,  0.002 sec
 * total energy  :   -32.6413034 Eh     change       -0.4604462E-03 Eh
   gradient norm :     0.0077194 Eh/α   predicted    -0.3354025E-03 ( -27.16%)
   displ. norm   :     0.3851932 α      lambda       -0.6369610E-03
   maximum displ.:     0.2794574 α      in ANC's #7, #4, #6, ...

........................................................................
.............................. CYCLE    8 ..............................
........................................................................

 iter      E             dE          RMSdq      gap      omega  full diag
   1    -33.0321931 -0.330322E+02  0.113E-01    2.20       0.0  T
   2    -33.0321970 -0.392643E-05  0.673E-02    2.20       1.0  T
   3    -33.0321961  0.915266E-06  0.926E-03    2.20       2.3  T
   4    -33.0321970 -0.870406E-06  0.531E-03    2.20       3.9  T
   5    -33.0321975 -0.523693E-06  0.144E-03    2.20      14.5  T
   6    -33.0321975 -0.340603E-08  0.603E-04    2.20      34.6  T
   7    -33.0321975 -0.873627E-09  0.144E-04    2.20     145.0  T
     SCC iter.                  ...        0 min,  0.006 sec
     gradient                   ...        0 min,  0.002 sec
 * total energy  :   -32.6416946 Eh     change       -0.3912531E-03 Eh
   gradient norm :     0.0120133 Eh/α   predicted    -0.3657423E-03 (  -6.52%)
   displ. norm   :     0.2874110 α      lambda       -0.6292554E-03
   maximum displ.:     0.1767371 α      in ANC's #7, #4, #3, ...

........................................................................
.............................. CYCLE    9 ..............................
........................................................................

 iter      E             dE          RMSdq      gap      omega  full diag
   1    -33.0349124 -0.330349E+02  0.112E-01    2.21       0.0  T
   2    -33.0349156 -0.318885E-05  0.660E-02    2.20       1.0  T
   3    -33.0349143  0.135015E-05  0.105E-02    2.20       2.0  T
   4    -33.0349157 -0.146376E-05  0.513E-03    2.20       4.1  T
   5    -33.0349162 -0.433509E-06  0.153E-03    2.20      13.6  T
   6    -33.0349162 -0.143812E-08  0.321E-04    2.20      65.0  T
   7    -33.0349162 -0.279293E-09  0.127E-04    2.20     164.6  T
     SCC iter.                  ...        0 min,  0.006 sec
     gradient                   ...        0 min,  0.002 sec
 * total energy  :   -32.6420823 Eh     change       -0.3876303E-03 Eh
   gradient norm :     0.0078713 Eh/α   predicted    -0.3406790E-03 ( -12.11%)
   displ. norm   :     0.3016854 α      lambda       -0.3346414E-03
   maximum displ.:     0.2028029 α      in ANC's #7, #4, #1, ...

........................................................................
.............................. CYCLE   10 ..............................
........................................................................

 iter      E             dE          RMSdq      gap      omega  full diag
   1    -33.0326601 -0.330327E+02  0.121E-01    2.21       0.0  T
   2    -33.0326624 -0.227568E-05  0.715E-02    2.21       1.0  T
   3    -33.0326624 -0.402611E-08  0.548E-03    2.21       3.8  T
   4    -33.0326626 -0.261926E-06  0.299E-03    2.21       7.0  T
   5    -33.0326627 -0.114753E-06  0.155E-03    2.21      13.5  T
   6    -33.0326628 -0.801311E-08  0.490E-04    2.21      42.6  T
   7    -33.0326628 -0.192122E-08  0.114E-04    2.21     182.8  T
     SCC iter.                  ...        0 min,  0.009 sec
     gradient                   ...        0 min,  0.005 sec
 * total energy  :   -32.6422819 Eh     change       -0.1996328E-03 Eh
   gradient norm :     0.0090531 Eh/α   predicted    -0.1825585E-03 (  -8.55%)
   displ. norm   :     0.1660026 α      lambda       -0.2404830E-03
   maximum displ.:     0.0985568 α      in ANC's #7, #4, #3, ...

........................................................................
.............................. CYCLE   11 ..............................
........................................................................

 iter      E             dE          RMSdq      gap      omega  full diag
   1    -33.0340299 -0.330340E+02  0.758E-02    2.23       0.0  T
   2    -33.0340320 -0.211183E-05  0.449E-02    2.22       1.0  T
   3    -33.0340299  0.210576E-05  0.113E-02    2.22       1.8  T
   4    -33.0340322 -0.230315E-05  0.378E-03    2.22       5.5  T
   5    -33.0340325 -0.243078E-06  0.118E-03    2.22      17.7  T
   6    -33.0340325 -0.769464E-08  0.592E-04    2.22      35.2  T
   7    -33.0340325 -0.522355E-09  0.130E-04    2.22     160.5  T
     SCC iter.                  ...        0 min,  0.012 sec
     gradient                   ...        0 min,  0.001 sec
 * total energy  :   -32.6424323 Eh     change       -0.1503468E-03 Eh
   gradient norm :     0.0047985 Eh/α   predicted    -0.1235564E-03 ( -17.82%)
   displ. norm   :     0.1660116 α      lambda       -0.1165204E-03
   maximum displ.:     0.0971550 α      in ANC's #7, #4, #2, ...

........................................................................
.............................. CYCLE   12 ..............................
........................................................................

 iter      E             dE          RMSdq      gap      omega  full diag
   1    -33.0339447 -0.330339E+02  0.727E-02    2.23       0.0  T
   2    -33.0339452 -0.501346E-06  0.429E-02    2.24       1.0  T
   3    -33.0339450  0.148404E-06  0.402E-03    2.24       5.2  T
   4    -33.0339453 -0.255900E-06  0.189E-03    2.24      11.0  T
   5    -33.0339453 -0.454427E-07  0.877E-04    2.24      23.8  T
   6    -33.0339453 -0.205999E-08  0.258E-04    2.24      80.9  T
     SCC iter.                  ...        0 min,  0.009 sec
     gradient                   ...        0 min,  0.005 sec
 * total energy  :   -32.6425111 Eh     change       -0.7888952E-04 Eh
   gradient norm :     0.0047351 Eh/α   predicted    -0.5987184E-04 ( -24.11%)
   displ. norm   :     0.1415140 α      lambda       -0.1074013E-03
   maximum displ.:     0.0798242 α      in ANC's #4, #7, #2, ...

........................................................................
.............................. CYCLE   13 ..............................
........................................................................

 iter      E             dE          RMSdq      gap      omega  full diag
   1    -33.0348461 -0.330348E+02  0.760E-02    2.23       0.0  T
   2    -33.0348468 -0.679749E-06  0.447E-02    2.24       1.0  T
   3    -33.0348468 -0.253502E-07  0.326E-03    2.24       6.4  T
   4    -33.0348469 -0.990822E-07  0.149E-03    2.24      14.0  T
   5    -33.0348469 -0.172557E-07  0.914E-04    2.24      22.8  T
   6    -33.0348469 -0.448182E-08  0.306E-04    2.24      68.2  T
     SCC iter.                  ...        0 min,  0.008 sec
     gradient                   ...        0 min,  0.005 sec
 * total energy  :   -32.6425766 Eh     change       -0.6541103E-04 Eh
   gradient norm :     0.0038050 Eh/α   predicted    -0.5477803E-04 ( -16.26%)
   displ. norm   :     0.1411688 α      lambda       -0.5873772E-04
   maximum displ.:     0.0803886 α      in ANC's #4, #7, #5, ...

........................................................................
.............................. CYCLE   14 ..............................
........................................................................

 iter      E             dE          RMSdq      gap      omega  full diag
   1    -33.0343147 -0.330343E+02  0.671E-02    2.24       0.0  T
   2    -33.0343151 -0.425326E-06  0.396E-02    2.24       1.0  T
   3    -33.0343150  0.155283E-06  0.374E-03    2.24       5.6  T
   4    -33.0343152 -0.204314E-06  0.181E-03    2.24      11.5  T
   5    -33.0343152 -0.518300E-07  0.657E-04    2.24      31.7  T
   6    -33.0343152 -0.559886E-09  0.179E-04    2.24     116.7  T
     SCC iter.                  ...        0 min,  0.008 sec
     gradient                   ...        0 min,  0.005 sec
 * total energy  :   -32.6426139 Eh     change       -0.3730093E-04 Eh
   gradient norm :     0.0039768 Eh/α   predicted    -0.2995896E-04 ( -19.68%)
   displ. norm   :     0.1270096 α      lambda       -0.8035635E-04
   maximum displ.:     0.0732016 α      in ANC's #4, #2, #5, ...

........................................................................
.............................. CYCLE   15 ..............................
........................................................................

 iter      E             dE          RMSdq      gap      omega  full diag
   1    -33.0371329 -0.330371E+02  0.790E-02    2.23       0.0  T
   2    -33.0371337 -0.853143E-06  0.465E-02    2.23       1.0  T
   3    -33.0371334  0.318957E-06  0.529E-03    2.23       3.9  T
   4    -33.0371338 -0.390003E-06  0.251E-03    2.23       8.3  T
   5    -33.0371339 -0.101962E-06  0.859E-04    2.23      24.3  T
   6    -33.0371339 -0.869221E-09  0.181E-04    2.23     115.4  T
     SCC iter.                  ...        0 min,  0.005 sec
     gradient                   ...        0 min,  0.001 sec
 * total energy  :   -32.6426393 Eh     change       -0.2542562E-04 Eh
   gradient norm :     0.0059281 Eh/α   predicted    -0.4082966E-04 (  60.58%)
   displ. norm   :     0.1413940 α      lambda       -0.8953776E-04
   maximum displ.:     0.0859944 α      in ANC's #4, #7, #2, ...

........................................................................
.............................. CYCLE   16 ..............................
........................................................................

 iter      E             dE          RMSdq      gap      omega  full diag
   1    -33.0350451 -0.330350E+02  0.811E-02    2.22       0.0  T
   2    -33.0350461 -0.975545E-06  0.478E-02    2.22       1.0  T
   3    -33.0350459  0.170056E-06  0.453E-03    2.22       4.6  T
   4    -33.0350462 -0.263009E-06  0.236E-03    2.22       8.8  T
   5    -33.0350462 -0.878560E-07  0.930E-04    2.22      22.4  T
   6    -33.0350462 -0.223604E-08  0.395E-04    2.22      52.8  T
     SCC iter.                  ...        0 min,  0.005 sec
     gradient                   ...        0 min,  0.002 sec
 * total energy  :   -32.6426876 Eh     change       -0.4835804E-04 Eh
   gradient norm :     0.0047377 Eh/α   predicted    -0.4566488E-04 (  -5.57%)
   displ. norm   :     0.0489781 α      lambda       -0.5524962E-04
   maximum displ.:     0.0284922 α      in ANC's #4, #6, #2, ...

........................................................................
.............................. CYCLE   17 ..............................
........................................................................

 iter      E             dE          RMSdq      gap      omega  full diag
   1    -33.0356538 -0.330357E+02  0.270E-02    2.23       0.0  T
   2    -33.0356542 -0.341316E-06  0.159E-02    2.23       1.3  T
   3    -33.0356539  0.241893E-06  0.393E-03    2.22       5.3  T
   4    -33.0356542 -0.256944E-06  0.144E-03    2.22      14.4  T
   5    -33.0356542 -0.370550E-07  0.364E-04    2.22      57.3  T
   6    -33.0356542 -0.536957E-09  0.182E-04    2.22     114.3  T
     SCC iter.                  ...        0 min,  0.005 sec
     gradient                   ...        0 min,  0.002 sec
 * total energy  :   -32.6427279 Eh     change       -0.4024841E-04 Eh
   gradient norm :     0.0029361 Eh/α   predicted    -0.2769314E-04 ( -31.19%)
   displ. norm   :     0.1906150 α      lambda       -0.9371187E-04
   maximum displ.:     0.1172173 α      in ANC's #4, #2, #6, ...

........................................................................
.............................. CYCLE   18 ..............................
........................................................................

 iter      E             dE          RMSdq      gap      omega  full diag
   1    -33.0347772 -0.330348E+02  0.112E-01    2.22       0.0  T
   2    -33.0347780 -0.783870E-06  0.659E-02    2.22       1.0  T
   3    -33.0347781 -0.129631E-06  0.343E-03    2.22       6.1  T
   4    -33.0347782 -0.832822E-07  0.205E-03    2.22      10.2  T
   5    -33.0347783 -0.349714E-07  0.116E-03    2.22      18.0  T
   6    -33.0347783 -0.685955E-08  0.325E-04    2.22      64.2  T
   7    -33.0347783 -0.645471E-09  0.940E-05    2.22     221.8  T
     SCC iter.                  ...        0 min,  0.006 sec
     gradient                   ...        0 min,  0.002 sec
 * total energy  :   -32.6427881 Eh     change       -0.6020736E-04 Eh
   gradient norm :     0.0039253 Eh/α   predicted    -0.4856025E-04 ( -19.35%)
   displ. norm   :     0.1692318 α      lambda       -0.1043419E-03
   maximum displ.:     0.0782905 α      in ANC's #7, #4, #8, ...

........................................................................
.............................. CYCLE   19 ..............................
........................................................................

 iter      E             dE          RMSdq      gap      omega  full diag
   1    -33.0368235 -0.330368E+02  0.758E-02    2.23       0.0  T
   2    -33.0368258 -0.231129E-05  0.447E-02    2.22       1.0  T
   3    -33.0368250  0.863784E-06  0.823E-03    2.22       2.5  T
   4    -33.0368258 -0.832904E-06  0.398E-03    2.22       5.2  T
   5    -33.0368261 -0.296465E-06  0.964E-04    2.22      21.6  T
   6    -33.0368261 -0.112395E-08  0.442E-04    2.22      47.2  T
     SCC iter.                  ...        0 min,  0.004 sec
     gradient                   ...        0 min,  0.002 sec
 * total energy  :   -32.6428156 Eh     change       -0.2752312E-04 Eh
   gradient norm :     0.0068054 Eh/α   predicted    -0.5367179E-04 (  95.01%)
   displ. norm   :     0.1800487 α      lambda       -0.9401287E-04
   maximum displ.:     0.1154898 α      in ANC's #4, #2, #6, ...

........................................................................
.............................. CYCLE   20 ..............................
........................................................................

 iter      E             dE          RMSdq      gap      omega  full diag
   1    -33.0346940 -0.330347E+02  0.100E-01    2.22       0.0  T
   2    -33.0346953 -0.130685E-05  0.589E-02    2.22       1.0  T
   3    -33.0346949  0.391328E-06  0.622E-03    2.22       3.4  T
   4    -33.0346955 -0.553411E-06  0.298E-03    2.22       7.0  T
   5    -33.0346956 -0.131187E-06  0.120E-03    2.22      17.4  T
   6    -33.0346956 -0.214772E-08  0.418E-04    2.22      49.9  T
   7    -33.0346956 -0.887468E-09  0.984E-05    2.22     211.9  T
     SCC iter.                  ...        0 min,  0.005 sec
     gradient                   ...        0 min,  0.002 sec
 * total energy  :   -32.6428659 Eh     change       -0.5029989E-04 Eh
   gradient norm :     0.0035911 Eh/α   predicted    -0.4853424E-04 (  -3.51%)
   displ. norm   :     0.0364217 α      lambda       -0.4123135E-04
   maximum displ.:     0.0158478 α      in ANC's #5, #7, #14, ...
 * RMSD in coord.:     0.6841755 α      energy gain  -0.2176773E-01 Eh

generating ANC from exact Hessian ...
Using Lindh-Hessian (1995)
 Shifting diagonal of input Hessian by   9.106160505978199E-003
 Lowest  eigenvalues of input Hessian
    0.000000    0.000000    0.000000    0.000000    0.000000    0.000000
    0.010000    0.010563    0.010796    0.013702    0.015000    0.018151
    0.019117    0.019478    0.021408    0.022960    0.030034    0.031264
 Highest eigenvalues
    1.449255    1.489314    1.503360    1.755173    2.025616    2.388689
 

........................................................................
.............................. CYCLE   21 ..............................
........................................................................

 iter      E             dE          RMSdq      gap      omega  full diag
   1    -33.0357394 -0.330357E+02  0.237E-02    2.22       0.0  T
   2    -33.0357400 -0.573485E-06  0.137E-02    2.22       1.5  T
   3    -33.0357400  0.164538E-08  0.319E-03    2.22       6.5  T
   4    -33.0357400 -0.218363E-07  0.992E-04    2.22      21.0  T
   5    -33.0357401 -0.128410E-07  0.402E-04    2.22      51.9  T
     SCC iter.                  ...        0 min,  0.004 sec
     gradient                   ...        0 min,  0.002 sec
 * total energy  :   -32.6428838 Eh     change       -0.1786220E-04 Eh
   gradient norm :     0.0027581 Eh/α   predicted     0.0000000E+00 (-100.00%)
   displ. norm   :     0.0164546 α      lambda       -0.1099086E-04
   maximum displ.:     0.0103253 α      in ANC's #3, #7, #11, ...

........................................................................
.............................. CYCLE   22 ..............................
........................................................................

 iter      E             dE          RMSdq      gap      omega  full diag
   1    -33.0358311 -0.330358E+02  0.977E-03    2.23       0.0  T
   2    -33.0358312 -0.108572E-06  0.577E-03    2.23       3.6  T
   3    -33.0358312  0.325946E-07  0.193E-03    2.23      10.8  T
   4    -33.0358312 -0.404343E-07  0.756E-04    2.22      27.6  T
   5    -33.0358312 -0.885068E-08  0.233E-04    2.22      89.5  T
     SCC iter.                  ...        0 min,  0.004 sec
     gradient                   ...        0 min,  0.002 sec
 * total energy  :   -32.6428926 Eh     change       -0.8870015E-05 Eh
   gradient norm :     0.0007873 Eh/α   predicted    -0.6486435E-05 ( -26.87%)
   displ. norm   :     0.0439995 α      lambda       -0.8022337E-05
   maximum displ.:     0.0314972 α      in ANC's #3, #7, #5, ...

........................................................................
.............................. CYCLE   23 ..............................
........................................................................

 iter      E             dE          RMSdq      gap      omega  full diag
   1    -33.0358296 -0.330358E+02  0.261E-02    2.23       0.0  T
   2    -33.0358298 -0.134078E-06  0.154E-02    2.23       1.4  T
   3    -33.0358297  0.588300E-07  0.223E-03    2.23       9.4  T
   4    -33.0358298 -0.829172E-07  0.942E-04    2.23      22.1  T
   5    -33.0358298 -0.104834E-07  0.416E-04    2.23      50.1  T
     SCC iter.                  ...        0 min,  0.004 sec
     gradient                   ...        0 min,  0.002 sec
 * total energy  :   -32.6428996 Eh     change       -0.6913581E-05 Eh
   gradient norm :     0.0016484 Eh/α   predicted    -0.4017956E-05 ( -41.88%)
   displ. norm   :     0.0420775 α      lambda       -0.5353420E-05
   maximum displ.:     0.0302601 α      in ANC's #3, #7, #2, ...

........................................................................
.............................. CYCLE   24 ..............................
........................................................................

 iter      E             dE          RMSdq      gap      omega  full diag
   1    -33.0357364 -0.330357E+02  0.244E-02    2.23       0.0  T
   2    -33.0357364 -0.432838E-07  0.144E-02    2.23       1.4  T
   3    -33.0357365 -0.167380E-07  0.739E-04    2.23      28.2  T
   4    -33.0357365 -0.102431E-08  0.479E-04    2.23      43.5  T
     SCC iter.                  ...        0 min,  0.003 sec
     gradient                   ...        0 min,  0.001 sec
 * total energy  :   -32.6429063 Eh     change       -0.6777708E-05 Eh
   gradient norm :     0.0014016 Eh/α   predicted    -0.2703295E-05 ( -60.11%)
   displ. norm   :     0.0901535 α      lambda       -0.1110983E-04
   maximum displ.:     0.0638837 α      in ANC's #3, #2, #7, ...

........................................................................
.............................. CYCLE   25 ..............................
........................................................................

 iter      E             dE          RMSdq      gap      omega  full diag
   1    -33.0355720 -0.330356E+02  0.523E-02    2.23       0.0  T
   2    -33.0355722 -0.182582E-06  0.309E-02    2.23       1.0  T
   3    -33.0355722 -0.609969E-07  0.175E-03    2.23      11.9  T
   4    -33.0355722 -0.188002E-07  0.102E-03    2.23      20.5  T
   5    -33.0355722 -0.102307E-08  0.629E-04    2.23      33.1  T
   6    -33.0355722 -0.283507E-08  0.204E-04    2.23     102.2  T
     SCC iter.                  ...        0 min,  0.005 sec
     gradient                   ...        0 min,  0.002 sec
 * total energy  :   -32.6429171 Eh     change       -0.1080461E-04 Eh
   gradient norm :     0.0011626 Eh/α   predicted    -0.5575352E-05 ( -48.40%)
   displ. norm   :     0.0784009 α      lambda       -0.7869691E-05
   maximum displ.:     0.0582221 α      in ANC's #3, #1, #2, ...

........................................................................
.............................. CYCLE   26 ..............................
........................................................................

 iter      E             dE          RMSdq      gap      omega  full diag
   1    -33.0355949 -0.330356E+02  0.484E-02    2.23       0.0  T
   2    -33.0355950 -0.104717E-06  0.286E-02    2.23       1.0  T
   3    -33.0355951 -0.517568E-07  0.120E-03    2.23      17.3  T
   4    -33.0355951 -0.343326E-08  0.784E-04    2.23      26.6  T
   5    -33.0355951  0.102958E-09  0.457E-04    2.23      45.7  T
     SCC iter.                  ...        0 min,  0.004 sec
     gradient                   ...        0 min,  0.002 sec
 * total energy  :   -32.6429245 Eh     change       -0.7313922E-05 Eh
   gradient norm :     0.0013436 Eh/α   predicted    -0.3948314E-05 ( -46.02%)
   displ. norm   :     0.0491930 α      lambda       -0.5040914E-05
   maximum displ.:     0.0383793 α      in ANC's #3, #1, #2, ...

........................................................................
.............................. CYCLE   27 ..............................
........................................................................

 iter      E             dE          RMSdq      gap      omega  full diag
   1    -33.0357762 -0.330358E+02  0.314E-02    2.23       0.0  T
   2    -33.0357762 -0.672932E-07  0.185E-02    2.23       1.1  T
   3    -33.0357762  0.819282E-08  0.135E-03    2.23      15.4  T
   4    -33.0357763 -0.262841E-07  0.715E-04    2.23      29.2  T
   5    -33.0357763 -0.586156E-08  0.330E-04    2.23      63.2  T
     SCC iter.                  ...        0 min,  0.004 sec
     gradient                   ...        0 min,  0.002 sec
 * total energy  :   -32.6429307 Eh     change       -0.6257642E-05 Eh
   gradient norm :     0.0007492 Eh/α   predicted    -0.2523847E-05 ( -59.67%)
   displ. norm   :     0.0513956 α      lambda       -0.5455865E-05
   maximum displ.:     0.0413216 α      in ANC's #3, #1, #2, ...

........................................................................
.............................. CYCLE   28 ..............................
........................................................................

 iter      E             dE          RMSdq      gap      omega  full diag
   1    -33.0359127 -0.330359E+02  0.364E-02    2.23       0.0  T
   2    -33.0359127 -0.601723E-07  0.214E-02    2.23       1.0  T
   3    -33.0359127  0.395383E-07  0.183E-03    2.23      11.4  T
   4    -33.0359128 -0.647241E-07  0.659E-04    2.23      31.7  T
   5    -33.0359128 -0.351923E-08  0.329E-04    2.23      63.4  T
     SCC iter.                  ...        0 min,  0.004 sec
     gradient                   ...        0 min,  0.002 sec
 * total energy  :   -32.6429377 Eh     change       -0.6980624E-05 Eh
   gradient norm :     0.0004361 Eh/α   predicted    -0.2731787E-05 ( -60.87%)
   displ. norm   :     0.0542347 α      lambda       -0.4623662E-05
   maximum displ.:     0.0432826 α      in ANC's #3, #1, #2, ...

........................................................................
.............................. CYCLE   29 ..............................
........................................................................

 iter      E             dE          RMSdq      gap      omega  full diag
   1    -33.0358649 -0.330359E+02  0.389E-02    2.23       0.0  T
   2    -33.0358650 -0.533441E-07  0.229E-02    2.23       1.0  T
   3    -33.0358650 -0.570294E-08  0.120E-03    2.23      17.4  T
   4    -33.0358650 -0.191473E-07  0.630E-04    2.23      33.1  T
   5    -33.0358650 -0.295725E-08  0.292E-04    2.23      71.4  T
     SCC iter.                  ...        0 min,  0.004 sec
     gradient                   ...        0 min,  0.002 sec
 * total energy  :   -32.6429438 Eh     change       -0.6119471E-05 Eh
   gradient norm :     0.0004227 Eh/α   predicted    -0.2317242E-05 ( -62.13%)
   displ. norm   :     0.0526164 α      lambda       -0.3859430E-05
   maximum displ.:     0.0420741 α      in ANC's #3, #1, #7, ...

........................................................................
.............................. CYCLE   30 ..............................
........................................................................

 iter      E             dE          RMSdq      gap      omega  full diag
   1    -33.0358271 -0.330358E+02  0.377E-02    2.23       0.0  T
   2    -33.0358272 -0.508700E-07  0.222E-02    2.23       1.0  T
   3    -33.0358272 -0.204641E-07  0.876E-04    2.23      23.8  T
   4    -33.0358272 -0.401616E-08  0.591E-04    2.23      35.3  T
     SCC iter.                  ...        0 min,  0.003 sec
     gradient                   ...        0 min,  0.002 sec
 * total energy  :   -32.6429491 Eh     change       -0.5264258E-05 Eh
   gradient norm :     0.0003248 Eh/α   predicted    -0.1932583E-05 ( -63.29%)
   displ. norm   :     0.0550362 α      lambda       -0.3683831E-05
   maximum displ.:     0.0443010 α      in ANC's #3, #1, #7, ...

........................................................................
.............................. CYCLE   31 ..............................
........................................................................

 iter      E             dE          RMSdq      gap      omega  full diag
   1    -33.0357482 -0.330357E+02  0.388E-02    2.23       0.0  T
   2    -33.0357482 -0.616326E-07  0.229E-02    2.23       1.0  T
   3    -33.0357483 -0.240150E-07  0.108E-03    2.23      19.4  T
   4    -33.0357483 -0.757976E-08  0.687E-04    2.23      30.3  T
   5    -33.0357483 -0.270576E-08  0.321E-04    2.23      65.0  T
     SCC iter.                  ...        0 min,  0.004 sec
     gradient                   ...        0 min,  0.002 sec
 * total energy  :   -32.6429542 Eh     change       -0.5138452E-05 Eh
   gradient norm :     0.0002885 Eh/α   predicted    -0.1846151E-05 ( -64.07%)
   displ. norm   :     0.0650906 α      lambda       -0.4053014E-05
   maximum displ.:     0.0528542 α      in ANC's #3, #1, #7, ...

........................................................................
.............................. CYCLE   32 ..............................
........................................................................

 iter      E             dE          RMSdq      gap      omega  full diag
   1    -33.0356999 -0.330357E+02  0.458E-02    2.23       0.0  T
   2    -33.0357000 -0.903118E-07  0.270E-02    2.23       1.0  T
   3    -33.0357000 -0.478934E-07  0.102E-03    2.23      20.4  T
   4    -33.0357000 -0.181736E-08  0.602E-04    2.23      34.7  T
   5    -33.0357000 -0.393165E-09  0.134E-04    2.23     155.8  T
     SCC iter.                  ...        0 min,  0.004 sec
     gradient                   ...        0 min,  0.002 sec
 * total energy  :   -32.6429598 Eh     change       -0.5562495E-05 Eh
   gradient norm :     0.0004098 Eh/α   predicted    -0.2031491E-05 ( -63.48%)
   displ. norm   :     0.0768285 α      lambda       -0.4295450E-05
   maximum displ.:     0.0632920 α      in ANC's #3, #1, #4, ...

........................................................................
.............................. CYCLE   33 ..............................
........................................................................

 iter      E             dE          RMSdq      gap      omega  full diag
   1    -33.0356207 -0.330356E+02  0.539E-02    2.23       0.0  T
   2    -33.0356208 -0.136199E-06  0.318E-02    2.23       1.0  T
   3    -33.0356209 -0.703311E-07  0.127E-03    2.23      16.4  T
   4    -33.0356209 -0.296583E-08  0.788E-04    2.23      26.5  T
   5    -33.0356209  0.119326E-08  0.427E-04    2.23      48.8  T
     SCC iter.                  ...        0 min,  0.004 sec
     gradient                   ...        0 min,  0.001 sec
 * total energy  :   -32.6429654 Eh     change       -0.5634985E-05 Eh
   gradient norm :     0.0006525 Eh/α   predicted    -0.2154326E-05 ( -61.77%)
   displ. norm   :     0.0797415 α      lambda       -0.3866772E-05
   maximum displ.:     0.0673472 α      in ANC's #3, #1, #4, ...

........................................................................
.............................. CYCLE   34 ..............................
........................................................................

 iter      E             dE          RMSdq      gap      omega  full diag
   1    -33.0356072 -0.330356E+02  0.571E-02    2.23       0.0  T
   2    -33.0356074 -0.147430E-06  0.337E-02    2.23       1.0  T
   3    -33.0356074 -0.764146E-07  0.136E-03    2.23      15.3  T
   4    -33.0356074 -0.522071E-08  0.838E-04    2.23      24.9  T
   5    -33.0356074 -0.428336E-09  0.302E-04    2.23      69.0  T
     SCC iter.                  ...        0 min,  0.004 sec
     gradient                   ...        0 min,  0.002 sec
 * total energy  :   -32.6429704 Eh     change       -0.5010617E-05 Eh
   gradient norm :     0.0006478 Eh/α   predicted    -0.1939248E-05 ( -61.30%)
   displ. norm   :     0.0815096 α      lambda       -0.3535286E-05
   maximum displ.:     0.0706860 α      in ANC's #3, #1, #2, ...

........................................................................
.............................. CYCLE   35 ..............................
........................................................................

 iter      E             dE          RMSdq      gap      omega  full diag
   1    -33.0355949 -0.330356E+02  0.587E-02    2.23       0.0  T
   2    -33.0355950 -0.163041E-06  0.346E-02    2.23       1.0  T
   3    -33.0355951 -0.711707E-07  0.161E-03    2.23      13.0  T
   4    -33.0355951 -0.123030E-07  0.109E-03    2.23      19.2  T
   5    -33.0355951 -0.604935E-08  0.578E-04    2.23      36.1  T
   6    -33.0355951 -0.234375E-08  0.108E-04    2.23     193.5  T
     SCC iter.                  ...        0 min,  0.005 sec
     gradient                   ...        0 min,  0.002 sec
 * total energy  :   -32.6429750 Eh     change       -0.4592733E-05 Eh
   gradient norm :     0.0007915 Eh/α   predicted    -0.1773405E-05 ( -61.39%)
   displ. norm   :     0.0983209 α      lambda       -0.4238701E-05
   maximum displ.:     0.0877734 α      in ANC's #3, #1, #2, ...

   *** GEOMETRY OPTIMIZATION CONVERGED AFTER 35 ITERATIONS ***

------------------------------------------------------------------------
 total energy gain   :        -0.0218768 Eh      -13.7279 kcal/mol
 total RMSD          :         0.7417886 a0        0.3925 Å
 total power (kW/mol):        -1.6410749 (step) -179.0433 (real)
------------------------------------------------------------------------

 ANCopt (total)                0 d,  0 h,  0 min,  0.321 sec
 optimizer setup                ...        0 min,  0.000 sec (  0.032%)
 model hessian                  ...        0 min,  0.016 sec (  4.929%)
 ANC generation                 ...        0 min,  0.001 sec (  0.333%)
 coordinate transformation      ...        0 min,  0.000 sec (  0.086%)
 single point calculation       ...        0 min,  0.289 sec ( 90.100%)
 optimization log               ...        0 min,  0.007 sec (  2.315%)
 hessian update                 ...        0 min,  0.003 sec (  0.890%)
 rational function              ...        0 min,  0.003 sec (  0.907%)

================
 final structure:
================
23
 xtb: 6.7.1 (edcfbbe)
C           -3.29148005664397       -0.92928015560969        0.48140118067692
N           -2.26794403149870       -0.13939059435726       -0.17253396485494
C           -2.62503642211341        1.26511081893144       -0.18335639259197
C           -0.96560588779130       -0.36840064926372        0.42471746409477
C            0.15863976770931        0.14460845910010       -0.47334358148395
O            1.37246351796422       -0.49082811574040       -0.08083924628890
C            2.51236698548258        0.18792060658828       -0.27270052891860
O            2.56904602421621        1.29218992973187       -0.75522749276352
C            3.67247257153978       -0.60365703607063        0.19292229400016
C            4.90846184944377       -0.14191588771790        0.07439701370039
H           -3.41319320733884       -0.67537709070151        1.54598249427370
H           -4.24114917996021       -0.76415130885805       -0.02469151960636
H           -3.03650545444848       -1.98483325603848        0.40154569022937
H           -1.89594865680301        1.82300762547327       -0.76616241558513
H           -3.59944951100791        1.37672885723357       -0.65588331157220
H           -2.67450455735462        1.69603874138317        0.82905583550698
H           -0.87836384404718        0.08831532091173        1.42691512630688
H           -0.82598641700305       -1.44698036855903        0.53238998532776
H           -0.05945830707115       -0.11812047177626       -1.51416678498458
H            0.29394570586340        1.22819949320920       -0.40266457209923
H            3.43691118675187       -1.56538733387856        0.62278059344400
H            5.08275952547053        0.82639900842258       -0.36649157331949
H            5.76755939863996       -0.70019759241400        0.40412670650802
 
 Bond Distances (Angstroems)
 ---------------------------
C1-N2=1.4489         C1-H11=1.1012        C1-H12=1.0887        C1-H13=1.0888        N2-C1=1.4489         N2-C3=1.4492         
N2-C4=1.4509         C3-N2=1.4492         C3-H14=1.0874        C3-H15=1.0887        C3-H16=1.1014        C4-N2=1.4509         
C4-C5=1.5276         C4-H17=1.1048        C4-H18=1.0929        C5-C4=1.5276         C5-O6=1.4252         C5-H19=1.0954        
C5-H20=1.0943        O6-C5=1.4252         O6-C7=1.3405         C7-O6=1.3405         C7-O8=1.2064         C7-C9=1.4796         
O8-C7=1.2064         C9-C7=1.4796         C9-C10=1.3247        C9-H21=1.0794        C10-C9=1.3247        C10-H22=1.0781       
C10-H23=1.0763       H11-C1=1.1012        H12-C1=1.0887        H13-C1=1.0888        H14-C3=1.0874        H15-C3=1.0887        
H16-C3=1.1014        H17-C4=1.1048        H18-C4=1.0929        H19-C5=1.0954        H20-C5=1.0943        H21-C9=1.0794        
H22-C10=1.0781       H23-C10=1.0763       
 C  H  Rav=1.0906 sigma=0.0087  Rmin=1.0763  Rmax=1.1048    13
 C  C  Rav=1.4440 sigma=0.0866  Rmin=1.3247  Rmax=1.5276     3
 N  C  Rav=1.4497 sigma=0.0009  Rmin=1.4489  Rmax=1.4509     3
 O  C  Rav=1.3240 sigma=0.0901  Rmin=1.2064  Rmax=1.4252     3
 
 selected bond angles (degree)
 --------------------
H11-C1-N2=112.87               H12-C1-N2=108.89               H12-C1-H11=108.54              H13-C1-N2=109.27               
H13-C1-H11=108.68              H13-C1-H12=108.49              C3-N2-C1=110.96                C4-N2-C1=111.24                
C4-N2-C3=112.16                H14-C3-N2=109.63               H15-C3-N2=108.85               H15-C3-H14=108.35              
H16-C3-N2=112.54               H16-C3-H14=108.79              H16-C3-H15=108.58              C5-C4-N2=111.44                
H17-C4-N2=112.27               H17-C4-C5=109.65               H18-C4-N2=108.12               H18-C4-C5=107.18               
H18-C4-H17=107.97              O6-C5-C4=108.37                H19-C5-C4=109.36               H19-C5-O6=108.92               
H20-C5-C4=112.68               H20-C5-O6=108.57               H20-C5-H19=108.87              C7-O6-C5=117.33                
O8-C7-O6=124.10                C9-C7-O6=110.54                C9-C7-O8=125.36                C10-C9-C7=121.13               
H21-C9-C7=115.52               H21-C9-C10=123.35              H22-C10-C9=120.03              H23-C10-C9=122.45              
H23-C10-H22=117.52             
 
 selected dihedral angles (degree)
 ---------------------------------
C3-N2-C1-H11=296.39           C3-N2-C1-H12= 57.00           C3-N2-C1-H13=175.35           C4-N2-C1-H11= 62.00           
C4-N2-C1-H12=182.61           C4-N2-C1-H13=300.95           H14-C3-N2-C1=185.78           H14-C3-N2-C4= 60.69           
H15-C3-N2-C1=304.15           H15-C3-N2-C4=179.06           H16-C3-N2-C1= 64.57           H16-C3-N2-C4=299.48           
C5-C4-N2-C1=164.47            C5-C4-N2-C3=289.41            H17-C4-N2-C1=287.93           H17-C4-N2-C3= 52.87           
H18-C4-N2-C1= 46.93           H18-C4-N2-C3=171.87           O6-C5-C4-N2=199.44            O6-C5-C4-H17= 74.51           
O6-C5-C4-H18=317.55           H19-C5-C4-N2=318.06           H19-C5-C4-H17=193.12          H19-C5-C4-H18= 76.16          
H20-C5-C4-N2= 79.28           H20-C5-C4-H17=314.35          H20-C5-C4-H18=197.39          C7-O6-C5-C4=209.29            
C7-O6-C5-H19= 90.40           C7-O6-C5-H20=331.98           O8-C7-O6-C5=359.86            C9-C7-O6-C5=179.64            
C10-C9-C7-O6=178.49           C10-C9-C7-O8=358.27           H21-C9-C7-O6=358.72           H21-C9-C7-O8=178.49           
H22-C10-C9-C7=  0.06          H22-C10-C9-H21=179.82         H23-C10-C9-C7=180.11          H23-C10-C9-H21=359.87         
           -------------------------------------------------
          |                Final Singlepoint                |
           -------------------------------------------------

          ...................................................
          :                      SETUP                      :
          :.................................................:
          :  # basis functions                  53          :
          :  # atomic orbitals                  53          :
          :  # shells                           33          :
          :  # electrons                        58          :
          :  max. iterations                   250          :
          :  Hamiltonian                  GFN2-xTB          :
          :  restarted?                      false          :
          :  GBSA solvation                  false          :
          :  PC potential                    false          :
          :  electronic temp.          300.0000000     K    :
          :  accuracy                    1.0000000          :
          :  -> integral cutoff          0.2500000E+02      :
          :  -> integral neglect         0.1000000E-07      :
          :  -> SCF convergence          0.1000000E-05 Eh   :
          :  -> wf. convergence          0.1000000E-03 e    :
          :  Broyden damping             0.4000000          :
          :  net charge                          0          :
          :  unpaired electrons                  0          :
          ...................................................

 iter      E             dE          RMSdq      gap      omega  full diag
   1    -33.0355951 -0.330356E+02  0.485E-05    2.23       0.0  T
   2    -33.0355951 -0.544986E-11  0.273E-05    2.23     764.8  T
   3    -33.0355951 -0.426326E-12  0.128E-05    2.23    1626.2  T

   *** convergence criteria satisfied after 3 iterations ***

         #    Occupation            Energy/Eh            Energy/eV
      -------------------------------------------------------------
         1        2.0000           -0.7414334             -20.1754
       ...           ...                  ...                  ...
        23        2.0000           -0.4607476             -12.5376
        24        2.0000           -0.4600124             -12.5176
        25        2.0000           -0.4491333             -12.2215
        26        2.0000           -0.4403274             -11.9819
        27        2.0000           -0.4363098             -11.8726
        28        2.0000           -0.4150217             -11.2933
        29        2.0000           -0.3576107              -9.7311 (HOMO)
        30                         -0.2756403              -7.5006 (LUMO)
        31                         -0.1656386              -4.5073
        32                         -0.0139401              -0.3793
        33                          0.0559215               1.5217
        34                          0.0792948               2.1577
       ...                                ...                  ...
        53                          0.7067371              19.2313
      -------------------------------------------------------------
                  HL-Gap            0.0819703 Eh            2.2305 eV
             Fermi-level           -0.3166255 Eh           -8.6158 eV

 SCC (total)                   0 d,  0 h,  0 min,  0.005 sec
 SCC setup                      ...        0 min,  0.000 sec (  1.385%)
 Dispersion                     ...        0 min,  0.000 sec (  2.601%)
 classical contributions        ...        0 min,  0.000 sec (  0.730%)
 integral evaluation            ...        0 min,  0.000 sec (  8.097%)
 iterations                     ...        0 min,  0.002 sec ( 50.805%)
 molecular gradient             ...        0 min,  0.002 sec ( 33.985%)
 printout                       ...        0 min,  0.000 sec (  1.976%)

         :::::::::::::::::::::::::::::::::::::::::::::::::::::
         ::                     SUMMARY                     ::
         :::::::::::::::::::::::::::::::::::::::::::::::::::::
         :: total energy             -32.642975017529 Eh    ::
         :: gradient norm              0.000792360572 Eh/a0 ::
         :: HOMO-LUMO gap              2.230525603671 eV    ::
         ::.................................................::
         :: SCC energy               -33.035682432512 Eh    ::
         :: -> isotropic ES            0.049955855052 Eh    ::
         :: -> anisotropic ES          0.003135444360 Eh    ::
         :: -> anisotropic XC          0.015855961251 Eh    ::
         :: -> dispersion             -0.014934383370 Eh    ::
         :: repulsion energy           0.392707414983 Eh    ::
         :: add. restraining           0.000000000000 Eh    ::
         :: total charge               0.000000000000 e     ::
         :::::::::::::::::::::::::::::::::::::::::::::::::::::

           -------------------------------------------------
          |                Property Printout                |
           -------------------------------------------------

    * Orbital Energies and Occupations

         #    Occupation            Energy/Eh            Energy/eV
      -------------------------------------------------------------
         1        2.0000           -0.7414334             -20.1754
       ...           ...                  ...                  ...
        17        2.0000           -0.5106444             -13.8953
        18        2.0000           -0.5005073             -13.6195
        19        2.0000           -0.4887836             -13.3005
        20        2.0000           -0.4835339             -13.1576
        21        2.0000           -0.4765070             -12.9664
        22        2.0000           -0.4626236             -12.5886
        23        2.0000           -0.4607476             -12.5376
        24        2.0000           -0.4600124             -12.5176
        25        2.0000           -0.4491333             -12.2215
        26        2.0000           -0.4403274             -11.9819
        27        2.0000           -0.4363098             -11.8726
        28        2.0000           -0.4150217             -11.2933
        29        2.0000           -0.3576107              -9.7311 (HOMO)
        30                         -0.2756403              -7.5006 (LUMO)
        31                         -0.1656386              -4.5073
        32                         -0.0139401              -0.3793
        33                          0.0559215               1.5217
        34                          0.0792948               2.1577
        35                          0.1029495               2.8014
        36                          0.1063816               2.8948
        37                          0.1226693               3.3380
        38                          0.1301815               3.5424
        39                          0.1445556               3.9336
        40                          0.1491644               4.0590
       ...                                ...                  ...
        53                          0.7067371              19.2313
      -------------------------------------------------------------
                  HL-Gap            0.0819703 Eh            2.2305 eV
             Fermi-level           -0.3166255 Eh           -8.6158 eV

     #   Z          covCN         q      C6AA      α(0)
     1   6 C        3.717    -0.035    21.316     6.595
     2   7 N        2.725    -0.174    24.766     7.391
     3   6 C        3.715    -0.038    21.373     6.605
     4   6 C        3.763     0.004    20.549     6.462
     5   6 C        3.700     0.073    19.515     6.317
     6   8 O        1.706    -0.267    18.431     5.796
     7   6 C        2.723     0.356    20.956     7.494
     8   8 O        0.856    -0.413    21.947     6.281
     9   6 C        2.888    -0.058    29.444     8.896
    10   6 C        2.842    -0.059    29.469     8.896
    11   1 H        0.923     0.016     2.798     2.616
    12   1 H        0.925     0.045     2.379     2.412
    13   1 H        0.925     0.041     2.430     2.438
    14   1 H        0.925     0.041     2.433     2.439
    15   1 H        0.925     0.045     2.380     2.412
    16   1 H        0.923     0.017     2.783     2.609
    17   1 H        0.922     0.021     2.720     2.579
    18   1 H        0.924     0.056     2.247     2.344
    19   1 H        0.924     0.060     2.198     2.318
    20   1 H        0.924     0.061     2.188     2.313
    21   1 H        0.926     0.065     2.147     2.291
    22   1 H        0.926     0.079     1.985     2.203
    23   1 H        0.926     0.064     2.157     2.297

 Mol. C6AA /au·bohr⁶  :       4544.008508
 Mol. C8AA /au·bohr⁸  :      98172.270036
 Mol. α(0) /au        :        102.007358


Wiberg/Mayer (AO) data.
largest (>0.10) Wiberg bond orders for each atom

 ---------------------------------------------------------------------------
     #   Z sym  total        # sym  WBO       # sym  WBO       # sym  WBO
 ---------------------------------------------------------------------------
     1   6 C    3.985 --     2 N    1.014    13 H    0.982    12 H    0.982
                            11 H    0.974
     2   7 N    3.119 --     3 C    1.015     1 C    1.014     4 C    1.009
     3   6 C    3.986 --     2 N    1.015    15 H    0.982    14 H    0.982
                            16 H    0.973
     4   6 C    3.986 --     2 N    1.009     5 C    0.996    18 H    0.970
                            17 H    0.963
     5   6 C    3.926 --     4 C    0.996    20 H    0.966    19 H    0.965
                             6 O    0.944
     6   8 O    2.307 --     7 C    1.122     5 C    0.944     8 O    0.175
     7   6 C    3.919 --     8 O    1.724     6 O    1.122     9 C    1.010
     8   8 O    2.036 --     7 C    1.724     6 O    0.175
     9   6 C    3.988 --    10 C    1.932     7 C    1.010    21 H    0.965
    10   6 C    3.981 --     9 C    1.932    23 H    0.975    22 H    0.970
    11   1 H    1.000 --     1 C    0.974
    12   1 H    0.998 --     1 C    0.982
    13   1 H    0.998 --     1 C    0.982
    14   1 H    0.998 --     3 C    0.982
    15   1 H    0.998 --     3 C    0.982
    16   1 H    1.000 --     3 C    0.973
    17   1 H    1.000 --     4 C    0.963
    18   1 H    0.997 --     4 C    0.970
    19   1 H    0.996 --     5 C    0.965
    20   1 H    0.996 --     5 C    0.966
    21   1 H    0.996 --     9 C    0.965
    22   1 H    0.994 --    10 C    0.970
    23   1 H    0.995 --    10 C    0.975
 ---------------------------------------------------------------------------

Topologies differ in total number of bonds
Writing topology from bond orders to xtbtopo.mol

molecular dipole:
                 x           y           z       tot (Debye)
 q only:       -0.265      -0.618       0.344
   full:       -0.283      -0.606       0.660       2.389
molecular quadrupole (traceless):
                xx          xy          yy          xz          yz          zz
 q only:        8.562      -5.780      -4.482       3.065       0.578      -4.080
  q+dip:        7.367      -7.248      -4.166       1.799       1.108      -3.201
   full:        7.443      -7.525      -4.654       1.625       1.549      -2.789

           -------------------------------------------------
          |                Geometry Summary                 |
           -------------------------------------------------

      molecular mass/u    :      143.1838941
   center of mass at/Å    :        0.5425803       0.0370061      -0.0755201
  moments of inertia/u·Å² :        0.1140292E+03   0.1067736E+04   0.1156237E+04
rotational constants/cm⁻¹ :        0.1478361E+00   0.1578820E-01   0.1457973E-01

 * 21 selected distances

     #   Z          #   Z                                           value/Å
     1   6 C        2   7 N                                       1.4488558
     2   7 N        3   6 C                                       1.4492262
     2   7 N        4   6 C                                       1.4509445
     4   6 C        5   6 C                                       1.5276193 (max)
     5   6 C        6   8 O                                       1.4252045
     6   8 O        7   6 C                                       1.3404816
     7   6 C        8   8 O                                       1.2064227
     9   6 C       10   6 C                                       1.3247350
     1   6 C       11   1 H                                       1.1011877
     1   6 C       12   1 H                                       1.0887006
     1   6 C       13   1 H                                       1.0888441
     3   6 C       14   1 H                                       1.0874194
     3   6 C       15   1 H                                       1.0886787
     3   6 C       16   1 H                                       1.1014194
     4   6 C       17   1 H                                       1.1048081
     4   6 C       18   1 H                                       1.0928959
     5   6 C       19   1 H                                       1.0954024
     5   6 C       20   1 H                                       1.0942911
     9   6 C       21   1 H                                       1.0794409
    10   6 C       22   1 H                                       1.0781449
    10   6 C       23   1 H                                       1.0763127 (min)

 * 4 distinct bonds (by element types)

   Z      Z             #   av. dist./Å        max./Å        min./Å
   1 H    6 C          13     1.0905805     1.1048081     1.0763127
   6 C    6 C           2     1.4261772     1.5276193     1.3247350
   6 C    7 N           3     1.4496755     1.4509445     1.4488558
   6 C    8 O           3     1.3240363     1.4252045     1.2064227


optimized geometry written to: xtbopt.xyz


           -------------------------------------------------
          | TOTAL ENERGY              -32.642975017529 Eh   |
          | GRADIENT NORM               0.000792360572 Eh/α |
          | HOMO-LUMO GAP               2.230525603671 eV   |
           -------------------------------------------------

------------------------------------------------------------------------
 * finished run on 2025/12/01 at 14:22:08.989     
------------------------------------------------------------------------
 total:
 * wall-time:     0 d,  0 h,  0 min,  0.359 sec
 *  cpu-time:     0 d,  0 h,  0 min,  8.116 sec
 * ratio c/w:    22.621 speedup
 SCF:
 * wall-time:     0 d,  0 h,  0 min,  0.023 sec
 *  cpu-time:     0 d,  0 h,  0 min,  0.517 sec
 * ratio c/w:    22.602 speedup
 ANC optimizer:
 * wall-time:     0 d,  0 h,  0 min,  0.327 sec
 *  cpu-time:     0 d,  0 h,  0 min,  7.454 sec
 * ratio c/w:    22.829 speedup

normal termination of xtb
