      -----------------------------------------------------------      
     |                   =====================                   |     
     |                           x T B                           |     
     |                   =====================                   |     
     |                         S. Grimme                         |     
     |          Mulliken Center for Theoretical Chemistry        |     
     |                    University of Bonn                     |     
      -----------------------------------------------------------      

   * xtb version 6.7.1 (edcfbbe) compiled by 'albert@albert-system' on 2024-07-22

   xtb is free software: you can redistribute it and/or modify it under
   the terms of the GNU Lesser General Public License as published by
   the Free Software Foundation, either version 3 of the License, or
   (at your option) any later version.
   
   xtb is distributed in the hope that it will be useful,
   but WITHOUT ANY WARRANTY; without even the implied warranty of
   MERCHANTABILITY or FITNESS FOR A PARTICULAR PURPOSE.  See the
   GNU Lesser General Public License for more details.
   
   Cite this work as:
   * C. Bannwarth, E. Caldeweyher, S. Ehlert, A. Hansen, P. Pracht,
     J. Seibert, S. Spicher, S. Grimme, WIREs Comput. Mol. Sci., 2020, 11,
     e01493. DOI: 10.1002/wcms.1493
   
   for GFN2-xTB:
   * C. Bannwarth, S. Ehlert and S. Grimme., J. Chem. Theory Comput., 2019,
     15, 1652-1671. DOI: 10.1021/acs.jctc.8b01176
   for GFN1-xTB:
   * S. Grimme, C. Bannwarth, P. Shushkov, J. Chem. Theory Comput., 2017,
     13, 1989-2009. DOI: 10.1021/acs.jctc.7b00118
   for GFN0-xTB:
   * P. Pracht, E. Caldeweyher, S. Ehlert, S. Grimme, ChemRxiv, 2019, preprint.
     DOI: 10.26434/chemrxiv.8326202.v1
   for GFN-FF:
   * S. Spicher and S. Grimme, Angew. Chem. Int. Ed., 2020, 59, 15665-15673.
     DOI: 10.1002/anie.202004239
   
   for ALPB and GBSA implicit solvation:
   * S. Ehlert, M. Stahn, S. Spicher, S. Grimme, J. Chem. Theory Comput.,
     2021, 17, 4250-4261. DOI: 10.1021/acs.jctc.1c00471
   
   for ddCOSMO and CPCM-X implicit solvation:
   * M. Stahn, S. Ehlert, S. Grimme, J. Phys. Chem. A,
     2023, XX, XXXX-XXXX. DOI: 10.1021/acs.jpca.3c04382
   
   for DFT-D4:
   * E. Caldeweyher, C. Bannwarth and S. Grimme, J. Chem. Phys., 2017,
     147, 034112. DOI: 10.1063/1.4993215
   * E. Caldeweyher, S. Ehlert, A. Hansen, H. Neugebauer, S. Spicher,
     C. Bannwarth and S. Grimme, J. Chem. Phys., 2019, 150, 154122.
     DOI: 10.1063/1.5090222
   * E. Caldeweyher, J.-M. Mewes, S. Ehlert and S. Grimme, Phys. Chem. Chem. Phys.
     2020, 22, 8499-8512. DOI: 10.1039/D0CP00502A
   
   for sTDA-xTB:
   * S. Grimme and C. Bannwarth, J. Chem. Phys., 2016, 145, 054103.
     DOI: 10.1063/1.4959605
   
   in the mass-spec context:
   * V. Asgeirsson, C. Bauer and S. Grimme, Chem. Sci., 2017, 8, 4879.
     DOI: 10.1039/c7sc00601b
   * J. Koopman and S. Grimme, ACS Omega 2019, 4, 12, 15120-15133.
     DOI: 10.1021/acsomega.9b02011
   
   for metadynamics refer to:
   * S. Grimme, J. Chem. Theory Comput., 2019, 155, 2847-2862
     DOI: 10.1021/acs.jctc.9b00143
   
   for SPH calculations refer to:
   * S. Spicher and S. Grimme, J. Chem. Theory Comput., 2021, 17, 1701-1714
     DOI: 10.1021/acs.jctc.0c01306
   
   for ONIOM refer to:
   * C. Plett, A. Katbashev, S. Ehlert, S. Grimme, M. Bursch,
     Phys. Chem. Chem. Phys., 2023, 25, 17860-17868. DOI: 10.1039/D3CP02178E
   
   for DIPRO refer to:
   * J. Kohn, N. Gildemeister, S. Grimme, D. Fazzi, A. Hansen,
     J. Chem. Phys., 2023, just accepted.
   
   for PTB refer to:
   * S. Grimme, M. Mueller, A. Hansen, J. Chem. Phys., 2023, 158, 124111.
     DOI: 10.1063/5.0137838
   
   with help from (in alphabetical order)
   P. Atkinson, C. Bannwarth, F. Bohle, G. Brandenburg, E. Caldeweyher
   M. Checinski, S. Dohm, S. Ehlert, S. Ehrlich, I. Gerasimov, C. Hölzer
   A. Katbashev, J. Kohn, J. Koopman, C. Lavigne, S. Lehtola, F. März, M. Müller,
   F. Musil, H. Neugebauer, J. Pisarek, C. Plett, P. Pracht, F. Pultar,
   J. Seibert, P. Shushkov, S. Spicher, M. Stahn, M. Steiner, T. Strunk,
   J. Stückrath, T. Rose, and J. Unsleber
   
 * started run on 2025/12/01 at 14:22:08.378     
   ID    Z sym.   atoms
    1    6 C      1, 3-5, 7, 9, 10
    2    7 N      2
    3    8 O      6, 8
    4    1 H      11-23

           -------------------------------------------------
          |                Calculation Setup                |
           -------------------------------------------------

          program call               : xtb pipeline_data/3_conformer_xyz/acrylates/rdkit/DPBJAVGHACCNRL-UHFFFAOYSA-N_conf203.xyz --opt --gfn 2-xTB --iterations 250
          coordinate file            : pipeline_data/3_conformer_xyz/acrylates/rdkit/DPBJAVGHACCNRL-UHFFFAOYSA-N_conf203.xyz
          omp threads                :                    24

########################################################################
[WARNING] Please study the warnings concerning your input carefully
-1- readin_getIntValue: could not parse '2-xTB'
########################################################################

           -------------------------------------------------
          |                 G F N 2 - x T B                 |
           -------------------------------------------------

        Reference                      10.1021/acs.jctc.8b01176
      * Hamiltonian:
        H0-scaling (s, p, d)           1.850000    2.230000    2.230000
        zeta-weighting                 0.500000
      * Dispersion:
        s8                             2.700000
        a1                             0.520000
        a2                             5.000000
        s9                             5.000000
      * Repulsion:
        kExp                           1.500000    1.000000
        rExp                           1.000000
      * Coulomb:
        alpha                          2.000000
        third order                    shell-resolved
        anisotropic                    true
        a3                             3.000000
        a5                             4.000000
        cn-shift                       1.200000
        cn-exp                         4.000000
        max-rad                        5.000000


          ...................................................
          :                      SETUP                      :
          :.................................................:
          :  # basis functions                  53          :
          :  # atomic orbitals                  53          :
          :  # shells                           33          :
          :  # electrons                        58          :
          :  max. iterations                   250          :
          :  Hamiltonian                  GFN2-xTB          :
          :  restarted?                      false          :
          :  GBSA solvation                  false          :
          :  PC potential                    false          :
          :  electronic temp.          300.0000000     K    :
          :  accuracy                    1.0000000          :
          :  -> integral cutoff          0.2500000E+02      :
          :  -> integral neglect         0.1000000E-07      :
          :  -> SCF convergence          0.1000000E-05 Eh   :
          :  -> wf. convergence          0.1000000E-03 e    :
          :  Broyden damping             0.4000000          :
          :  net charge                          0          :
          :  unpaired electrons                  0          :
          ...................................................

 iter      E             dE          RMSdq      gap      omega  full diag
   1    -32.9047045 -0.329047E+02  0.426E+00    2.70       0.0  T
   2    -32.9747615 -0.700570E-01  0.227E+00    2.32       1.0  T
   3    -32.9765950 -0.183345E-02  0.141E+00    2.37       1.0  T
   4    -32.9845477 -0.795273E-02  0.327E-01    1.92       1.0  T
   5    -32.9856704 -0.112273E-02  0.165E-01    1.93       1.0  T
   6    -32.9861217 -0.451240E-03  0.564E-02    1.94       1.0  T
   7    -32.9861297 -0.801308E-05  0.167E-02    1.95       1.2  T
   8    -32.9861305 -0.764888E-06  0.613E-03    1.95       3.4  T
   9    -32.9861306 -0.105341E-06  0.182E-03    1.95      11.4  T
  10    -32.9861306 -0.932847E-08  0.920E-04    1.95      22.7  T
  11    -32.9861306 -0.221065E-08  0.162E-04    1.95     128.7  T

   *** convergence criteria satisfied after 11 iterations ***

         #    Occupation            Energy/Eh            Energy/eV
      -------------------------------------------------------------
         1        2.0000           -0.7312347             -19.8979
       ...           ...                  ...                  ...
        23        2.0000           -0.4596585             -12.5079
        24        2.0000           -0.4577011             -12.4547
        25        2.0000           -0.4513823             -12.2827
        26        2.0000           -0.4464821             -12.1494
        27        2.0000           -0.4327126             -11.7747
        28        2.0000           -0.4168313             -11.3426
        29        2.0000           -0.3643856              -9.9154 (HOMO)
        30                         -0.2927829              -7.9670 (LUMO)
        31                         -0.1783269              -4.8525
        32                         -0.0408302              -1.1110
        33                          0.0542951               1.4774
        34                          0.0596272               1.6225
       ...                                ...                  ...
        53                          0.6358371              17.3020
      -------------------------------------------------------------
                  HL-Gap            0.0716027 Eh            1.9484 eV
             Fermi-level           -0.3285842 Eh           -8.9412 eV

 SCC (total)                   0 d,  0 h,  0 min,  0.022 sec
 SCC setup                      ...        0 min,  0.000 sec (  0.977%)
 Dispersion                     ...        0 min,  0.000 sec (  1.047%)
 classical contributions        ...        0 min,  0.000 sec (  0.209%)
 integral evaluation            ...        0 min,  0.004 sec ( 18.795%)
 iterations                     ...        0 min,  0.015 sec ( 70.736%)
 molecular gradient             ...        0 min,  0.002 sec (  7.517%)
 printout                       ...        0 min,  0.000 sec (  0.602%)

         :::::::::::::::::::::::::::::::::::::::::::::::::::::
         ::                     SUMMARY                     ::
         :::::::::::::::::::::::::::::::::::::::::::::::::::::
         :: total energy             -32.619808175271 Eh    ::
         :: gradient norm              0.147397221055 Eh/a0 ::
         :: HOMO-LUMO gap              1.948409607045 eV    ::
         ::.................................................::
         :: SCC energy               -32.986162436655 Eh    ::
         :: -> isotropic ES            0.052450215722 Eh    ::
         :: -> anisotropic ES          0.002770830062 Eh    ::
         :: -> anisotropic XC          0.016697508649 Eh    ::
         :: -> dispersion             -0.014978721060 Eh    ::
         :: repulsion energy           0.366354261384 Eh    ::
         :: add. restraining           0.000000000000 Eh    ::
         :: total charge              -0.000000000000 e     ::
         :::::::::::::::::::::::::::::::::::::::::::::::::::::

      ----------------------------------------------------------- 
     |                   =====================                   |
     |                        A N C O P T                        |
     |                   =====================                   |
     |               Approximate Normal Coordinate               |
     |                Rational Function Optimizer                |
      ----------------------------------------------------------- 
      ----------------------------------------------------------- 
     |                   =====================                   |
     |                        A N C O P T                        |
     |                   =====================                   |
     |               Approximate Normal Coordinate               |
     |                Rational Function Optimizer                |
      ----------------------------------------------------------- 

          ...................................................
          :                      SETUP                      :
          :.................................................:
          :   optimization level            normal          :
          :   max. optcycles                   200          :
          :   ANC micro-cycles                  20          :
          :   degrees of freedom                63          :
          :.................................................:
          :   RF solver                   davidson          :
          :   write xtbopt.log                true          :
          :   linear?                        false          :
          :   energy convergence         0.5000000E-05 Eh   :
          :   grad. convergence          0.1000000E-02 Eh/α :
          :   maxmium RF displ.          1.0000000          :
          :   Hlow (freq-cutoff)         0.1000000E-01      :
          :   Hmax (freq-cutoff)         5.0000000          :
          :   S6 in model hess.         20.0000000          :
          ...................................................

generating ANC from exact Hessian ...
Using Lindh-Hessian (1995)
 Shifting diagonal of input Hessian by   9.252323114946497E-003
 Lowest  eigenvalues of input Hessian
    0.000000    0.000000    0.000000    0.000000    0.000000    0.000000
    0.010000    0.010650    0.010847    0.013648    0.014845    0.016349
    0.018869    0.019444    0.023885    0.026647    0.027364    0.030127
 Highest eigenvalues
    1.440774    1.457884    1.589331    1.738015    1.877629    2.126173
 

........................................................................
.............................. CYCLE    1 ..............................
........................................................................

 iter      E             dE          RMSdq      gap      omega  full diag
   1    -32.9861306 -0.329861E+02  0.687E-05    1.95       0.0  T
   2    -32.9861306 -0.635936E-11  0.416E-05    1.95     500.8  T
   3    -32.9861306 -0.504485E-12  0.157E-05    1.95    1325.0  T
     SCC iter.                  ...        0 min,  0.002 sec
     gradient                   ...        0 min,  0.002 sec
 * total energy  :   -32.6198082 Eh     change       -0.1275211E-09 Eh
   gradient norm :     0.1473965 Eh/α   predicted     0.0000000E+00 (-100.00%)
   displ. norm   :     0.2930401 α      lambda       -0.2335920E-01
   maximum displ.:     0.0984607 α      in ANC's #35, #15, #8, ...

........................................................................
.............................. CYCLE    2 ..............................
........................................................................

 iter      E             dE          RMSdq      gap      omega  full diag
   1    -33.0161914 -0.330162E+02  0.311E-01    2.13       0.0  T
   2    -33.0165808 -0.389321E-03  0.199E-01    2.05       1.0  T
   3    -33.0165681  0.126556E-04  0.988E-02    2.04       1.0  T
   4    -33.0166196 -0.515023E-04  0.388E-02    2.03       1.0  T
   5    -33.0166435 -0.238874E-04  0.126E-02    2.03       1.7  T
   6    -33.0166454 -0.188717E-05  0.527E-03    2.03       4.0  T
   7    -33.0166455 -0.796994E-07  0.186E-03    2.03      11.2  T
   8    -33.0166455 -0.718004E-08  0.695E-04    2.03      30.0  T
   9    -33.0166455 -0.118055E-08  0.156E-04    2.03     133.7  T
     SCC iter.                  ...        0 min,  0.006 sec
     gradient                   ...        0 min,  0.002 sec
 * total energy  :   -32.6356070 Eh     change       -0.1579878E-01 Eh
   gradient norm :     0.0527230 Eh/α   predicted    -0.1269010E-01 ( -19.68%)
   displ. norm   :     0.2953343 α      lambda       -0.5756185E-02
   maximum displ.:     0.1418371 α      in ANC's #6, #8, #12, ...

........................................................................
.............................. CYCLE    3 ..............................
........................................................................

 iter      E             dE          RMSdq      gap      omega  full diag
   1    -33.0305287 -0.330305E+02  0.196E-01    2.18       0.0  T
   2    -33.0306413 -0.112569E-03  0.123E-01    2.16       1.0  T
   3    -33.0306282  0.130765E-04  0.537E-02    2.15       1.0  T
   4    -33.0306488 -0.205496E-04  0.217E-02    2.15       1.0  T
   5    -33.0306562 -0.746073E-05  0.691E-03    2.15       3.0  T
   6    -33.0306568 -0.601142E-06  0.231E-03    2.15       9.0  T
   7    -33.0306569 -0.149578E-07  0.751E-04    2.15      27.8  T
   8    -33.0306569 -0.109378E-08  0.341E-04    2.15      61.1  T
     SCC iter.                  ...        0 min,  0.005 sec
     gradient                   ...        0 min,  0.001 sec
 * total energy  :   -32.6389344 Eh     change       -0.3327406E-02 Eh
   gradient norm :     0.0198066 Eh/α   predicted    -0.3131490E-02 (  -5.89%)
   displ. norm   :     0.2378147 α      lambda       -0.1191633E-02
   maximum displ.:     0.1406537 α      in ANC's #8, #6, #3, ...

........................................................................
.............................. CYCLE    4 ..............................
........................................................................

 iter      E             dE          RMSdq      gap      omega  full diag
   1    -33.0308529 -0.330309E+02  0.839E-02    2.17       0.0  T
   2    -33.0308662 -0.132827E-04  0.506E-02    2.17       1.0  T
   3    -33.0308644  0.174825E-05  0.170E-02    2.18       1.2  T
   4    -33.0308651 -0.676955E-06  0.970E-03    2.17       2.1  T
   5    -33.0308669 -0.184666E-05  0.138E-03    2.17      15.1  T
   6    -33.0308669 -0.641414E-08  0.595E-04    2.17      35.1  T
   7    -33.0308669 -0.811461E-09  0.197E-04    2.17     105.9  T
     SCC iter.                  ...        0 min,  0.005 sec
     gradient                   ...        0 min,  0.002 sec
 * total energy  :   -32.6398195 Eh     change       -0.8851447E-03 Eh
   gradient norm :     0.0104769 Eh/α   predicted    -0.6295624E-03 ( -28.87%)
   displ. norm   :     0.3217354 α      lambda       -0.9488749E-03
   maximum displ.:     0.2043482 α      in ANC's #8, #6, #3, ...

........................................................................
.............................. CYCLE    5 ..............................
........................................................................

 iter      E             dE          RMSdq      gap      omega  full diag
   1    -33.0312376 -0.330312E+02  0.921E-02    2.20       0.0  T
   2    -33.0312464 -0.882471E-05  0.544E-02    2.20       1.0  T
   3    -33.0312464 -0.140350E-07  0.102E-02    2.21       2.0  T
   4    -33.0312466 -0.191153E-06  0.436E-03    2.21       4.8  T
   5    -33.0312469 -0.306780E-06  0.164E-03    2.21      12.7  T
   6    -33.0312469 -0.156946E-07  0.573E-04    2.21      36.4  T
   7    -33.0312469 -0.996167E-09  0.190E-04    2.21     109.8  T
     SCC iter.                  ...        0 min,  0.005 sec
     gradient                   ...        0 min,  0.002 sec
 * total energy  :   -32.6404531 Eh     change       -0.6336220E-03 Eh
   gradient norm :     0.0070987 Eh/α   predicted    -0.5235765E-03 ( -17.37%)
   displ. norm   :     0.2562372 α      lambda       -0.4503493E-03
   maximum displ.:     0.1629401 α      in ANC's #8, #3, #6, ...

........................................................................
.............................. CYCLE    6 ..............................
........................................................................

 iter      E             dE          RMSdq      gap      omega  full diag
   1    -33.0320508 -0.330321E+02  0.692E-02    2.22       0.0  T
   2    -33.0320522 -0.148346E-05  0.405E-02    2.22       1.0  T
   3    -33.0320524 -0.181500E-06  0.391E-03    2.23       5.3  T
   4    -33.0320525 -0.777247E-07  0.182E-03    2.23      11.4  T
   5    -33.0320525 -0.471228E-08  0.119E-03    2.23      17.5  T
   6    -33.0320525 -0.153823E-07  0.331E-04    2.23      63.0  T
   7    -33.0320525 -0.860716E-09  0.149E-04    2.23     140.0  T
     SCC iter.                  ...        0 min,  0.005 sec
     gradient                   ...        0 min,  0.002 sec
 * total energy  :   -32.6407628 Eh     change       -0.3097205E-03 Eh
   gradient norm :     0.0084796 Eh/α   predicted    -0.2399637E-03 ( -22.52%)
   displ. norm   :     0.2822674 α      lambda       -0.4049143E-03
   maximum displ.:     0.1622656 α      in ANC's #8, #3, #4, ...

........................................................................
.............................. CYCLE    7 ..............................
........................................................................

 iter      E             dE          RMSdq      gap      omega  full diag
   1    -33.0327330 -0.330327E+02  0.842E-02    2.22       0.0  T
   2    -33.0327349 -0.189648E-05  0.493E-02    2.22       1.0  T
   3    -33.0327352 -0.287321E-06  0.444E-03    2.23       4.7  T
   4    -33.0327353 -0.113981E-06  0.209E-03    2.23      10.0  T
   5    -33.0327353 -0.794881E-08  0.117E-03    2.23      17.9  T
   6    -33.0327353 -0.729701E-08  0.533E-04    2.23      39.1  T
   7    -33.0327353 -0.385074E-08  0.175E-04    2.23     119.0  T
     SCC iter.                  ...        0 min,  0.005 sec
     gradient                   ...        0 min,  0.001 sec
 * total energy  :   -32.6410263 Eh     change       -0.2634130E-03 Eh
   gradient norm :     0.0083149 Eh/α   predicted    -0.2186100E-03 ( -17.01%)
   displ. norm   :     0.2139449 α      lambda       -0.2620422E-03
   maximum displ.:     0.1246736 α      in ANC's #3, #8, #4, ...

........................................................................
.............................. CYCLE    8 ..............................
........................................................................

 iter      E             dE          RMSdq      gap      omega  full diag
   1    -33.0336812 -0.330337E+02  0.640E-02    2.22       0.0  T
   2    -33.0336833 -0.218003E-05  0.374E-02    2.21       1.0  T
   3    -33.0336835 -0.190630E-06  0.412E-03    2.21       5.1  T
   4    -33.0336836 -0.625204E-07  0.170E-03    2.21      12.3  T
   5    -33.0336836 -0.109456E-07  0.103E-03    2.21      20.3  T
   6    -33.0336836 -0.621163E-08  0.466E-04    2.21      44.7  T
   7    -33.0336836 -0.237913E-08  0.148E-04    2.21     140.8  T
     SCC iter.                  ...        0 min,  0.005 sec
     gradient                   ...        0 min,  0.002 sec
 * total energy  :   -32.6411999 Eh     change       -0.1736105E-03 Eh
   gradient norm :     0.0042685 Eh/α   predicted    -0.1370223E-03 ( -21.07%)
   displ. norm   :     0.1557591 α      lambda       -0.1220735E-03
   maximum displ.:     0.0866033 α      in ANC's #3, #1, #4, ...

........................................................................
.............................. CYCLE    9 ..............................
........................................................................

 iter      E             dE          RMSdq      gap      omega  full diag
   1    -33.0337259 -0.330337E+02  0.508E-02    2.20       0.0  T
   2    -33.0337263 -0.466511E-06  0.297E-02    2.20       1.0  T
   3    -33.0337264 -0.598991E-07  0.232E-03    2.20       9.0  T
   4    -33.0337264 -0.239461E-07  0.148E-03    2.20      14.0  T
   5    -33.0337265 -0.287420E-07  0.689E-04    2.20      30.3  T
   6    -33.0337265 -0.268756E-08  0.174E-04    2.20     119.6  T
     SCC iter.                  ...        0 min,  0.004 sec
     gradient                   ...        0 min,  0.002 sec
 * total energy  :   -32.6412860 Eh     change       -0.8608515E-04 Eh
   gradient norm :     0.0024169 Eh/α   predicted    -0.6251908E-04 ( -27.38%)
   displ. norm   :     0.1423707 α      lambda       -0.8228848E-04
   maximum displ.:     0.0720129 α      in ANC's #3, #1, #4, ...

........................................................................
.............................. CYCLE   10 ..............................
........................................................................

 iter      E             dE          RMSdq      gap      omega  full diag
   1    -33.0338334 -0.330338E+02  0.533E-02    2.19       0.0  T
   2    -33.0338336 -0.242764E-06  0.313E-02    2.19       1.0  T
   3    -33.0338336 -0.257911E-07  0.217E-03    2.19       9.6  T
   4    -33.0338337 -0.418221E-07  0.118E-03    2.19      17.7  T
   5    -33.0338337 -0.148586E-07  0.567E-04    2.19      36.7  T
   6    -33.0338337 -0.173669E-08  0.182E-04    2.19     114.8  T
     SCC iter.                  ...        0 min,  0.004 sec
     gradient                   ...        0 min,  0.002 sec
 * total energy  :   -32.6413457 Eh     change       -0.5975030E-04 Eh
   gradient norm :     0.0029654 Eh/α   predicted    -0.4197940E-04 ( -29.74%)
   displ. norm   :     0.1668088 α      lambda       -0.7811296E-04
   maximum displ.:     0.0864471 α      in ANC's #1, #3, #4, ...

........................................................................
.............................. CYCLE   11 ..............................
........................................................................

 iter      E             dE          RMSdq      gap      omega  full diag
   1    -33.0337395 -0.330337E+02  0.632E-02    2.19       0.0  T
   2    -33.0337398 -0.273155E-06  0.372E-02    2.19       1.0  T
   3    -33.0337398  0.326312E-07  0.278E-03    2.19       7.5  T
   4    -33.0337399 -0.116573E-06  0.145E-03    2.19      14.4  T
   5    -33.0337399 -0.213710E-07  0.602E-04    2.19      34.7  T
   6    -33.0337399 -0.135068E-08  0.197E-04    2.19     106.0  T
     SCC iter.                  ...        0 min,  0.004 sec
     gradient                   ...        0 min,  0.001 sec
 * total energy  :   -32.6414009 Eh     change       -0.5519108E-04 Eh
   gradient norm :     0.0035207 Eh/α   predicted    -0.4014378E-04 ( -27.26%)
   displ. norm   :     0.1762700 α      lambda       -0.7177646E-04
   maximum displ.:     0.0921145 α      in ANC's #1, #3, #4, ...

........................................................................
.............................. CYCLE   12 ..............................
........................................................................

 iter      E             dE          RMSdq      gap      omega  full diag
   1    -33.0335656 -0.330336E+02  0.697E-02    2.18       0.0  T
   2    -33.0335660 -0.378854E-06  0.410E-02    2.19       1.0  T
   3    -33.0335660 -0.193672E-07  0.248E-03    2.19       8.4  T
   4    -33.0335661 -0.625742E-07  0.156E-03    2.19      13.4  T
   5    -33.0335661 -0.310556E-07  0.662E-04    2.19      31.5  T
   6    -33.0335661 -0.116401E-08  0.180E-04    2.19     115.9  T
     SCC iter.                  ...        0 min,  0.004 sec
     gradient                   ...        0 min,  0.002 sec
 * total energy  :   -32.6414498 Eh     change       -0.4892601E-04 Eh
   gradient norm :     0.0029098 Eh/α   predicted    -0.3700518E-04 ( -24.37%)
   displ. norm   :     0.1488006 α      lambda       -0.5454865E-04
   maximum displ.:     0.0775916 α      in ANC's #1, #2, #4, ...

........................................................................
.............................. CYCLE   13 ..............................
........................................................................

 iter      E             dE          RMSdq      gap      omega  full diag
   1    -33.0338733 -0.330339E+02  0.531E-02    2.19       0.0  T
   2    -33.0338735 -0.162640E-06  0.313E-02    2.19       1.0  T
   3    -33.0338728  0.690283E-06  0.625E-03    2.19       3.3  T
   4    -33.0338736 -0.806904E-06  0.977E-04    2.19      21.3  T
   5    -33.0338736 -0.435762E-08  0.507E-04    2.19      41.1  T
     SCC iter.                  ...        0 min,  0.003 sec
     gradient                   ...        0 min,  0.002 sec
 * total energy  :   -32.6414886 Eh     change       -0.3882418E-04 Eh
   gradient norm :     0.0020452 Eh/α   predicted    -0.2788271E-04 ( -28.18%)
   displ. norm   :     0.1299922 α      lambda       -0.4505400E-04
   maximum displ.:     0.0647836 α      in ANC's #1, #2, #4, ...

........................................................................
.............................. CYCLE   14 ..............................
........................................................................

 iter      E             dE          RMSdq      gap      omega  full diag
   1    -33.0340311 -0.330340E+02  0.399E-02    2.20       0.0  T
   2    -33.0340313 -0.165402E-06  0.235E-02    2.20       1.0  T
   3    -33.0340312  0.884378E-07  0.289E-03    2.20       7.2  T
   4    -33.0340313 -0.134508E-06  0.106E-03    2.20      19.7  T
   5    -33.0340313 -0.126565E-07  0.472E-04    2.20      44.2  T
   6    -33.0340313 -0.763123E-09  0.118E-04    2.20     176.0  T
     SCC iter.                  ...        0 min,  0.004 sec
     gradient                   ...        0 min,  0.002 sec
 * total energy  :   -32.6415220 Eh     change       -0.3338818E-04 Eh
   gradient norm :     0.0020903 Eh/α   predicted    -0.2291203E-04 ( -31.38%)
   displ. norm   :     0.1301760 α      lambda       -0.4273757E-04
   maximum displ.:     0.0622548 α      in ANC's #1, #8, #2, ...

........................................................................
.............................. CYCLE   15 ..............................
........................................................................

 iter      E             dE          RMSdq      gap      omega  full diag
   1    -33.0344817 -0.330345E+02  0.335E-02    2.20       0.0  T
   2    -33.0344818 -0.108752E-06  0.198E-02    2.20       1.1  T
   3    -33.0344818 -0.234430E-07  0.122E-03    2.21      17.1  T
   4    -33.0344819 -0.782957E-08  0.716E-04    2.21      29.1  T
   5    -33.0344819 -0.274164E-08  0.419E-04    2.20      49.8  T
     SCC iter.                  ...        0 min,  0.011 sec
     gradient                   ...        0 min,  0.002 sec
 * total energy  :   -32.6415530 Eh     change       -0.3096561E-04 Eh
   gradient norm :     0.0026323 Eh/α   predicted    -0.2173241E-04 ( -29.82%)
   displ. norm   :     0.1628562 α      lambda       -0.3851371E-04
   maximum displ.:     0.0847980 α      in ANC's #1, #2, #4, ...

........................................................................
.............................. CYCLE   16 ..............................
........................................................................

 iter      E             dE          RMSdq      gap      omega  full diag
   1    -33.0337102 -0.330337E+02  0.424E-02    2.21       0.0  T
   2    -33.0337104 -0.239340E-06  0.249E-02    2.21       1.0  T
   3    -33.0337103  0.108261E-06  0.335E-03    2.21       6.2  T
   4    -33.0337105 -0.181558E-06  0.132E-03    2.21      15.8  T
   5    -33.0337105 -0.161414E-07  0.564E-04    2.21      37.0  T
   6    -33.0337105 -0.979597E-09  0.121E-04    2.21     172.6  T
     SCC iter.                  ...        0 min,  0.007 sec
     gradient                   ...        0 min,  0.001 sec
 * total energy  :   -32.6415761 Eh     change       -0.2311670E-04 Eh
   gradient norm :     0.0030268 Eh/α   predicted    -0.1976878E-04 ( -14.48%)
   displ. norm   :     0.0994068 α      lambda       -0.3247969E-04
   maximum displ.:     0.0494228 α      in ANC's #8, #6, #2, ...

........................................................................
.............................. CYCLE   17 ..............................
........................................................................

 iter      E             dE          RMSdq      gap      omega  full diag
   1    -33.0347250 -0.330347E+02  0.314E-02    2.21       0.0  T
   2    -33.0347252 -0.262466E-06  0.184E-02    2.20       1.1  T
   3    -33.0347251  0.109541E-06  0.305E-03    2.20       6.8  T
   4    -33.0347252 -0.116221E-06  0.137E-03    2.20      15.2  T
   5    -33.0347253 -0.319181E-07  0.389E-04    2.20      53.6  T
   6    -33.0347253 -0.224361E-09  0.112E-04    2.20     186.5  T
     SCC iter.                  ...        0 min,  0.011 sec
     gradient                   ...        0 min,  0.006 sec
 * total energy  :   -32.6415905 Eh     change       -0.1434331E-04 Eh
   gradient norm :     0.0021429 Eh/α   predicted    -0.1640166E-04 (  14.35%)
   displ. norm   :     0.0508631 α      lambda       -0.1342220E-04
   maximum displ.:     0.0342399 α      in ANC's #1, #4, #2, ...

........................................................................
.............................. CYCLE   18 ..............................
........................................................................

 iter      E             dE          RMSdq      gap      omega  full diag
   1    -33.0343020 -0.330343E+02  0.156E-02    2.20       0.0  T
   2    -33.0343020 -0.627729E-07  0.913E-03    2.20       2.3  T
   3    -33.0343020 -0.226488E-08  0.934E-04    2.20      22.3  T
   4    -33.0343020 -0.821754E-08  0.439E-04    2.20      47.5  T
     SCC iter.                  ...        0 min,  0.010 sec
     gradient                   ...        0 min,  0.002 sec
 * total energy  :   -32.6416002 Eh     change       -0.9779313E-05 Eh
   gradient norm :     0.0010417 Eh/α   predicted    -0.6732532E-05 ( -31.16%)
   displ. norm   :     0.0611103 α      lambda       -0.1042622E-04
   maximum displ.:     0.0414714 α      in ANC's #1, #5, #2, ...

........................................................................
.............................. CYCLE   19 ..............................
........................................................................

 iter      E             dE          RMSdq      gap      omega  full diag
   1    -33.0342385 -0.330342E+02  0.262E-02    2.20       0.0  T
   2    -33.0342386 -0.982005E-07  0.154E-02    2.20       1.4  T
   3    -33.0342386 -0.467378E-08  0.108E-03    2.20      19.3  T
   4    -33.0342386 -0.110752E-07  0.510E-04    2.20      40.9  T
   5    -33.0342386 -0.184393E-08  0.267E-04    2.20      78.1  T
     SCC iter.                  ...        0 min,  0.003 sec
     gradient                   ...        0 min,  0.002 sec
 * total energy  :   -32.6416082 Eh     change       -0.8007299E-05 Eh
   gradient norm :     0.0014425 Eh/α   predicted    -0.5226590E-05 ( -34.73%)
   displ. norm   :     0.0401855 α      lambda       -0.4396421E-05
   maximum displ.:     0.0309593 α      in ANC's #1, #2, #5, ...

........................................................................
.............................. CYCLE   20 ..............................
........................................................................

 iter      E             dE          RMSdq      gap      omega  full diag
   1    -33.0340357 -0.330340E+02  0.156E-02    2.20       0.0  T
   2    -33.0340357 -0.198597E-07  0.912E-03    2.20       2.3  T
   3    -33.0340357  0.112809E-08  0.608E-04    2.20      34.3  T
   4    -33.0340357 -0.435448E-08  0.339E-04    2.20      61.5  T
     SCC iter.                  ...        0 min,  0.003 sec
     gradient                   ...        0 min,  0.002 sec
 * total energy  :   -32.6416134 Eh     change       -0.5111852E-05 Eh
   gradient norm :     0.0010580 Eh/α   predicted    -0.2204104E-05 ( -56.88%)
   displ. norm   :     0.1025057 α      lambda       -0.1190143E-04
   maximum displ.:     0.0723674 α      in ANC's #1, #5, #3, ...
 * RMSD in coord.:     0.4778928 α      energy gain  -0.2180518E-01 Eh

generating ANC from exact Hessian ...
Using Lindh-Hessian (1995)
 Shifting diagonal of input Hessian by   9.151143021323083E-003
 Lowest  eigenvalues of input Hessian
    0.000000    0.000000    0.000000    0.000000    0.000000    0.000000
    0.010000    0.010618    0.010930    0.013745    0.015289    0.015968
    0.019139    0.019415    0.024336    0.027651    0.028619    0.030069
 Highest eigenvalues
    1.461020    1.491969    1.510553    1.820042    1.953009    2.396930
 

........................................................................
.............................. CYCLE   21 ..............................
........................................................................

 iter      E             dE          RMSdq      gap      omega  full diag
   1    -33.0344160 -0.330344E+02  0.527E-02    2.19       0.0  T
   2    -33.0344162 -0.149611E-06  0.309E-02    2.19       1.0  T
   3    -33.0344162 -0.644522E-08  0.146E-03    2.19      14.3  T
   4    -33.0344162 -0.222897E-07  0.899E-04    2.19      23.2  T
   5    -33.0344162 -0.111418E-07  0.341E-04    2.19      61.2  T
     SCC iter.                  ...        0 min,  0.003 sec
     gradient                   ...        0 min,  0.001 sec
 * total energy  :   -32.6416247 Eh     change       -0.1136616E-04 Eh
   gradient norm :     0.0011012 Eh/α   predicted     0.0000000E+00 (-100.00%)
   displ. norm   :     0.0215957 α      lambda       -0.4625021E-05
   maximum displ.:     0.0182525 α      in ANC's #1, #5, #13, ...

........................................................................
.............................. CYCLE   22 ..............................
........................................................................

 iter      E             dE          RMSdq      gap      omega  full diag
   1    -33.0342914 -0.330343E+02  0.115E-02    2.20       0.0  T
   2    -33.0342915 -0.219297E-07  0.674E-03    2.20       3.1  T
   3    -33.0342915  0.480486E-08  0.803E-04    2.20      26.0  T
   4    -33.0342915 -0.893579E-08  0.258E-04    2.20      80.8  T
     SCC iter.                  ...        0 min,  0.003 sec
     gradient                   ...        0 min,  0.002 sec
 * total energy  :   -32.6416296 Eh     change       -0.4871111E-05 Eh
   gradient norm :     0.0003336 Eh/α   predicted    -0.2318490E-05 ( -52.40%)
   displ. norm   :     0.0294774 α      lambda       -0.3131900E-05
   maximum displ.:     0.0251956 α      in ANC's #1, #11, #5, ...

   *** GEOMETRY OPTIMIZATION CONVERGED AFTER 22 ITERATIONS ***

------------------------------------------------------------------------
 total energy gain   :        -0.0218214 Eh      -13.6931 kcal/mol
 total RMSD          :         0.4790864 a0        0.2535 Å
 total power (kW/mol):        -2.6041878 (step) -275.4165 (real)
------------------------------------------------------------------------

 ANCopt (total)                0 d,  0 h,  0 min,  0.208 sec
 optimizer setup                ...        0 min,  0.000 sec (  0.049%)
 model hessian                  ...        0 min,  0.016 sec (  7.532%)
 ANC generation                 ...        0 min,  0.001 sec (  0.444%)
 coordinate transformation      ...        0 min,  0.000 sec (  0.085%)
 single point calculation       ...        0 min,  0.176 sec ( 84.383%)
 optimization log               ...        0 min,  0.009 sec (  4.404%)
 hessian update                 ...        0 min,  0.004 sec (  1.948%)
 rational function              ...        0 min,  0.002 sec (  0.726%)

================
 final structure:
================
23
 xtb: 6.7.1 (edcfbbe)
C           -2.69312864867070       -1.79781323195825       -0.27394340033990
N           -2.01879831932994       -0.65310678172281        0.30414737823663
C           -2.83231393188733        0.54031553091423        0.18606005372160
C           -0.69775322428283       -0.47594863095457       -0.26890869281197
C            0.16174681945356        0.45864005234323        0.57814502609209
O            1.51720294672455        0.29402454969614        0.17053894378211
C            2.39201979084772        1.18557949275957        0.65371261407552
O            2.08457769434688        2.07875841104154        1.40530421989274
C            3.77052166369013        0.96481474046097        0.16320033407888
C            4.10052011736568        0.04709858392551       -0.73295953950884
H           -2.09456004525819       -2.69138597468300       -0.10471564475952
H           -3.65389040370283       -1.92733751966136        0.22141370624068
H           -2.86856020495597       -1.69038238539189       -1.35581723391488
H           -2.35915048025980        1.36006108217777        0.72113404326063
H           -3.80305278981349        0.35049037608207        0.64074675714009
H           -2.98883116557281        0.84287652419047       -0.86166578145839
H           -0.73774706799443       -0.09859972943878       -1.30652496411340
H           -0.20020640030912       -1.44890195831560       -0.28346303785509
H            0.06285782099126        0.19675356279148        1.63727838016235
H           -0.11534077537698        1.51050890918310        0.45604504713774
H            4.49714360303379        1.63849888451126        0.59431475679140
H            5.11601188166728       -0.07398118201205       -1.07115622409804
H            3.36073211929348       -0.61096230593892       -1.15647674175224
 
 Bond Distances (Angstroems)
 ---------------------------
C1-N2=1.4489         C1-H11=1.0888        C1-H12=1.0887        C1-H13=1.1013        N2-C1=1.4489         N2-C3=1.4491         
N2-C4=1.4508         C3-N2=1.4491         C3-H14=1.0873        C3-H15=1.0886        C3-H16=1.1017        C4-N2=1.4508         
C4-C5=1.5263         C4-H17=1.1048        C4-H18=1.0929        C5-C4=1.5263         C5-O6=1.4250         C5-H19=1.0955        
C5-H20=1.0946        O6-C5=1.4250         O6-C7=1.3393         C7-O6=1.3393         C7-O8=1.2071         C7-C9=1.4797         
O8-C7=1.2071         C9-C7=1.4797         C9-C10=1.3245        C9-H21=1.0806        C10-C9=1.3245        C10-H22=1.0772       
C10-H23=1.0769       H11-C1=1.0888        H12-C1=1.0887        H13-C1=1.1013        H14-C3=1.0873        H15-C3=1.0886        
H16-C3=1.1017        H17-C4=1.1048        H18-C4=1.0929        H19-C5=1.0955        H20-C5=1.0946        H21-C9=1.0806        
H22-C10=1.0772       H23-C10=1.0769       
 C  H  Rav=1.0907 sigma=0.0087  Rmin=1.0769  Rmax=1.1048    13
 C  C  Rav=1.4435 sigma=0.0863  Rmin=1.3245  Rmax=1.5263     3
 N  C  Rav=1.4496 sigma=0.0009  Rmin=1.4489  Rmax=1.4508     3
 O  C  Rav=1.3238 sigma=0.0896  Rmin=1.2071  Rmax=1.4250     3
 
 selected bond angles (degree)
 --------------------
H11-C1-N2=109.30               H12-C1-N2=108.86               H12-C1-H11=108.47              H13-C1-N2=112.89               
H13-C1-H11=108.68              H13-C1-H12=108.54              C3-N2-C1=110.91                C4-N2-C1=111.26                
C4-N2-C3=112.24                H14-C3-N2=109.66               H15-C3-N2=108.84               H15-C3-H14=108.30              
H16-C3-N2=112.55               H16-C3-H14=108.83              H16-C3-H15=108.57              C5-C4-N2=111.61                
H17-C4-N2=112.32               H17-C4-C5=109.42               H18-C4-N2=108.12               H18-C4-C5=107.23               
H18-C4-H17=107.94              O6-C5-C4=107.83                H19-C5-C4=109.84               H19-C5-O6=109.56               
H20-C5-C4=112.58               H20-C5-O6=108.66               H20-C5-H19=108.34              C7-O6-C5=116.18                
O8-C7-O6=123.42                C9-C7-O6=112.93                C9-C7-O8=123.64                C10-C9-C7=124.04               
H21-C9-C7=113.65               H21-C9-C10=122.30              H22-C10-C9=121.68              H23-C10-C9=121.22              
H23-C10-H22=117.10             
 
 selected dihedral angles (degree)
 ---------------------------------
C3-N2-C1-H11=184.24           C3-N2-C1-H12=302.55           C3-N2-C1-H13= 63.15           C4-N2-C1-H11= 58.55           
C4-N2-C1-H12=176.87           C4-N2-C1-H13=297.47           H14-C3-N2-C1=173.76           H14-C3-N2-C4=298.90           
H15-C3-N2-C1= 55.45           H15-C3-N2-C4=180.59           H16-C3-N2-C1=295.06           H16-C3-N2-C4= 60.20           
C5-C4-N2-C1=195.80            C5-C4-N2-C3= 70.85            H17-C4-N2-C1= 72.49           H17-C4-N2-C3=307.54           
H18-C4-N2-C1=313.49           H18-C4-N2-C3=188.55           O6-C5-C4-N2=164.35            O6-C5-C4-H17=289.29           
O6-C5-C4-H18= 46.11           H19-C5-C4-N2= 45.02           H19-C5-C4-H17=169.95          H19-C5-C4-H18=286.78          
H20-C5-C4-N2=284.19           H20-C5-C4-H17= 49.13          H20-C5-C4-H18=165.96          C7-O6-C5-C4=169.72            
C7-O6-C5-H19=289.22           C7-O6-C5-H20= 47.42           O8-C7-O6-C5=  0.86            C9-C7-O6-C5=181.20            
C10-C9-C7-O6=  4.59           C10-C9-C7-O8=184.93           H21-C9-C7-O6=183.67           H21-C9-C7-O8=  4.01           
H22-C10-C9-C7=179.35          H22-C10-C9-H21=  0.34         H23-C10-C9-C7=359.43          H23-C10-C9-H21=180.43         
           -------------------------------------------------
          |                Final Singlepoint                |
           -------------------------------------------------

          ...................................................
          :                      SETUP                      :
          :.................................................:
          :  # basis functions                  53          :
          :  # atomic orbitals                  53          :
          :  # shells                           33          :
          :  # electrons                        58          :
          :  max. iterations                   250          :
          :  Hamiltonian                  GFN2-xTB          :
          :  restarted?                      false          :
          :  GBSA solvation                  false          :
          :  PC potential                    false          :
          :  electronic temp.          300.0000000     K    :
          :  accuracy                    1.0000000          :
          :  -> integral cutoff          0.2500000E+02      :
          :  -> integral neglect         0.1000000E-07      :
          :  -> SCF convergence          0.1000000E-05 Eh   :
          :  -> wf. convergence          0.1000000E-03 e    :
          :  Broyden damping             0.4000000          :
          :  net charge                          0          :
          :  unpaired electrons                  0          :
          ...................................................

 iter      E             dE          RMSdq      gap      omega  full diag
   1    -33.0342915 -0.330343E+02  0.154E-04    2.20       0.0  T
   2    -33.0342915 -0.192344E-10  0.119E-04    2.20     174.8  T
   3    -33.0342915 -0.177018E-09  0.605E-05    2.20     344.6  T

   *** convergence criteria satisfied after 3 iterations ***

         #    Occupation            Energy/Eh            Energy/eV
      -------------------------------------------------------------
         1        2.0000           -0.7417626             -20.1844
       ...           ...                  ...                  ...
        23        2.0000           -0.4617857             -12.5658
        24        2.0000           -0.4604483             -12.5294
        25        2.0000           -0.4530929             -12.3293
        26        2.0000           -0.4421231             -12.0308
        27        2.0000           -0.4356597             -11.8549
        28        2.0000           -0.4140990             -11.2682
        29        2.0000           -0.3584197              -9.7531 (HOMO)
        30                         -0.2775808              -7.5534 (LUMO)
        31                         -0.1659785              -4.5165
        32                         -0.0153477              -0.4176
        33                          0.0564272               1.5355
        34                          0.0779823               2.1220
       ...                                ...                  ...
        53                          0.6997975              19.0425
      -------------------------------------------------------------
                  HL-Gap            0.0808389 Eh            2.1997 eV
             Fermi-level           -0.3180003 Eh           -8.6532 eV

 SCC (total)                   0 d,  0 h,  0 min,  0.005 sec
 SCC setup                      ...        0 min,  0.000 sec (  2.436%)
 Dispersion                     ...        0 min,  0.000 sec (  2.560%)
 classical contributions        ...        0 min,  0.000 sec (  0.938%)
 integral evaluation            ...        0 min,  0.000 sec (  7.969%)
 iterations                     ...        0 min,  0.002 sec ( 44.636%)
 molecular gradient             ...        0 min,  0.002 sec ( 39.208%)
 printout                       ...        0 min,  0.000 sec (  1.811%)

         :::::::::::::::::::::::::::::::::::::::::::::::::::::
         ::                     SUMMARY                     ::
         :::::::::::::::::::::::::::::::::::::::::::::::::::::
         :: total energy             -32.641629596617 Eh    ::
         :: gradient norm              0.000333970442 Eh/a0 ::
         :: HOMO-LUMO gap              2.199738828890 eV    ::
         ::.................................................::
         :: SCC energy               -33.034330786519 Eh    ::
         :: -> isotropic ES            0.049963824670 Eh    ::
         :: -> anisotropic ES          0.003702689624 Eh    ::
         :: -> anisotropic XC          0.015709634096 Eh    ::
         :: -> dispersion             -0.015077135827 Eh    ::
         :: repulsion energy           0.392701189902 Eh    ::
         :: add. restraining           0.000000000000 Eh    ::
         :: total charge               0.000000000000 e     ::
         :::::::::::::::::::::::::::::::::::::::::::::::::::::

           -------------------------------------------------
          |                Property Printout                |
           -------------------------------------------------

    * Orbital Energies and Occupations

         #    Occupation            Energy/Eh            Energy/eV
      -------------------------------------------------------------
         1        2.0000           -0.7417626             -20.1844
       ...           ...                  ...                  ...
        17        2.0000           -0.5109550             -13.9038
        18        2.0000           -0.5071080             -13.7991
        19        2.0000           -0.4897725             -13.3274
        20        2.0000           -0.4793511             -13.0438
        21        2.0000           -0.4773822             -12.9902
        22        2.0000           -0.4657134             -12.6727
        23        2.0000           -0.4617857             -12.5658
        24        2.0000           -0.4604483             -12.5294
        25        2.0000           -0.4530929             -12.3293
        26        2.0000           -0.4421231             -12.0308
        27        2.0000           -0.4356597             -11.8549
        28        2.0000           -0.4140990             -11.2682
        29        2.0000           -0.3584197              -9.7531 (HOMO)
        30                         -0.2775808              -7.5534 (LUMO)
        31                         -0.1659785              -4.5165
        32                         -0.0153477              -0.4176
        33                          0.0564272               1.5355
        34                          0.0779823               2.1220
        35                          0.1038513               2.8259
        36                          0.1041940               2.8353
        37                          0.1183302               3.2199
        38                          0.1264482               3.4408
        39                          0.1309803               3.5642
        40                          0.1475038               4.0138
       ...                                ...                  ...
        53                          0.6997975              19.0425
      -------------------------------------------------------------
                  HL-Gap            0.0808389 Eh            2.1997 eV
             Fermi-level           -0.3180003 Eh           -8.6532 eV

     #   Z          covCN         q      C6AA      α(0)
     1   6 C        3.718    -0.035    21.320     6.596
     2   7 N        2.725    -0.173    24.752     7.389
     3   6 C        3.715    -0.038    21.374     6.605
     4   6 C        3.763     0.004    20.550     6.462
     5   6 C        3.706     0.077    19.440     6.303
     6   8 O        1.705    -0.265    18.396     5.791
     7   6 C        2.725     0.355    20.965     7.496
     8   8 O        0.857    -0.412    21.923     6.278
     9   6 C        2.887    -0.057    29.418     8.892
    10   6 C        2.838    -0.063    29.551     8.909
    11   1 H        0.925     0.041     2.431     2.438
    12   1 H        0.925     0.046     2.373     2.409
    13   1 H        0.923     0.016     2.797     2.616
    14   1 H        0.925     0.041     2.430     2.438
    15   1 H        0.925     0.046     2.373     2.409
    16   1 H        0.923     0.016     2.788     2.611
    17   1 H        0.922     0.022     2.699     2.569
    18   1 H        0.924     0.055     2.260     2.351
    19   1 H        0.924     0.061     2.183     2.310
    20   1 H        0.924     0.056     2.252     2.347
    21   1 H        0.926     0.072     2.064     2.246
    22   1 H        0.926     0.063     2.166     2.301
    23   1 H        0.926     0.071     2.075     2.252

 Mol. C6AA /au·bohr⁶  :       4544.911246
 Mol. C8AA /au·bohr⁸  :      98179.565269
 Mol. α(0) /au        :        102.018335


Wiberg/Mayer (AO) data.
largest (>0.10) Wiberg bond orders for each atom

 ---------------------------------------------------------------------------
     #   Z sym  total        # sym  WBO       # sym  WBO       # sym  WBO
 ---------------------------------------------------------------------------
     1   6 C    3.985 --     2 N    1.014    11 H    0.982    12 H    0.982
                            13 H    0.974
     2   7 N    3.120 --     3 C    1.015     1 C    1.014     4 C    1.009
     3   6 C    3.985 --     2 N    1.015    15 H    0.982    14 H    0.981
                            16 H    0.973
     4   6 C    3.987 --     2 N    1.009     5 C    0.998    18 H    0.970
                            17 H    0.963
     5   6 C    3.927 --     4 C    0.998    20 H    0.966    19 H    0.965
                             6 O    0.943
     6   8 O    2.304 --     7 C    1.122     5 C    0.943     8 O    0.173
     7   6 C    3.920 --     8 O    1.725     6 O    1.122     9 C    1.012
     8   8 O    2.032 --     7 C    1.725     6 O    0.173
     9   6 C    3.987 --    10 C    1.935     7 C    1.012    21 H    0.963
    10   6 C    3.984 --     9 C    1.935    22 H    0.975    23 H    0.972
    11   1 H    0.998 --     1 C    0.982
    12   1 H    0.998 --     1 C    0.982
    13   1 H    1.000 --     1 C    0.974
    14   1 H    0.998 --     3 C    0.981
    15   1 H    0.998 --     3 C    0.982
    16   1 H    1.000 --     3 C    0.973
    17   1 H    1.000 --     4 C    0.963
    18   1 H    0.997 --     4 C    0.970
    19   1 H    0.996 --     5 C    0.965
    20   1 H    0.997 --     5 C    0.966
    21   1 H    0.994 --     9 C    0.963
    22   1 H    0.996 --    10 C    0.975
    23   1 H    0.995 --    10 C    0.972
 ---------------------------------------------------------------------------

Topologies differ in total number of bonds
Writing topology from bond orders to xtbtopo.mol

molecular dipole:
                 x           y           z       tot (Debye)
 q only:       -0.171      -0.828      -0.677
   full:       -0.168      -0.802      -1.017       3.320
molecular quadrupole (traceless):
                xx          xy          yy          xz          yz          zz
 q only:        9.726      -3.655      -5.562      -5.162      -3.416      -4.164
  q+dip:        9.835      -4.602      -6.312      -3.757      -3.756      -3.523
   full:       10.057      -4.623      -6.163      -3.524      -4.592      -3.893

           -------------------------------------------------
          |                Geometry Summary                 |
           -------------------------------------------------

      molecular mass/u    :      143.1838941
   center of mass at/Å    :        0.5167032       0.2600435       0.2182919
  moments of inertia/u·Å² :        0.1599488E+03   0.9497156E+03   0.1076053E+04
rotational constants/cm⁻¹ :        0.1053939E+00   0.1775019E-01   0.1566618E-01

 * 21 selected distances

     #   Z          #   Z                                           value/Å
     1   6 C        2   7 N                                       1.4488836
     2   7 N        3   6 C                                       1.4491409
     2   7 N        4   6 C                                       1.4508407
     4   6 C        5   6 C                                       1.5263344 (max)
     5   6 C        6   8 O                                       1.4249571
     6   8 O        7   6 C                                       1.3392654
     7   6 C        8   8 O                                       1.2071369
     9   6 C       10   6 C                                       1.3244640
     1   6 C       11   1 H                                       1.0887584
     1   6 C       12   1 H                                       1.0886774
     1   6 C       13   1 H                                       1.1012578
     3   6 C       14   1 H                                       1.0872768
     3   6 C       15   1 H                                       1.0886265
     3   6 C       16   1 H                                       1.1017125
     4   6 C       17   1 H                                       1.1048255
     4   6 C       18   1 H                                       1.0928875
     5   6 C       19   1 H                                       1.0955032
     5   6 C       20   1 H                                       1.0945841
     9   6 C       21   1 H                                       1.0805969
    10   6 C       22   1 H                                       1.0771541
    10   6 C       23   1 H                                       1.0768925 (min)

 * 4 distinct bonds (by element types)

   Z      Z             #   av. dist./Å        max./Å        min./Å
   1 H    6 C          13     1.0906733     1.1048255     1.0768925
   6 C    6 C           2     1.4253992     1.5263344     1.3244640
   6 C    7 N           3     1.4496217     1.4508407     1.4488836
   6 C    8 O           3     1.3237865     1.4249571     1.2071369


optimized geometry written to: xtbopt.xyz


           -------------------------------------------------
          | TOTAL ENERGY              -32.641629596617 Eh   |
          | GRADIENT NORM               0.000333970442 Eh/α |
          | HOMO-LUMO GAP               2.199738828890 eV   |
           -------------------------------------------------
########################################################################
[WARNING] Runtime exception occurred
-2- restart_readRestart: Dimension missmatch in restart file.
-1- restart_readRestart: Number of electron missmatch in restart file.
########################################################################

------------------------------------------------------------------------
 * finished run on 2025/12/01 at 14:22:08.623     
------------------------------------------------------------------------
 total:
 * wall-time:     0 d,  0 h,  0 min,  0.244 sec
 *  cpu-time:     0 d,  0 h,  0 min,  5.503 sec
 * ratio c/w:    22.556 speedup
 SCF:
 * wall-time:     0 d,  0 h,  0 min,  0.022 sec
 *  cpu-time:     0 d,  0 h,  0 min,  0.495 sec
 * ratio c/w:    22.824 speedup
 ANC optimizer:
 * wall-time:     0 d,  0 h,  0 min,  0.214 sec
 *  cpu-time:     0 d,  0 h,  0 min,  4.842 sec
 * ratio c/w:    22.653 speedup

normal termination of xtb
