      -----------------------------------------------------------      
     |                   =====================                   |     
     |                           x T B                           |     
     |                   =====================                   |     
     |                         S. Grimme                         |     
     |          Mulliken Center for Theoretical Chemistry        |     
     |                    University of Bonn                     |     
      -----------------------------------------------------------      

   * xtb version 6.7.1 (edcfbbe) compiled by 'albert@albert-system' on 2024-07-22

   xtb is free software: you can redistribute it and/or modify it under
   the terms of the GNU Lesser General Public License as published by
   the Free Software Foundation, either version 3 of the License, or
   (at your option) any later version.
   
   xtb is distributed in the hope that it will be useful,
   but WITHOUT ANY WARRANTY; without even the implied warranty of
   MERCHANTABILITY or FITNESS FOR A PARTICULAR PURPOSE.  See the
   GNU Lesser General Public License for more details.
   
   Cite this work as:
   * C. Bannwarth, E. Caldeweyher, S. Ehlert, A. Hansen, P. Pracht,
     J. Seibert, S. Spicher, S. Grimme, WIREs Comput. Mol. Sci., 2020, 11,
     e01493. DOI: 10.1002/wcms.1493
   
   for GFN2-xTB:
   * C. Bannwarth, S. Ehlert and S. Grimme., J. Chem. Theory Comput., 2019,
     15, 1652-1671. DOI: 10.1021/acs.jctc.8b01176
   for GFN1-xTB:
   * S. Grimme, C. Bannwarth, P. Shushkov, J. Chem. Theory Comput., 2017,
     13, 1989-2009. DOI: 10.1021/acs.jctc.7b00118
   for GFN0-xTB:
   * P. Pracht, E. Caldeweyher, S. Ehlert, S. Grimme, ChemRxiv, 2019, preprint.
     DOI: 10.26434/chemrxiv.8326202.v1
   for GFN-FF:
   * S. Spicher and S. Grimme, Angew. Chem. Int. Ed., 2020, 59, 15665-15673.
     DOI: 10.1002/anie.202004239
   
   for ALPB and GBSA implicit solvation:
   * S. Ehlert, M. Stahn, S. Spicher, S. Grimme, J. Chem. Theory Comput.,
     2021, 17, 4250-4261. DOI: 10.1021/acs.jctc.1c00471
   
   for ddCOSMO and CPCM-X implicit solvation:
   * M. Stahn, S. Ehlert, S. Grimme, J. Phys. Chem. A,
     2023, XX, XXXX-XXXX. DOI: 10.1021/acs.jpca.3c04382
   
   for DFT-D4:
   * E. Caldeweyher, C. Bannwarth and S. Grimme, J. Chem. Phys., 2017,
     147, 034112. DOI: 10.1063/1.4993215
   * E. Caldeweyher, S. Ehlert, A. Hansen, H. Neugebauer, S. Spicher,
     C. Bannwarth and S. Grimme, J. Chem. Phys., 2019, 150, 154122.
     DOI: 10.1063/1.5090222
   * E. Caldeweyher, J.-M. Mewes, S. Ehlert and S. Grimme, Phys. Chem. Chem. Phys.
     2020, 22, 8499-8512. DOI: 10.1039/D0CP00502A
   
   for sTDA-xTB:
   * S. Grimme and C. Bannwarth, J. Chem. Phys., 2016, 145, 054103.
     DOI: 10.1063/1.4959605
   
   in the mass-spec context:
   * V. Asgeirsson, C. Bauer and S. Grimme, Chem. Sci., 2017, 8, 4879.
     DOI: 10.1039/c7sc00601b
   * J. Koopman and S. Grimme, ACS Omega 2019, 4, 12, 15120-15133.
     DOI: 10.1021/acsomega.9b02011
   
   for metadynamics refer to:
   * S. Grimme, J. Chem. Theory Comput., 2019, 155, 2847-2862
     DOI: 10.1021/acs.jctc.9b00143
   
   for SPH calculations refer to:
   * S. Spicher and S. Grimme, J. Chem. Theory Comput., 2021, 17, 1701-1714
     DOI: 10.1021/acs.jctc.0c01306
   
   for ONIOM refer to:
   * C. Plett, A. Katbashev, S. Ehlert, S. Grimme, M. Bursch,
     Phys. Chem. Chem. Phys., 2023, 25, 17860-17868. DOI: 10.1039/D3CP02178E
   
   for DIPRO refer to:
   * J. Kohn, N. Gildemeister, S. Grimme, D. Fazzi, A. Hansen,
     J. Chem. Phys., 2023, just accepted.
   
   for PTB refer to:
   * S. Grimme, M. Mueller, A. Hansen, J. Chem. Phys., 2023, 158, 124111.
     DOI: 10.1063/5.0137838
   
   with help from (in alphabetical order)
   P. Atkinson, C. Bannwarth, F. Bohle, G. Brandenburg, E. Caldeweyher
   M. Checinski, S. Dohm, S. Ehlert, S. Ehrlich, I. Gerasimov, C. Hölzer
   A. Katbashev, J. Kohn, J. Koopman, C. Lavigne, S. Lehtola, F. März, M. Müller,
   F. Musil, H. Neugebauer, J. Pisarek, C. Plett, P. Pracht, F. Pultar,
   J. Seibert, P. Shushkov, S. Spicher, M. Stahn, M. Steiner, T. Strunk,
   J. Stückrath, T. Rose, and J. Unsleber
   
 * started run on 2025/12/01 at 14:22:10.777     
   ID    Z sym.   atoms
    1   35 Br     1, 4, 6, 15, 17
    2    6 C      2, 3, 5, 7, 8, 10, 12-14, 16
    3    8 O      9, 11
    4    1 H      18-22

           -------------------------------------------------
          |                Calculation Setup                |
           -------------------------------------------------

          program call               : xtb pipeline_data/3_conformer_xyz/acrylates/rdkit/GRKDVZMVHOLESV-UHFFFAOYSA-N_conf130.xyz --opt --gfn 2-xTB --iterations 250
          coordinate file            : pipeline_data/3_conformer_xyz/acrylates/rdkit/GRKDVZMVHOLESV-UHFFFAOYSA-N_conf130.xyz
          omp threads                :                    24

########################################################################
[WARNING] Please study the warnings concerning your input carefully
-1- readin_getIntValue: could not parse '2-xTB'
########################################################################

           -------------------------------------------------
          |                 G F N 2 - x T B                 |
           -------------------------------------------------

        Reference                      10.1021/acs.jctc.8b01176
      * Hamiltonian:
        H0-scaling (s, p, d)           1.850000    2.230000    2.230000
        zeta-weighting                 0.500000
      * Dispersion:
        s8                             2.700000
        a1                             0.520000
        a2                             5.000000
        s9                             5.000000
      * Repulsion:
        kExp                           1.500000    1.000000
        rExp                           1.000000
      * Coulomb:
        alpha                          2.000000
        third order                    shell-resolved
        anisotropic                    true
        a3                             3.000000
        a5                             4.000000
        cn-shift                       1.200000
        cn-exp                         4.000000
        max-rad                        5.000000

q/qsh data taken from xtbrestart
CAMM data taken from xtbrestart

          ...................................................
          :                      SETUP                      :
          :.................................................:
          :  # basis functions                 103          :
          :  # atomic orbitals                  98          :
          :  # shells                           44          :
          :  # electrons                        92          :
          :  max. iterations                   250          :
          :  Hamiltonian                  GFN2-xTB          :
          :  restarted?                       true          :
          :  GBSA solvation                  false          :
          :  PC potential                    false          :
          :  electronic temp.          300.0000000     K    :
          :  accuracy                    1.0000000          :
          :  -> integral cutoff          0.2500000E+02      :
          :  -> integral neglect         0.1000000E-07      :
          :  -> SCF convergence          0.1000000E-05 Eh   :
          :  -> wf. convergence          0.1000000E-03 e    :
          :  Broyden damping             0.4000000          :
          :  net charge                          0          :
          :  unpaired electrons                  0          :
          ...................................................

 iter      E             dE          RMSdq      gap      omega  full diag
   1    -52.8907582 -0.528908E+02  0.807E+00    3.17       0.0  T
   2    -52.9067876 -0.160293E-01  0.447E+00    3.10       1.0  T
   3    -52.8901023  0.166852E-01  0.164E+00    3.46       1.0  T
   4    -52.9159993 -0.258970E-01  0.825E-01    3.10       1.0  T
   5    -52.9152957  0.703649E-03  0.439E-01    3.13       1.0  T
   6    -52.9169883 -0.169268E-02  0.265E-01    3.16       1.0  T
   7    -52.9171979 -0.209553E-03  0.149E-01    3.14       1.0  T
   8    -52.9172687 -0.707852E-04  0.777E-02    3.14       1.0  T
   9    -52.9173086 -0.399149E-04  0.519E-02    3.14       1.0  T
  10    -52.9173145 -0.587941E-05  0.372E-02    3.15       1.0  T
  11    -52.9173205 -0.602149E-05  0.231E-02    3.15       1.0  T
  12    -52.9173233 -0.276721E-05  0.114E-02    3.15       1.9  T
  13    -52.9173238 -0.512134E-06  0.591E-03    3.15       3.6  T
  14    -52.9173240 -0.223946E-06  0.310E-03    3.15       6.9  T
  15    -52.9173240 -0.303976E-07  0.193E-03    3.15      11.0  T
  16    -52.9173240 -0.121241E-07  0.131E-03    3.15      16.2  T
  17    -52.9173241 -0.107890E-07  0.777E-04    3.15      27.5  T
  18    -52.9173241 -0.183534E-08  0.439E-04    3.15      48.5  T

   *** convergence criteria satisfied after 18 iterations ***

         #    Occupation            Energy/Eh            Energy/eV
      -------------------------------------------------------------
         1        2.0000           -0.8817150             -23.9927
       ...           ...                  ...                  ...
        40        2.0000           -0.4524665             -12.3122
        41        2.0000           -0.4502136             -12.2509
        42        2.0000           -0.4469517             -12.1622
        43        2.0000           -0.4401191             -11.9762
        44        2.0000           -0.4374440             -11.9035
        45        2.0000           -0.4353713             -11.8471
        46        2.0000           -0.4341133             -11.8128 (HOMO)
        47                         -0.3185214              -8.6674 (LUMO)
        48                         -0.3167810              -8.6200
        49                         -0.3055431              -8.3142
        50                         -0.2939127              -7.9978
        51                         -0.2594854              -7.0610
       ...                                ...                  ...
        98                          0.5976924              16.2640
      -------------------------------------------------------------
                  HL-Gap            0.1155918 Eh            3.1454 eV
             Fermi-level           -0.3763174 Eh          -10.2401 eV

 SCC (total)                   0 d,  0 h,  0 min,  0.060 sec
 SCC setup                      ...        0 min,  0.000 sec (  0.424%)
 Dispersion                     ...        0 min,  0.000 sec (  0.369%)
 classical contributions        ...        0 min,  0.000 sec (  0.084%)
 integral evaluation            ...        0 min,  0.007 sec ( 11.887%)
 iterations                     ...        0 min,  0.044 sec ( 72.796%)
 molecular gradient             ...        0 min,  0.008 sec ( 14.046%)
 printout                       ...        0 min,  0.000 sec (  0.340%)

         :::::::::::::::::::::::::::::::::::::::::::::::::::::
         ::                     SUMMARY                     ::
         :::::::::::::::::::::::::::::::::::::::::::::::::::::
         :: total energy             -52.458142130448 Eh    ::
         :: gradient norm              0.125109244874 Eh/a0 ::
         :: HOMO-LUMO gap              3.145413887834 eV    ::
         ::.................................................::
         :: SCC energy               -52.917248588743 Eh    ::
         :: -> isotropic ES            0.056974295748 Eh    ::
         :: -> anisotropic ES          0.006444466794 Eh    ::
         :: -> anisotropic XC          0.007347781595 Eh    ::
         :: -> dispersion             -0.033679806580 Eh    ::
         :: repulsion energy           0.459106458294 Eh    ::
         :: add. restraining           0.000000000000 Eh    ::
         :: total charge               0.000000000000 e     ::
         :::::::::::::::::::::::::::::::::::::::::::::::::::::

      ----------------------------------------------------------- 
     |                   =====================                   |
     |                        A N C O P T                        |
     |                   =====================                   |
     |               Approximate Normal Coordinate               |
     |                Rational Function Optimizer                |
      ----------------------------------------------------------- 
      ----------------------------------------------------------- 
     |                   =====================                   |
     |                        A N C O P T                        |
     |                   =====================                   |
     |               Approximate Normal Coordinate               |
     |                Rational Function Optimizer                |
      ----------------------------------------------------------- 

          ...................................................
          :                      SETUP                      :
          :.................................................:
          :   optimization level            normal          :
          :   max. optcycles                   200          :
          :   ANC micro-cycles                  20          :
          :   degrees of freedom                60          :
          :.................................................:
          :   RF solver                   davidson          :
          :   write xtbopt.log                true          :
          :   linear?                        false          :
          :   energy convergence         0.5000000E-05 Eh   :
          :   grad. convergence          0.1000000E-02 Eh/α :
          :   maxmium RF displ.          1.0000000          :
          :   Hlow (freq-cutoff)         0.1000000E-01      :
          :   Hmax (freq-cutoff)         5.0000000          :
          :   S6 in model hess.         20.0000000          :
          ...................................................

generating ANC from exact Hessian ...
Using Lindh-Hessian (1995)
 Shifting diagonal of input Hessian by   9.533593072218211E-003
 Lowest  eigenvalues of input Hessian
    0.000000    0.000000    0.000000    0.000000    0.000000    0.000000
    0.010000    0.010458    0.010612    0.011477    0.013037    0.013392
    0.014095    0.014529    0.014608    0.015480    0.016819    0.021626
 Highest eigenvalues
    1.724213    1.823098    1.839158    1.864950    2.007875    2.113754
 

........................................................................
.............................. CYCLE    1 ..............................
........................................................................

 iter      E             dE          RMSdq      gap      omega  full diag
   1    -52.9173241 -0.529173E+02  0.221E-04    3.15       0.0  T
   2    -52.9173241 -0.147857E-09  0.175E-04    3.15     121.7  T
   3    -52.9173241 -0.135707E-09  0.147E-04    3.15     145.0  T
     SCC iter.                  ...        0 min,  0.005 sec
     gradient                   ...        0 min,  0.005 sec
 * total energy  :   -52.4581421 Eh     change       -0.9662458E-09 Eh
   gradient norm :     0.1251025 Eh/α   predicted     0.0000000E+00 (-100.00%)
   displ. norm   :     0.3842988 α      lambda       -0.1889922E-01
   maximum displ.:     0.1740054 α      in ANC's #18, #15, #19, ...

........................................................................
.............................. CYCLE    2 ..............................
........................................................................

 iter      E             dE          RMSdq      gap      omega  full diag
   1    -52.9299576 -0.529300E+02  0.288E-01    3.10       0.0  T
   2    -52.9301730 -0.215482E-03  0.197E-01    3.17       1.0  T
   3    -52.9301383  0.347134E-04  0.116E-01    3.15       1.0  T
   4    -52.9302531 -0.114738E-03  0.523E-02    3.16       1.0  T
   5    -52.9302643 -0.112410E-04  0.351E-02    3.16       1.0  T
   6    -52.9302686 -0.426898E-05  0.216E-02    3.16       1.0  T
   7    -52.9302698 -0.118563E-05  0.113E-02    3.16       1.9  T
   8    -52.9302702 -0.450212E-06  0.637E-03    3.16       3.3  T
   9    -52.9302704 -0.216274E-06  0.384E-03    3.16       5.6  T
  10    -52.9302705 -0.673223E-07  0.291E-03    3.16       7.3  T
  11    -52.9302705 -0.356785E-07  0.167E-03    3.16      12.8  T
  12    -52.9302705 -0.124677E-07  0.750E-04    3.16      28.4  T
  13    -52.9302706 -0.383892E-08  0.407E-04    3.16      52.4  T
     SCC iter.                  ...        0 min,  0.021 sec
     gradient                   ...        0 min,  0.004 sec
 * total energy  :   -52.4710292 Eh     change       -0.1288710E-01 Eh
   gradient norm :     0.0487877 Eh/α   predicted    -0.1086719E-01 ( -15.67%)
   displ. norm   :     0.4259235 α      lambda       -0.8151499E-02
   maximum displ.:     0.2484386 α      in ANC's #10, #19, #18, ...

........................................................................
.............................. CYCLE    3 ..............................
........................................................................

 iter      E             dE          RMSdq      gap      omega  full diag
   1    -52.9371617 -0.529372E+02  0.295E-01    3.11       0.0  T
   2    -52.9373297 -0.167961E-03  0.193E-01    3.13       1.0  T
   3    -52.9372565  0.731601E-04  0.116E-01    3.11       1.0  T
   4    -52.9373878 -0.131319E-03  0.509E-02    3.12       1.0  T
   5    -52.9373972 -0.942684E-05  0.347E-02    3.12       1.0  T
   6    -52.9374008 -0.358101E-05  0.222E-02    3.12       1.0  T
   7    -52.9374023 -0.148771E-05  0.101E-02    3.12       2.1  T
   8    -52.9374027 -0.345260E-06  0.531E-03    3.12       4.0  T
   9    -52.9374028 -0.171603E-06  0.320E-03    3.12       6.7  T
  10    -52.9374029 -0.329391E-07  0.240E-03    3.12       8.9  T
  11    -52.9374029 -0.206275E-07  0.161E-03    3.12      13.2  T
  12    -52.9374029 -0.109652E-07  0.809E-04    3.12      26.3  T
  13    -52.9374029 -0.558323E-08  0.363E-04    3.12      58.8  T
     SCC iter.                  ...        0 min,  0.031 sec
     gradient                   ...        0 min,  0.007 sec
 * total energy  :   -52.4737017 Eh     change       -0.2672433E-02 Eh
   gradient norm :     0.0313093 Eh/α   predicted    -0.4815160E-02 (  80.18%)
   displ. norm   :     0.3036500 α      lambda       -0.3256254E-02
   maximum displ.:     0.1746557 α      in ANC's #10, #5, #7, ...

........................................................................
.............................. CYCLE    4 ..............................
........................................................................

 iter      E             dE          RMSdq      gap      omega  full diag
   1    -52.9386573 -0.529387E+02  0.188E-01    3.14       0.0  T
   2    -52.9386820 -0.246862E-04  0.116E-01    3.14       1.0  T
   3    -52.9386878 -0.585287E-05  0.503E-02    3.14       1.0  T
   4    -52.9386902 -0.240835E-05  0.348E-02    3.14       1.0  T
   5    -52.9386931 -0.283880E-05  0.184E-02    3.14       1.2  T
   6    -52.9386950 -0.194926E-05  0.808E-03    3.14       2.6  T
   7    -52.9386954 -0.343114E-06  0.516E-03    3.14       4.1  T
   8    -52.9386954 -0.616667E-07  0.306E-03    3.14       7.0  T
   9    -52.9386955 -0.501530E-07  0.227E-03    3.14       9.4  T
  10    -52.9386955 -0.176490E-07  0.124E-03    3.14      17.2  T
  11    -52.9386955 -0.588843E-08  0.605E-04    3.14      35.2  T
  12    -52.9386955 -0.398327E-08  0.258E-04    3.14      82.5  T
     SCC iter.                  ...        0 min,  0.038 sec
     gradient                   ...        0 min,  0.007 sec
 * total energy  :   -52.4748879 Eh     change       -0.1186280E-02 Eh
   gradient norm :     0.0151898 Eh/α   predicted    -0.1778342E-02 (  49.91%)
   displ. norm   :     0.1158174 α      lambda       -0.7900723E-03
   maximum displ.:     0.0705481 α      in ANC's #10, #7, #12, ...

........................................................................
.............................. CYCLE    5 ..............................
........................................................................

 iter      E             dE          RMSdq      gap      omega  full diag
   1    -52.9394979 -0.529395E+02  0.958E-02    3.15       0.0  T
   2    -52.9395113 -0.133711E-04  0.610E-02    3.14       1.0  T
   3    -52.9395081  0.318969E-05  0.346E-02    3.15       1.0  T
   4    -52.9395156 -0.748623E-05  0.226E-02    3.14       1.0  T
   5    -52.9395168 -0.116910E-05  0.147E-02    3.14       1.5  T
   6    -52.9395175 -0.736379E-06  0.809E-03    3.15       2.6  T
   7    -52.9395180 -0.431880E-06  0.450E-03    3.14       4.7  T
   8    -52.9395180 -0.276699E-07  0.276E-03    3.14       7.7  T
   9    -52.9395180 -0.515112E-07  0.184E-03    3.14      11.6  T
  10    -52.9395180 -0.970424E-08  0.110E-03    3.14      19.4  T
  11    -52.9395180 -0.619498E-08  0.509E-04    3.14      41.9  T
  12    -52.9395181 -0.238894E-08  0.237E-04    3.14      89.9  T
     SCC iter.                  ...        0 min,  0.024 sec
     gradient                   ...        0 min,  0.004 sec
 * total energy  :   -52.4752570 Eh     change       -0.3690872E-03 Eh
   gradient norm :     0.0057504 Eh/α   predicted    -0.4003400E-03 (   8.47%)
   displ. norm   :     0.0945363 α      lambda       -0.1967196E-03
   maximum displ.:     0.0426365 α      in ANC's #10, #5, #8, ...

........................................................................
.............................. CYCLE    6 ..............................
........................................................................

 iter      E             dE          RMSdq      gap      omega  full diag
   1    -52.9407241 -0.529407E+02  0.572E-02    3.14       0.0  T
   2    -52.9407252 -0.114312E-05  0.345E-02    3.14       1.0  T
   3    -52.9407251  0.162708E-06  0.145E-02    3.14       1.5  T
   4    -52.9407258 -0.771721E-06  0.105E-02    3.14       2.0  T
   5    -52.9407261 -0.302756E-06  0.486E-03    3.14       4.4  T
   6    -52.9407263 -0.158340E-06  0.259E-03    3.14       8.2  T
   7    -52.9407263 -0.152912E-07  0.168E-03    3.14      12.7  T
   8    -52.9407263 -0.128170E-07  0.102E-03    3.14      20.9  T
   9    -52.9407263 -0.384092E-08  0.725E-04    3.14      29.4  T
  10    -52.9407263 -0.129167E-08  0.471E-04    3.14      45.3  T
     SCC iter.                  ...        0 min,  0.018 sec
     gradient                   ...        0 min,  0.004 sec
 * total energy  :   -52.4753110 Eh     change       -0.5399443E-04 Eh
   gradient norm :     0.0036207 Eh/α   predicted    -0.9924163E-04 (  83.80%)
   displ. norm   :     0.1101634 α      lambda       -0.1925005E-03
   maximum displ.:     0.0511592 α      in ANC's #3, #1, #4, ...

........................................................................
.............................. CYCLE    7 ..............................
........................................................................

 iter      E             dE          RMSdq      gap      omega  full diag
   1    -52.9419814 -0.529420E+02  0.603E-02    3.14       0.0  T
   2    -52.9419831 -0.168563E-05  0.364E-02    3.14       1.0  T
   3    -52.9419824  0.744708E-06  0.159E-02    3.14       1.3  T
   4    -52.9419837 -0.129084E-05  0.111E-02    3.14       1.9  T
   5    -52.9419842 -0.507190E-06  0.539E-03    3.14       4.0  T
   6    -52.9419843 -0.117642E-06  0.263E-03    3.14       8.1  T
   7    -52.9419843 -0.189422E-07  0.166E-03    3.14      12.9  T
   8    -52.9419843 -0.530160E-08  0.997E-04    3.14      21.4  T
   9    -52.9419843 -0.593216E-08  0.722E-04    3.14      29.5  T
     SCC iter.                  ...        0 min,  0.017 sec
     gradient                   ...        0 min,  0.008 sec
 * total energy  :   -52.4753583 Eh     change       -0.4727239E-04 Eh
   gradient norm :     0.0043420 Eh/α   predicted    -0.9741862E-04 ( 106.08%)
   displ. norm   :     0.0737476 α      lambda       -0.1280518E-03
   maximum displ.:     0.0361229 α      in ANC's #2, #1, #5, ...

........................................................................
.............................. CYCLE    8 ..............................
........................................................................

 iter      E             dE          RMSdq      gap      omega  full diag
   1    -52.9421386 -0.529421E+02  0.411E-02    3.15       0.0  T
   2    -52.9421392 -0.573224E-06  0.241E-02    3.15       1.0  T
   3    -52.9421385  0.663296E-06  0.115E-02    3.15       1.9  T
   4    -52.9421397 -0.111731E-05  0.735E-03    3.15       2.9  T
   5    -52.9421398 -0.100762E-06  0.370E-03    3.15       5.8  T
   6    -52.9421399 -0.959377E-07  0.202E-03    3.15      10.5  T
   7    -52.9421399 -0.126222E-07  0.115E-03    3.15      18.6  T
   8    -52.9421399 -0.435355E-08  0.680E-04    3.15      31.3  T
   9    -52.9421399 -0.185520E-08  0.496E-04    3.15      43.0  T
     SCC iter.                  ...        0 min,  0.016 sec
     gradient                   ...        0 min,  0.004 sec
 * total energy  :   -52.4754012 Eh     change       -0.4291485E-04 Eh
   gradient norm :     0.0028333 Eh/α   predicted    -0.6437518E-04 (  50.01%)
   displ. norm   :     0.0522971 α      lambda       -0.6213509E-04
   maximum displ.:     0.0230497 α      in ANC's #3, #2, #1, ...

........................................................................
.............................. CYCLE    9 ..............................
........................................................................

 iter      E             dE          RMSdq      gap      omega  full diag
   1    -52.9415780 -0.529416E+02  0.317E-02    3.15       0.0  T
   2    -52.9415784 -0.452147E-06  0.175E-02    3.15       1.2  T
   3    -52.9415781  0.331054E-06  0.737E-03    3.15       2.9  T
   4    -52.9415787 -0.545537E-06  0.469E-03    3.15       4.5  T
   5    -52.9415787 -0.356697E-07  0.310E-03    3.15       6.9  T
   6    -52.9415787 -0.496096E-07  0.172E-03    3.15      12.4  T
   7    -52.9415788 -0.887736E-08  0.107E-03    3.15      19.9  T
   8    -52.9415788 -0.396741E-08  0.579E-04    3.15      36.8  T
   9    -52.9415788 -0.223523E-08  0.378E-04    3.15      56.4  T
     SCC iter.                  ...        0 min,  0.016 sec
     gradient                   ...        0 min,  0.004 sec
 * total energy  :   -52.4754348 Eh     change       -0.3363290E-04 Eh
   gradient norm :     0.0017158 Eh/α   predicted    -0.3115501E-04 (  -7.37%)
   displ. norm   :     0.1145345 α      lambda       -0.3430666E-04
   maximum displ.:     0.0697645 α      in ANC's #2, #3, #9, ...

........................................................................
.............................. CYCLE   10 ..............................
........................................................................

 iter      E             dE          RMSdq      gap      omega  full diag
   1    -52.9414138 -0.529414E+02  0.625E-02    3.14       0.0  T
   2    -52.9414144 -0.584533E-06  0.319E-02    3.14       1.0  T
   3    -52.9414143  0.124240E-06  0.634E-03    3.14       3.4  T
   4    -52.9414145 -0.188795E-06  0.454E-03    3.14       4.7  T
   5    -52.9414146 -0.149385E-06  0.211E-03    3.14      10.1  T
   6    -52.9414146 -0.120126E-07  0.154E-03    3.14      13.8  T
   7    -52.9414146 -0.263398E-08  0.115E-03    3.14      18.5  T
   8    -52.9414146 -0.823516E-08  0.444E-04    3.14      48.0  T
   9    -52.9414146 -0.179165E-08  0.279E-04    3.14      76.4  T
     SCC iter.                  ...        0 min,  0.017 sec
     gradient                   ...        0 min,  0.004 sec
 * total energy  :   -52.4754719 Eh     change       -0.3706842E-04 Eh
   gradient norm :     0.0017897 Eh/α   predicted    -0.1726049E-04 ( -53.44%)
   displ. norm   :     0.2187299 α      lambda       -0.5007500E-04
   maximum displ.:     0.1441434 α      in ANC's #2, #3, #9, ...

........................................................................
.............................. CYCLE   11 ..............................
........................................................................

 iter      E             dE          RMSdq      gap      omega  full diag
   1    -52.9412152 -0.529412E+02  0.117E-01    3.14       0.0  T
   2    -52.9412173 -0.212764E-05  0.596E-02    3.14       1.0  T
   3    -52.9412165  0.753935E-06  0.119E-02    3.14       1.8  T
   4    -52.9412175 -0.953360E-06  0.753E-03    3.14       2.8  T
   5    -52.9412179 -0.423994E-06  0.291E-03    3.14       7.3  T
   6    -52.9412179 -0.270679E-07  0.200E-03    3.14      10.6  T
   7    -52.9412179 -0.725890E-08  0.159E-03    3.14      13.4  T
   8    -52.9412180 -0.970361E-08  0.605E-04    3.14      35.3  T
   9    -52.9412180 -0.404739E-08  0.366E-04    3.14      58.2  T
     SCC iter.                  ...        0 min,  0.016 sec
     gradient                   ...        0 min,  0.005 sec
 * total energy  :   -52.4755272 Eh     change       -0.5524749E-04 Eh
   gradient norm :     0.0017667 Eh/α   predicted    -0.2557212E-04 ( -53.71%)
   displ. norm   :     0.2530288 α      lambda       -0.5479935E-04
   maximum displ.:     0.1718852 α      in ANC's #2, #3, #9, ...

........................................................................
.............................. CYCLE   12 ..............................
........................................................................

 iter      E             dE          RMSdq      gap      omega  full diag
   1    -52.9411163 -0.529411E+02  0.148E-01    3.14       0.0  T
   2    -52.9411187 -0.242776E-05  0.757E-02    3.14       1.0  T
   3    -52.9411180  0.719804E-06  0.141E-02    3.14       1.5  T
   4    -52.9411190 -0.108125E-05  0.920E-03    3.14       2.3  T
   5    -52.9411196 -0.576494E-06  0.357E-03    3.14       6.0  T
   6    -52.9411197 -0.481472E-07  0.272E-03    3.14       7.8  T
   7    -52.9411197 -0.161884E-07  0.191E-03    3.14      11.1  T
   8    -52.9411197 -0.152070E-07  0.733E-04    3.14      29.1  T
   9    -52.9411197 -0.444743E-08  0.505E-04    3.14      42.2  T
     SCC iter.                  ...        0 min,  0.017 sec
     gradient                   ...        0 min,  0.004 sec
 * total energy  :   -52.4755830 Eh     change       -0.5582243E-04 Eh
   gradient norm :     0.0020850 Eh/α   predicted    -0.2818301E-04 ( -49.51%)
   displ. norm   :     0.1470159 α      lambda       -0.4845759E-04
   maximum displ.:     0.1014633 α      in ANC's #2, #3, #9, ...

........................................................................
.............................. CYCLE   13 ..............................
........................................................................

 iter      E             dE          RMSdq      gap      omega  full diag
   1    -52.9415707 -0.529416E+02  0.964E-02    3.14       0.0  T
   2    -52.9415716 -0.852950E-06  0.497E-02    3.14       1.0  T
   3    -52.9415716  0.817855E-08  0.806E-03    3.14       2.6  T
   4    -52.9415716 -0.707350E-08  0.565E-03    3.14       3.8  T
   5    -52.9415719 -0.332257E-06  0.205E-03    3.14      10.4  T
   6    -52.9415719 -0.148321E-07  0.163E-03    3.14      13.1  T
   7    -52.9415719 -0.823002E-08  0.636E-04    3.14      33.5  T
   8    -52.9415719 -0.261692E-08  0.354E-04    3.14      60.2  T
     SCC iter.                  ...        0 min,  0.016 sec
     gradient                   ...        0 min,  0.005 sec
 * total energy  :   -52.4756246 Eh     change       -0.4165165E-04 Eh
   gradient norm :     0.0015541 Eh/α   predicted    -0.2475550E-04 ( -40.57%)
   displ. norm   :     0.3548714 α      lambda       -0.7020622E-04
   maximum displ.:     0.2433589 α      in ANC's #2, #3, #9, ...

........................................................................
.............................. CYCLE   14 ..............................
........................................................................

 iter      E             dE          RMSdq      gap      omega  full diag
   1    -52.9419312 -0.529419E+02  0.234E-01    3.14       0.0  T
   2    -52.9419358 -0.455080E-05  0.122E-01    3.14       1.0  T
   3    -52.9419358 -0.410195E-07  0.194E-02    3.14       1.1  T
   4    -52.9419352  0.614107E-06  0.136E-02    3.14       1.6  T
   5    -52.9419375 -0.233809E-05  0.481E-03    3.14       4.4  T
   6    -52.9419376 -0.773075E-07  0.383E-03    3.14       5.6  T
   7    -52.9419376 -0.343173E-07  0.193E-03    3.14      11.1  T
   8    -52.9419377 -0.245058E-07  0.866E-04    3.14      24.6  T
   9    -52.9419377 -0.478709E-08  0.671E-04    3.14      31.8  T
     SCC iter.                  ...        0 min,  0.031 sec
     gradient                   ...        0 min,  0.005 sec
 * total energy  :   -52.4756942 Eh     change       -0.6960628E-04 Eh
   gradient norm :     0.0018439 Eh/α   predicted    -0.3707047E-04 ( -46.74%)
   displ. norm   :     0.2119165 α      lambda       -0.3027123E-04
   maximum displ.:     0.1563395 α      in ANC's #2, #3, #1, ...

........................................................................
.............................. CYCLE   15 ..............................
........................................................................

 iter      E             dE          RMSdq      gap      omega  full diag
   1    -52.9421056 -0.529421E+02  0.148E-01    3.15       0.0  T
   2    -52.9421076 -0.198979E-05  0.765E-02    3.15       1.0  T
   3    -52.9421078 -0.274249E-06  0.118E-02    3.15       1.8  T
   4    -52.9421077  0.176201E-06  0.777E-03    3.15       2.7  T
   5    -52.9421083 -0.650084E-06  0.310E-03    3.15       6.9  T
   6    -52.9421083 -0.266366E-07  0.253E-03    3.15       8.4  T
   7    -52.9421084 -0.266541E-07  0.100E-03    3.15      21.2  T
   8    -52.9421084 -0.457969E-08  0.558E-04    3.15      38.2  T
   9    -52.9421084 -0.173453E-08  0.444E-04    3.15      48.0  T
     SCC iter.                  ...        0 min,  0.031 sec
     gradient                   ...        0 min,  0.005 sec
 * total energy  :   -52.4757244 Eh     change       -0.3019783E-04 Eh
   gradient norm :     0.0014340 Eh/α   predicted    -0.1543977E-04 ( -48.87%)
   displ. norm   :     0.1142811 α      lambda       -0.1967033E-04
   maximum displ.:     0.0889671 α      in ANC's #2, #1, #4, ...

........................................................................
.............................. CYCLE   16 ..............................
........................................................................

 iter      E             dE          RMSdq      gap      omega  full diag
   1    -52.9425239 -0.529425E+02  0.749E-02    3.15       0.0  T
   2    -52.9425244 -0.460190E-06  0.399E-02    3.15       1.0  T
   3    -52.9425244  0.190552E-07  0.676E-03    3.15       3.2  T
   4    -52.9425243  0.377823E-07  0.480E-03    3.15       4.4  T
   5    -52.9425246 -0.266636E-06  0.190E-03    3.15      11.2  T
   6    -52.9425246 -0.360962E-08  0.154E-03    3.15      13.8  T
   7    -52.9425246 -0.862319E-08  0.890E-04    3.15      24.0  T
   8    -52.9425246 -0.448755E-08  0.395E-04    3.15      54.0  T
     SCC iter.                  ...        0 min,  0.028 sec
     gradient                   ...        0 min,  0.005 sec
 * total energy  :   -52.4757466 Eh     change       -0.2214494E-04 Eh
   gradient norm :     0.0010531 Eh/α   predicted    -0.9896804E-05 ( -55.31%)
   displ. norm   :     0.1312083 α      lambda       -0.1911671E-04
   maximum displ.:     0.1013654 α      in ANC's #2, #1, #4, ...

........................................................................
.............................. CYCLE   17 ..............................
........................................................................

 iter      E             dE          RMSdq      gap      omega  full diag
   1    -52.9423475 -0.529423E+02  0.841E-02    3.15       0.0  T
   2    -52.9423481 -0.527173E-06  0.447E-02    3.15       1.0  T
   3    -52.9423482 -0.155405E-06  0.655E-03    3.15       3.3  T
   4    -52.9423481  0.117243E-06  0.338E-03    3.15       6.3  T
   5    -52.9423483 -0.162162E-06  0.152E-03    3.15      14.0  T
   6    -52.9423483 -0.215430E-08  0.114E-03    3.15      18.7  T
   7    -52.9423483 -0.583027E-08  0.607E-04    3.15      35.1  T
   8    -52.9423483 -0.216611E-08  0.302E-04    3.15      70.5  T
     SCC iter.                  ...        0 min,  0.028 sec
     gradient                   ...        0 min,  0.005 sec
 * total energy  :   -52.4757709 Eh     change       -0.2427457E-04 Eh
   gradient norm :     0.0010814 Eh/α   predicted    -0.9633155E-05 ( -60.32%)
   displ. norm   :     0.1627528 α      lambda       -0.2307324E-04
   maximum displ.:     0.1225275 α      in ANC's #2, #1, #3, ...

........................................................................
.............................. CYCLE   18 ..............................
........................................................................

 iter      E             dE          RMSdq      gap      omega  full diag
   1    -52.9422096 -0.529422E+02  0.986E-02    3.15       0.0  T
   2    -52.9422104 -0.763606E-06  0.521E-02    3.15       1.0  T
   3    -52.9422106 -0.209626E-06  0.765E-03    3.15       2.8  T
   4    -52.9422104  0.148464E-06  0.440E-03    3.15       4.8  T
   5    -52.9422107 -0.235209E-06  0.177E-03    3.15      12.1  T
   6    -52.9422107 -0.438142E-09  0.135E-03    3.15      15.8  T
   7    -52.9422107 -0.101655E-07  0.651E-04    3.15      32.8  T
   8    -52.9422107 -0.253304E-08  0.349E-04    3.15      61.1  T
     SCC iter.                  ...        0 min,  0.028 sec
     gradient                   ...        0 min,  0.005 sec
 * total energy  :   -52.4758004 Eh     change       -0.2952212E-04 Eh
   gradient norm :     0.0014825 Eh/α   predicted    -0.1167338E-04 ( -60.46%)
   displ. norm   :     0.2036732 α      lambda       -0.2666745E-04
   maximum displ.:     0.1479701 α      in ANC's #2, #1, #3, ...

........................................................................
.............................. CYCLE   19 ..............................
........................................................................

 iter      E             dE          RMSdq      gap      omega  full diag
   1    -52.9418658 -0.529419E+02  0.123E-01    3.14       0.0  T
   2    -52.9418670 -0.126350E-05  0.648E-02    3.14       1.0  T
   3    -52.9418672 -0.111767E-06  0.101E-02    3.14       2.1  T
   4    -52.9418669  0.246934E-06  0.693E-03    3.14       3.1  T
   5    -52.9418675 -0.640483E-06  0.239E-03    3.14       8.9  T
   6    -52.9418676 -0.971804E-08  0.195E-03    3.14      10.9  T
   7    -52.9418676 -0.949427E-08  0.115E-03    3.14      18.6  T
   8    -52.9418676 -0.874681E-08  0.490E-04    3.14      43.5  T
   9    -52.9418676 -0.829765E-09  0.395E-04    3.14      54.0  T
     SCC iter.                  ...        0 min,  0.032 sec
     gradient                   ...        0 min,  0.005 sec
 * total energy  :   -52.4758331 Eh     change       -0.3271697E-04 Eh
   gradient norm :     0.0017854 Eh/α   predicted    -0.1358072E-04 ( -58.49%)
   displ. norm   :     0.2359564 α      lambda       -0.2860801E-04
   maximum displ.:     0.1714726 α      in ANC's #2, #1, #3, ...

........................................................................
.............................. CYCLE   20 ..............................
........................................................................

 iter      E             dE          RMSdq      gap      omega  full diag
   1    -52.9419416 -0.529419E+02  0.138E-01    3.14       0.0  T
   2    -52.9419433 -0.165860E-05  0.720E-02    3.14       1.0  T
   3    -52.9419435 -0.174059E-06  0.112E-02    3.14       1.9  T
   4    -52.9419432  0.229974E-06  0.777E-03    3.14       2.7  T
   5    -52.9419440 -0.725053E-06  0.280E-03    3.14       7.6  T
   6    -52.9419440 -0.139042E-07  0.230E-03    3.14       9.3  T
   7    -52.9419440 -0.171453E-07  0.115E-03    3.14      18.5  T
   8    -52.9419440 -0.930045E-08  0.535E-04    3.14      39.9  T
   9    -52.9419440 -0.917176E-09  0.428E-04    3.14      49.8  T
     SCC iter.                  ...        0 min,  0.032 sec
     gradient                   ...        0 min,  0.005 sec
 * total energy  :   -52.4758640 Eh     change       -0.3087143E-04 Eh
   gradient norm :     0.0017051 Eh/α   predicted    -0.1465927E-04 ( -52.52%)
   displ. norm   :     0.2967572 α      lambda       -0.2780432E-04
   maximum displ.:     0.2156916 α      in ANC's #2, #1, #3, ...
 * RMSD in coord.:     0.5230863 α      energy gain  -0.1772184E-01 Eh

generating ANC from exact Hessian ...
Using Lindh-Hessian (1995)
 Shifting diagonal of input Hessian by   9.164754616880070E-003
 Lowest  eigenvalues of input Hessian
    0.000000    0.000000    0.000000    0.000000    0.000000    0.000000
    0.010000    0.010304    0.011079    0.012745    0.013539    0.013785
    0.014283    0.014890    0.016286    0.016933    0.018924    0.022092
 Highest eigenvalues
    1.739481    1.762879    1.798117    1.814307    2.026902    2.389124
 

........................................................................
.............................. CYCLE   21 ..............................
........................................................................

 iter      E             dE          RMSdq      gap      omega  full diag
   1    -52.9414425 -0.529414E+02  0.173E-01    3.14       0.0  T
   2    -52.9414455 -0.297363E-05  0.900E-02    3.14       1.0  T
   3    -52.9414458 -0.282270E-06  0.142E-02    3.14       1.5  T
   4    -52.9414456  0.208805E-06  0.971E-03    3.14       2.2  T
   5    -52.9414465 -0.974698E-06  0.367E-03    3.14       5.8  T
   6    -52.9414466 -0.404325E-07  0.286E-03    3.14       7.5  T
   7    -52.9414466 -0.175340E-07  0.197E-03    3.14      10.8  T
   8    -52.9414466 -0.179026E-07  0.704E-04    3.14      30.3  T
   9    -52.9414466 -0.315431E-08  0.530E-04    3.14      40.2  T
     SCC iter.                  ...        0 min,  0.032 sec
     gradient                   ...        0 min,  0.005 sec
 * total energy  :   -52.4758851 Eh     change       -0.2112411E-04 Eh
   gradient norm :     0.0018282 Eh/α   predicted     0.0000000E+00 (-100.00%)
   displ. norm   :     0.0312480 α      lambda       -0.1242850E-04
   maximum displ.:     0.0163521 α      in ANC's #3, #4, #9, ...

........................................................................
.............................. CYCLE   22 ..............................
........................................................................

 iter      E             dE          RMSdq      gap      omega  full diag
   1    -52.9425123 -0.529425E+02  0.302E-02    3.14       0.0  T
   2    -52.9425125 -0.196019E-06  0.171E-02    3.14       1.2  T
   3    -52.9425124  0.129465E-06  0.476E-03    3.14       4.5  T
   4    -52.9425126 -0.190368E-06  0.311E-03    3.14       6.8  T
   5    -52.9425126 -0.372943E-07  0.168E-03    3.14      12.7  T
   6    -52.9425126 -0.853106E-08  0.107E-03    3.14      19.9  T
   7    -52.9425126 -0.308178E-08  0.651E-04    3.14      32.8  T
   8    -52.9425126 -0.141276E-08  0.301E-04    3.14      70.8  T
     SCC iter.                  ...        0 min,  0.028 sec
     gradient                   ...        0 min,  0.010 sec
 * total energy  :   -52.4758902 Eh     change       -0.5117392E-05 Eh
   gradient norm :     0.0009415 Eh/α   predicted    -0.6440059E-05 (  25.85%)
   displ. norm   :     0.0311024 α      lambda       -0.9321972E-05
   maximum displ.:     0.0219170 α      in ANC's #3, #10, #14, ...

........................................................................
.............................. CYCLE   23 ..............................
........................................................................

 iter      E             dE          RMSdq      gap      omega  full diag
   1    -52.9429138 -0.529429E+02  0.247E-02    3.15       0.0  T
   2    -52.9429139 -0.891761E-07  0.146E-02    3.15       1.5  T
   3    -52.9429139 -0.145710E-07  0.373E-03    3.15       5.7  T
   4    -52.9429139 -0.287244E-07  0.280E-03    3.15       7.6  T
   5    -52.9429140 -0.378896E-07  0.140E-03    3.15      15.3  T
   6    -52.9429140 -0.888227E-08  0.917E-04    3.15      23.2  T
   7    -52.9429140 -0.361689E-08  0.392E-04    3.15      54.4  T
     SCC iter.                  ...        0 min,  0.025 sec
     gradient                   ...        0 min,  0.005 sec
 * total energy  :   -52.4758943 Eh     change       -0.4059820E-05 Eh
   gradient norm :     0.0013770 Eh/α   predicted    -0.4665382E-05 (  14.92%)
   displ. norm   :     0.0326825 α      lambda       -0.9476889E-05
   maximum displ.:     0.0200880 α      in ANC's #3, #9, #7, ...

........................................................................
.............................. CYCLE   24 ..............................
........................................................................

 iter      E             dE          RMSdq      gap      omega  full diag
   1    -52.9424097 -0.529424E+02  0.292E-02    3.14       0.0  T
   2    -52.9424098 -0.102215E-06  0.164E-02    3.14       1.3  T
   3    -52.9424098 -0.685631E-08  0.369E-03    3.14       5.8  T
   4    -52.9424098 -0.213518E-07  0.259E-03    3.14       8.2  T
   5    -52.9424099 -0.315398E-07  0.122E-03    3.14      17.5  T
   6    -52.9424099 -0.408093E-08  0.840E-04    3.14      25.4  T
   7    -52.9424099 -0.213264E-08  0.433E-04    3.14      49.2  T
     SCC iter.                  ...        0 min,  0.025 sec
     gradient                   ...        0 min,  0.005 sec
 * total energy  :   -52.4758974 Eh     change       -0.3157482E-05 Eh
   gradient norm :     0.0009229 Eh/α   predicted    -0.4741160E-05 (  50.16%)
   displ. norm   :     0.0295338 α      lambda       -0.8691818E-05
   maximum displ.:     0.0222259 α      in ANC's #3, #11, #1, ...

   *** GEOMETRY OPTIMIZATION CONVERGED AFTER 24 ITERATIONS ***

------------------------------------------------------------------------
 total energy gain   :        -0.0177553 Eh      -11.1416 kcal/mol
 total RMSD          :         0.5242427 a0        0.2774 Å
 total power (kW/mol):        -1.9423557 (step)  -58.9078 (real)
------------------------------------------------------------------------

 ANCopt (total)                0 d,  0 h,  0 min,  0.791 sec
 optimizer setup                ...        0 min,  0.000 sec (  0.011%)
 model hessian                  ...        0 min,  0.009 sec (  1.079%)
 ANC generation                 ...        0 min,  0.001 sec (  0.171%)
 coordinate transformation      ...        0 min,  0.000 sec (  0.026%)
 single point calculation       ...        0 min,  0.764 sec ( 96.596%)
 optimization log               ...        0 min,  0.007 sec (  0.832%)
 hessian update                 ...        0 min,  0.007 sec (  0.922%)
 rational function              ...        0 min,  0.002 sec (  0.238%)

================
 final structure:
================
22
 xtb: 6.7.1 (edcfbbe)
Br          -5.26582136354411        1.07569868702398       -1.36268964354655
C           -3.60008622415555        0.61233472027451       -0.62689143795412
C           -2.78363311797559       -0.31369172917045       -1.27134055852922
Br          -3.35204327941740       -1.10228687963995       -2.87903804596940
C           -1.55003375453689       -0.64845677896525       -0.71733507334214
Br          -0.47605742851518       -1.92008703761978       -1.60011688662099
C           -1.10639790775423       -0.06788878819154        0.47233349491018
C            0.25029315256860       -0.42990176398805        0.99764424318951
O            1.21181178382664       -0.04417014042606        0.02285230092503
C            2.48132534373099       -0.43218081041792        0.27260074235798
O            2.79097670327186       -1.04782382848409        1.25816398066533
C            3.37950543489641        0.00217102058077       -0.81176685573728
C            4.68162306320595       -0.23893132697610       -0.75598482936991
C           -1.93572748947811        0.85697093411950        1.10420656014424
Br          -1.41999300547077        1.68075477041698        2.72426230650865
C           -3.17839079983157        1.19379871209789        0.56581075442671
Br          -4.29004365676141        2.43466337531576        1.43542736958021
H            0.47310630080146        0.07183849881922        1.94344692577222
H            0.32587790858385       -1.51332105448886        1.16718830967369
H            2.90589555957452        0.51530213997329       -1.63487117184878
H            5.35567752803372        0.06755944707746       -1.53695709977109
H            5.10213324894644       -0.75235316733112        0.09349061453590
 
 Bond Distances (Angstroems)
 ---------------------------
Br1-C2=1.8790        C2-Br1=1.8790        C2-C3=1.3926         C2-C16=1.3923        C3-C2=1.3926         C3-Br4=1.8787        
C3-C5=1.3931         Br4-C3=1.8787        C5-C3=1.3931         C5-Br6=1.8841        C5-C7=1.3961         Br6-C5=1.8841        
C7-C5=1.3961         C7-C8=1.4992         C7-C14=1.3937        C8-C7=1.4992         C8-O9=1.4225         C8-H18=1.0936        
C8-H19=1.0992        O9-C8=1.4225         O9-C10=1.3508        C10-O9=1.3508        C10-O11=1.2026       C10-C12=1.4735       
O11-C10=1.2026       C12-C10=1.4735       C12-C13=1.3254       C12-H20=1.0794       C13-C12=1.3254       C13-H21=1.0762       
C13-H22=1.0780       C14-C7=1.3937        C14-Br15=1.8892      C14-C16=1.3955       Br15-C14=1.8892      C16-C2=1.3923        
C16-C14=1.3955       C16-Br17=1.8793      Br17-C16=1.8793      H18-C8=1.0936        H19-C8=1.0992        H20-C12=1.0794       
H21-C13=1.0762       H22-C13=1.0780       
 C  H  Rav=1.0853 sigma=0.0093  Rmin=1.0762  Rmax=1.0992     5
 C  C  Rav=1.4068 sigma=0.0479  Rmin=1.3254  Rmax=1.4992     9
 O  C  Rav=1.3253 sigma=0.0916  Rmin=1.2026  Rmax=1.4225     3
 Br C  Rav=1.8821 sigma=0.0041  Rmin=1.8787  Rmax=1.8892     5
 
 selected bond angles (degree)
 --------------------
C3-C2-Br1=120.16               C16-C2-Br1=120.06              C16-C2-C3=119.77               Br4-C3-C2=119.85               
C5-C3-C2=119.66                C5-C3-Br4=120.49               Br6-C5-C3=118.73               C7-C5-C3=121.35                
C7-C5-Br6=119.92               C8-C7-C5=119.06                C14-C7-C5=118.24               C14-C7-C8=122.67               
O9-C8-C7=107.82                H18-C8-C7=112.13               H18-C8-O9=109.30               H19-C8-C7=110.75               
H19-C8-O9=109.06               H19-C8-H18=107.75              C10-O9-C8=115.51               O11-C10-O9=122.72              
C12-C10-O9=110.62              C12-C10-O11=126.66             
 
 selected dihedral angles (degree)
 ---------------------------------
Br4-C3-C2-Br1=359.91          Br4-C3-C2-C16=179.87          C5-C3-C2-Br1=179.93           C5-C3-C2-C16=359.89           
Br6-C5-C3-C2=179.25           Br6-C5-C3-Br4=359.27          C7-C5-C3-C2=359.61            C7-C5-C3-Br4=179.63           
C8-C7-C5-C3=182.11            C8-C7-C5-Br6=  2.47           C14-C7-C5-C3=  0.38           C14-C7-C5-Br6=180.74          
O9-C8-C7-C5= 60.87            O9-C8-C7-C14=242.69           H18-C8-C7-C5=181.24           H18-C8-C7-C14=  3.05          
H19-C8-C7-C5=301.63           H19-C8-C7-C14=123.44          C10-O9-C8-C7=186.98           C10-O9-C8-H18= 64.85          
C10-O9-C8-H19=307.30          O11-C10-O9-C8=359.09          C12-C10-O9-C8=179.03          
           -------------------------------------------------
          |                Final Singlepoint                |
           -------------------------------------------------

          ...................................................
          :                      SETUP                      :
          :.................................................:
          :  # basis functions                 103          :
          :  # atomic orbitals                  98          :
          :  # shells                           44          :
          :  # electrons                        92          :
          :  max. iterations                   250          :
          :  Hamiltonian                  GFN2-xTB          :
          :  restarted?                      false          :
          :  GBSA solvation                  false          :
          :  PC potential                    false          :
          :  electronic temp.          300.0000000     K    :
          :  accuracy                    1.0000000          :
          :  -> integral cutoff          0.2500000E+02      :
          :  -> integral neglect         0.1000000E-07      :
          :  -> SCF convergence          0.1000000E-05 Eh   :
          :  -> wf. convergence          0.1000000E-03 e    :
          :  Broyden damping             0.4000000          :
          :  net charge                          0          :
          :  unpaired electrons                  0          :
          ...................................................

 iter      E             dE          RMSdq      gap      omega  full diag
   1    -52.9424099 -0.529424E+02  0.186E-04    3.14       0.0  T
   2    -52.9424099 -0.106127E-09  0.152E-04    3.14     139.9  T
   3    -52.9424099 -0.757012E-10  0.126E-04    3.14     168.8  T

   *** convergence criteria satisfied after 3 iterations ***

         #    Occupation            Energy/Eh            Energy/eV
      -------------------------------------------------------------
         1        2.0000           -0.8826435             -24.0180
       ...           ...                  ...                  ...
        40        2.0000           -0.4533262             -12.3356
        41        2.0000           -0.4511770             -12.2771
        42        2.0000           -0.4447119             -12.1012
        43        2.0000           -0.4398538             -11.9690
        44        2.0000           -0.4373071             -11.8997
        45        2.0000           -0.4346834             -11.8283
        46        2.0000           -0.4323650             -11.7653 (HOMO)
        47                         -0.3168322              -8.6214 (LUMO)
        48                         -0.3161046              -8.6016
        49                         -0.2956521              -8.0451
        50                         -0.2839209              -7.7259
        51                         -0.2508292              -6.8254
       ...                                ...                  ...
        98                          0.6916743              18.8214
      -------------------------------------------------------------
                  HL-Gap            0.1155328 Eh            3.1438 eV
             Fermi-level           -0.3745986 Eh          -10.1933 eV

 SCC (total)                   0 d,  0 h,  0 min,  0.020 sec
 SCC setup                      ...        0 min,  0.001 sec (  3.564%)
 Dispersion                     ...        0 min,  0.000 sec (  0.888%)
 classical contributions        ...        0 min,  0.000 sec (  0.534%)
 integral evaluation            ...        0 min,  0.003 sec ( 15.590%)
 iterations                     ...        0 min,  0.011 sec ( 54.292%)
 molecular gradient             ...        0 min,  0.005 sec ( 23.785%)
 printout                       ...        0 min,  0.000 sec (  1.233%)

         :::::::::::::::::::::::::::::::::::::::::::::::::::::
         ::                     SUMMARY                     ::
         :::::::::::::::::::::::::::::::::::::::::::::::::::::
         :: total energy             -52.475897432674 Eh    ::
         :: gradient norm              0.000923053403 Eh/a0 ::
         :: HOMO-LUMO gap              3.143808323567 eV    ::
         ::.................................................::
         :: SCC energy               -52.942339917623 Eh    ::
         :: -> isotropic ES            0.052862976978 Eh    ::
         :: -> anisotropic ES          0.007097127506 Eh    ::
         :: -> anisotropic XC          0.004298887264 Eh    ::
         :: -> dispersion             -0.034268311972 Eh    ::
         :: repulsion energy           0.466442484948 Eh    ::
         :: add. restraining           0.000000000000 Eh    ::
         :: total charge              -0.000000000000 e     ::
         :::::::::::::::::::::::::::::::::::::::::::::::::::::

           -------------------------------------------------
          |                Property Printout                |
           -------------------------------------------------

    * Orbital Energies and Occupations

         #    Occupation            Energy/Eh            Energy/eV
      -------------------------------------------------------------
         1        2.0000           -0.8826435             -24.0180
       ...           ...                  ...                  ...
        34        2.0000           -0.4762958             -12.9607
        35        2.0000           -0.4669113             -12.7053
        36        2.0000           -0.4628918             -12.5959
        37        2.0000           -0.4607822             -12.5385
        38        2.0000           -0.4588749             -12.4866
        39        2.0000           -0.4557490             -12.4016
        40        2.0000           -0.4533262             -12.3356
        41        2.0000           -0.4511770             -12.2771
        42        2.0000           -0.4447119             -12.1012
        43        2.0000           -0.4398538             -11.9690
        44        2.0000           -0.4373071             -11.8997
        45        2.0000           -0.4346834             -11.8283
        46        2.0000           -0.4323650             -11.7653 (HOMO)
        47                         -0.3168322              -8.6214 (LUMO)
        48                         -0.3161046              -8.6016
        49                         -0.2956521              -8.0451
        50                         -0.2839209              -7.7259
        51                         -0.2508292              -6.8254
        52                         -0.2482633              -6.7556
        53                         -0.2333264              -6.3491
        54                         -0.2209179              -6.0115
        55                         -0.2106548              -5.7322
        56                         -0.1845430              -5.0217
        57                         -0.0234553              -0.6383
       ...                                ...                  ...
        98                          0.6916743              18.8214
      -------------------------------------------------------------
                  HL-Gap            0.1155328 Eh            3.1438 eV
             Fermi-level           -0.3745986 Eh          -10.1933 eV

     #   Z          covCN         q      C6AA      α(0)
     1  35 Br       1.498    -0.061   186.720    22.032
     2   6 C        3.073     0.058    26.628     8.461
     3   6 C        3.071     0.058    26.639     8.463
     4  35 Br       1.506    -0.063   186.768    22.035
     5   6 C        2.991     0.064    26.567     8.455
     6  35 Br       1.318    -0.077   187.157    22.058
     7   6 C        3.102    -0.005    28.006     8.672
     8   6 C        3.722     0.092    19.154     6.250
     9   8 O        1.708    -0.264    18.380     5.788
    10   6 C        2.730     0.358    20.923     7.489
    11   8 O        0.856    -0.396    21.600     6.231
    12   6 C        2.888    -0.056    29.390     8.888
    13   6 C        2.843    -0.055    29.357     8.880
    14   6 C        2.986     0.057    26.716     8.479
    15  35 Br       1.320    -0.083   187.332    22.068
    16   6 C        3.075     0.058    26.631     8.461
    17  35 Br       1.536    -0.063   186.763    22.035
    18   1 H        0.924     0.077     2.014     2.219
    19   1 H        0.923     0.076     2.018     2.221
    20   1 H        0.926     0.070     2.089     2.260
    21   1 H        0.926     0.072     2.067     2.249
    22   1 H        0.926     0.085     1.932     2.174

 Mol. C6AA /au·bohr⁶  :      18254.885228
 Mol. C8AA /au·bohr⁸  :     776524.849683
 Mol. α(0) /au        :        215.867976


Wiberg/Mayer (AO) data.
largest (>0.10) Wiberg bond orders for each atom

 ---------------------------------------------------------------------------
     #   Z sym  total        # sym  WBO       # sym  WBO       # sym  WBO
 ---------------------------------------------------------------------------
     1  35 Br   1.243 --     2 C    1.037
     2   6 C    3.955 --    16 C    1.357     3 C    1.353     1 Br   1.037
     3   6 C    3.956 --     5 C    1.357     2 C    1.353     4 Br   1.037
     4  35 Br   1.243 --     3 C    1.037
     5   6 C    3.955 --     7 C    1.362     3 C    1.357     6 Br   1.029
     6  35 Br   1.221 --     5 C    1.029
     7   6 C    3.986 --    14 C    1.373     5 C    1.362     8 C    1.008
     8   6 C    3.932 --     7 C    1.008    18 H    0.954     9 O    0.950
                            19 H    0.946
     9   8 O    2.290 --    10 C    1.084     8 C    0.950    11 O    0.165
    10   6 C    3.914 --    11 O    1.747     9 O    1.084    12 C    1.019
    11   8 O    2.053 --    10 C    1.747     9 O    0.165
    12   6 C    3.985 --    13 C    1.922    10 C    1.019    20 H    0.964
    13   6 C    3.976 --    12 C    1.922    21 H    0.974    22 H    0.969
    14   6 C    3.952 --     7 C    1.373    16 C    1.351    15 Br   1.021
    15  35 Br   1.211 --    14 C    1.021
    16   6 C    3.956 --     2 C    1.357    14 C    1.351    17 Br   1.037
    17  35 Br   1.246 --    16 C    1.037
    18   1 H    0.993 --     8 C    0.954
    19   1 H    0.993 --     8 C    0.946
    20   1 H    0.995 --    12 C    0.964
    21   1 H    0.994 --    13 C    0.974
    22   1 H    0.993 --    13 C    0.969
 ---------------------------------------------------------------------------

Topologies differ in total number of bonds
Writing topology from bond orders to xtbtopo.mol

molecular dipole:
                 x           y           z       tot (Debye)
 q only:        0.606       0.122      -0.370
   full:        0.858       0.143      -0.308       2.345
molecular quadrupole (traceless):
                xx          xy          yy          xz          yz          zz
 q only:        4.385       6.326      -1.661      -9.532      -3.157      -2.724
  q+dip:        1.441      12.892       2.678     -13.449     -12.972      -4.119
   full:        0.511      13.134       3.501     -13.869     -11.314      -4.012

           -------------------------------------------------
          |                Geometry Summary                 |
           -------------------------------------------------

      molecular mass/u    :      556.6635115
   center of mass at/Å    :       -2.0568002       0.2885255      -0.2212091
  moments of inertia/u·Å² :        0.2739961E+04   0.4022488E+04   0.6466278E+04
rotational constants/cm⁻¹ :        0.6152509E-02   0.4190847E-02   0.2607007E-02

 * 20 selected distances

     #   Z          #   Z                                           value/Å
     1  35 Br       2   6 C                                       1.8790368
     2   6 C        3   6 C                                       1.3926362
     3   6 C        4  35 Br                                      1.8787401
     3   6 C        5   6 C                                       1.3931107
     5   6 C        6  35 Br                                      1.8840841
     5   6 C        7   6 C                                       1.3961317
     8   6 C        9   8 O                                       1.4225072
     9   8 O       10   6 C                                       1.3507744
    10   6 C       11   8 O                                       1.2025953
    12   6 C       13   6 C                                       1.3254254
     7   6 C       14   6 C                                       1.3937062
    14   6 C       15  35 Br                                      1.8892282 (max)
     2   6 C       16   6 C                                       1.3922881
    14   6 C       16   6 C                                       1.3955413
    16   6 C       17  35 Br                                      1.8792953
     8   6 C       18   1 H                                       1.0935867
     8   6 C       19   1 H                                       1.0992069
    12   6 C       20   1 H                                       1.0794030
    13   6 C       21   1 H                                       1.0761988 (min)
    13   6 C       22   1 H                                       1.0779794

 * 4 distinct bonds (by element types)

   Z      Z             #   av. dist./Å        max./Å        min./Å
   1 H    6 C           5     1.0852750     1.0992069     1.0761988
   6 C    6 C           7     1.3841200     1.3961317     1.3254254
   6 C    8 O           3     1.3252923     1.4225072     1.2025953
   6 C   35 Br          5     1.8820769     1.8892282     1.8787401


optimized geometry written to: xtbopt.xyz


           -------------------------------------------------
          | TOTAL ENERGY              -52.475897432674 Eh   |
          | GRADIENT NORM               0.000923053403 Eh/α |
          | HOMO-LUMO GAP               3.143808323567 eV   |
           -------------------------------------------------

------------------------------------------------------------------------
 * finished run on 2025/12/01 at 14:22:11.660     
------------------------------------------------------------------------
 total:
 * wall-time:     0 d,  0 h,  0 min,  0.882 sec
 *  cpu-time:     0 d,  0 h,  0 min, 20.102 sec
 * ratio c/w:    22.791 speedup
 SCF:
 * wall-time:     0 d,  0 h,  0 min,  0.060 sec
 *  cpu-time:     0 d,  0 h,  0 min,  1.350 sec
 * ratio c/w:    22.513 speedup
 ANC optimizer:
 * wall-time:     0 d,  0 h,  0 min,  0.812 sec
 *  cpu-time:     0 d,  0 h,  0 min, 18.558 sec
 * ratio c/w:    22.852 speedup

normal termination of xtb
