      -----------------------------------------------------------      
     |                   =====================                   |     
     |                           x T B                           |     
     |                   =====================                   |     
     |                         S. Grimme                         |     
     |          Mulliken Center for Theoretical Chemistry        |     
     |                    University of Bonn                     |     
      -----------------------------------------------------------      

   * xtb version 6.7.1 (edcfbbe) compiled by 'albert@albert-system' on 2024-07-22

   xtb is free software: you can redistribute it and/or modify it under
   the terms of the GNU Lesser General Public License as published by
   the Free Software Foundation, either version 3 of the License, or
   (at your option) any later version.
   
   xtb is distributed in the hope that it will be useful,
   but WITHOUT ANY WARRANTY; without even the implied warranty of
   MERCHANTABILITY or FITNESS FOR A PARTICULAR PURPOSE.  See the
   GNU Lesser General Public License for more details.
   
   Cite this work as:
   * C. Bannwarth, E. Caldeweyher, S. Ehlert, A. Hansen, P. Pracht,
     J. Seibert, S. Spicher, S. Grimme, WIREs Comput. Mol. Sci., 2020, 11,
     e01493. DOI: 10.1002/wcms.1493
   
   for GFN2-xTB:
   * C. Bannwarth, S. Ehlert and S. Grimme., J. Chem. Theory Comput., 2019,
     15, 1652-1671. DOI: 10.1021/acs.jctc.8b01176
   for GFN1-xTB:
   * S. Grimme, C. Bannwarth, P. Shushkov, J. Chem. Theory Comput., 2017,
     13, 1989-2009. DOI: 10.1021/acs.jctc.7b00118
   for GFN0-xTB:
   * P. Pracht, E. Caldeweyher, S. Ehlert, S. Grimme, ChemRxiv, 2019, preprint.
     DOI: 10.26434/chemrxiv.8326202.v1
   for GFN-FF:
   * S. Spicher and S. Grimme, Angew. Chem. Int. Ed., 2020, 59, 15665-15673.
     DOI: 10.1002/anie.202004239
   
   for ALPB and GBSA implicit solvation:
   * S. Ehlert, M. Stahn, S. Spicher, S. Grimme, J. Chem. Theory Comput.,
     2021, 17, 4250-4261. DOI: 10.1021/acs.jctc.1c00471
   
   for ddCOSMO and CPCM-X implicit solvation:
   * M. Stahn, S. Ehlert, S. Grimme, J. Phys. Chem. A,
     2023, XX, XXXX-XXXX. DOI: 10.1021/acs.jpca.3c04382
   
   for DFT-D4:
   * E. Caldeweyher, C. Bannwarth and S. Grimme, J. Chem. Phys., 2017,
     147, 034112. DOI: 10.1063/1.4993215
   * E. Caldeweyher, S. Ehlert, A. Hansen, H. Neugebauer, S. Spicher,
     C. Bannwarth and S. Grimme, J. Chem. Phys., 2019, 150, 154122.
     DOI: 10.1063/1.5090222
   * E. Caldeweyher, J.-M. Mewes, S. Ehlert and S. Grimme, Phys. Chem. Chem. Phys.
     2020, 22, 8499-8512. DOI: 10.1039/D0CP00502A
   
   for sTDA-xTB:
   * S. Grimme and C. Bannwarth, J. Chem. Phys., 2016, 145, 054103.
     DOI: 10.1063/1.4959605
   
   in the mass-spec context:
   * V. Asgeirsson, C. Bauer and S. Grimme, Chem. Sci., 2017, 8, 4879.
     DOI: 10.1039/c7sc00601b
   * J. Koopman and S. Grimme, ACS Omega 2019, 4, 12, 15120-15133.
     DOI: 10.1021/acsomega.9b02011
   
   for metadynamics refer to:
   * S. Grimme, J. Chem. Theory Comput., 2019, 155, 2847-2862
     DOI: 10.1021/acs.jctc.9b00143
   
   for SPH calculations refer to:
   * S. Spicher and S. Grimme, J. Chem. Theory Comput., 2021, 17, 1701-1714
     DOI: 10.1021/acs.jctc.0c01306
   
   for ONIOM refer to:
   * C. Plett, A. Katbashev, S. Ehlert, S. Grimme, M. Bursch,
     Phys. Chem. Chem. Phys., 2023, 25, 17860-17868. DOI: 10.1039/D3CP02178E
   
   for DIPRO refer to:
   * J. Kohn, N. Gildemeister, S. Grimme, D. Fazzi, A. Hansen,
     J. Chem. Phys., 2023, just accepted.
   
   for PTB refer to:
   * S. Grimme, M. Mueller, A. Hansen, J. Chem. Phys., 2023, 158, 124111.
     DOI: 10.1063/5.0137838
   
   with help from (in alphabetical order)
   P. Atkinson, C. Bannwarth, F. Bohle, G. Brandenburg, E. Caldeweyher
   M. Checinski, S. Dohm, S. Ehlert, S. Ehrlich, I. Gerasimov, C. Hölzer
   A. Katbashev, J. Kohn, J. Koopman, C. Lavigne, S. Lehtola, F. März, M. Müller,
   F. Musil, H. Neugebauer, J. Pisarek, C. Plett, P. Pracht, F. Pultar,
   J. Seibert, P. Shushkov, S. Spicher, M. Stahn, M. Steiner, T. Strunk,
   J. Stückrath, T. Rose, and J. Unsleber
   
 * started run on 2025/12/01 at 14:22:11.667     
   ID    Z sym.   atoms
    1    6 C      1, 2, 4, 6, 8, 9
    2    8 O      3, 5, 7
    3    1 H      10-19

           -------------------------------------------------
          |                Calculation Setup                |
           -------------------------------------------------

          program call               : xtb pipeline_data/3_conformer_xyz/acrylates/rdkit/GWZMWHWAWHPNHN-YFKPBYRVSA-N_conf171.xyz --opt --gfn 2-xTB --iterations 250
          coordinate file            : pipeline_data/3_conformer_xyz/acrylates/rdkit/GWZMWHWAWHPNHN-YFKPBYRVSA-N_conf171.xyz
          omp threads                :                    24

########################################################################
[WARNING] Please study the warnings concerning your input carefully
-1- readin_getIntValue: could not parse '2-xTB'
########################################################################

           -------------------------------------------------
          |                 G F N 2 - x T B                 |
           -------------------------------------------------

        Reference                      10.1021/acs.jctc.8b01176
      * Hamiltonian:
        H0-scaling (s, p, d)           1.850000    2.230000    2.230000
        zeta-weighting                 0.500000
      * Dispersion:
        s8                             2.700000
        a1                             0.520000
        a2                             5.000000
        s9                             5.000000
      * Repulsion:
        kExp                           1.500000    1.000000
        rExp                           1.000000
      * Coulomb:
        alpha                          2.000000
        third order                    shell-resolved
        anisotropic                    true
        a3                             3.000000
        a5                             4.000000
        cn-shift                       1.200000
        cn-exp                         4.000000
        max-rad                        5.000000


          ...................................................
          :                      SETUP                      :
          :.................................................:
          :  # basis functions                  46          :
          :  # atomic orbitals                  46          :
          :  # shells                           28          :
          :  # electrons                        52          :
          :  max. iterations                   250          :
          :  Hamiltonian                  GFN2-xTB          :
          :  restarted?                      false          :
          :  GBSA solvation                  false          :
          :  PC potential                    false          :
          :  electronic temp.          300.0000000     K    :
          :  accuracy                    1.0000000          :
          :  -> integral cutoff          0.2500000E+02      :
          :  -> integral neglect         0.1000000E-07      :
          :  -> SCF convergence          0.1000000E-05 Eh   :
          :  -> wf. convergence          0.1000000E-03 e    :
          :  Broyden damping             0.4000000          :
          :  net charge                          0          :
          :  unpaired electrons                  0          :
          ...................................................

 iter      E             dE          RMSdq      gap      omega  full diag
   1    -30.3290533 -0.303291E+02  0.485E+00    4.15       0.0  T
   2    -30.3932294 -0.641760E-01  0.252E+00    3.08       1.0  T
   3    -30.3941589 -0.929498E-03  0.139E+00    3.59       1.0  T
   4    -30.4000713 -0.591241E-02  0.252E-01    3.33       1.0  T
   5    -30.4005594 -0.488146E-03  0.127E-01    3.41       1.0  T
   6    -30.4006925 -0.133112E-03  0.632E-02    3.41       1.0  T
   7    -30.4007113 -0.187801E-04  0.188E-02    3.40       1.2  T
   8    -30.4007124 -0.111832E-05  0.707E-03    3.40       3.2  T
   9    -30.4007126 -0.144935E-06  0.237E-03    3.40       9.7  T
  10    -30.4007126 -0.857418E-08  0.101E-03    3.40      22.7  T
  11    -30.4007126 -0.213381E-08  0.309E-04    3.40      74.3  T
  12    -30.4007126 -0.209230E-09  0.128E-04    3.40     179.8  T

   *** convergence criteria satisfied after 12 iterations ***

         #    Occupation            Energy/Eh            Energy/eV
      -------------------------------------------------------------
         1        2.0000           -0.7275956             -19.7989
       ...           ...                  ...                  ...
        20        2.0000           -0.4719564             -12.8426
        21        2.0000           -0.4558887             -12.4054
        22        2.0000           -0.4462856             -12.1441
        23        2.0000           -0.4384316             -11.9303
        24        2.0000           -0.4332738             -11.7900
        25        2.0000           -0.4197545             -11.4221
        26        2.0000           -0.4096569             -11.1473 (HOMO)
        27                         -0.2846352              -7.7453 (LUMO)
        28                         -0.1718110              -4.6752
        29                         -0.0255146              -0.6943
        30                          0.0188868               0.5139
        31                          0.0779302               2.1206
       ...                                ...                  ...
        46                          0.6152295              16.7412
      -------------------------------------------------------------
                  HL-Gap            0.1250217 Eh            3.4020 eV
             Fermi-level           -0.3471461 Eh           -9.4463 eV

 SCC (total)                   0 d,  0 h,  0 min,  0.025 sec
 SCC setup                      ...        0 min,  0.000 sec (  0.863%)
 Dispersion                     ...        0 min,  0.000 sec (  0.707%)
 classical contributions        ...        0 min,  0.000 sec (  0.244%)
 integral evaluation            ...        0 min,  0.001 sec (  3.061%)
 iterations                     ...        0 min,  0.022 sec ( 86.703%)
 molecular gradient             ...        0 min,  0.002 sec (  7.868%)
 printout                       ...        0 min,  0.000 sec (  0.455%)

         :::::::::::::::::::::::::::::::::::::::::::::::::::::
         ::                     SUMMARY                     ::
         :::::::::::::::::::::::::::::::::::::::::::::::::::::
         :: total energy             -30.095091265619 Eh    ::
         :: gradient norm              0.129752304400 Eh/a0 ::
         :: HOMO-LUMO gap              3.402012366716 eV    ::
         ::.................................................::
         :: SCC energy               -30.400752687529 Eh    ::
         :: -> isotropic ES            0.072927130840 Eh    ::
         :: -> anisotropic ES          0.001828340775 Eh    ::
         :: -> anisotropic XC          0.005822686348 Eh    ::
         :: -> dispersion             -0.011343896211 Eh    ::
         :: repulsion energy           0.305661421909 Eh    ::
         :: add. restraining           0.000000000000 Eh    ::
         :: total charge              -0.000000000000 e     ::
         :::::::::::::::::::::::::::::::::::::::::::::::::::::

      ----------------------------------------------------------- 
     |                   =====================                   |
     |                        A N C O P T                        |
     |                   =====================                   |
     |               Approximate Normal Coordinate               |
     |                Rational Function Optimizer                |
      ----------------------------------------------------------- 
      ----------------------------------------------------------- 
     |                   =====================                   |
     |                        A N C O P T                        |
     |                   =====================                   |
     |               Approximate Normal Coordinate               |
     |                Rational Function Optimizer                |
      ----------------------------------------------------------- 

          ...................................................
          :                      SETUP                      :
          :.................................................:
          :   optimization level            normal          :
          :   max. optcycles                   200          :
          :   ANC micro-cycles                  20          :
          :   degrees of freedom                51          :
          :.................................................:
          :   RF solver                   davidson          :
          :   write xtbopt.log                true          :
          :   linear?                        false          :
          :   energy convergence         0.5000000E-05 Eh   :
          :   grad. convergence          0.1000000E-02 Eh/α :
          :   maxmium RF displ.          1.0000000          :
          :   Hlow (freq-cutoff)         0.1000000E-01      :
          :   Hmax (freq-cutoff)         5.0000000          :
          :   S6 in model hess.         20.0000000          :
          ...................................................

generating ANC from exact Hessian ...
Using Lindh-Hessian (1995)
 Shifting diagonal of input Hessian by   8.620192731092581E-003
 Lowest  eigenvalues of input Hessian
    0.000000    0.000000    0.000000    0.000000    0.000000    0.000000
    0.010000    0.010595    0.011257    0.014932    0.018847    0.021383
    0.021783    0.022788    0.030598    0.031835    0.042519    0.044350
 Highest eigenvalues
    1.316865    1.452796    1.513838    1.726909    1.992420    2.101579
 

........................................................................
.............................. CYCLE    1 ..............................
........................................................................

 iter      E             dE          RMSdq      gap      omega  full diag
   1    -30.4007126 -0.304007E+02  0.368E-05    3.40       0.0  T
   2    -30.4007126 -0.173017E-11  0.220E-05    3.40    1041.0  T
   3    -30.4007126 -0.181188E-12  0.904E-06    3.40    2537.7  T
     SCC iter.                  ...        0 min,  0.002 sec
     gradient                   ...        0 min,  0.005 sec
 * total energy  :   -30.0950913 Eh     change       -0.3121059E-10 Eh
   gradient norm :     0.1297529 Eh/α   predicted     0.0000000E+00 (-100.00%)
   displ. norm   :     0.3003859 α      lambda       -0.1853364E-01
   maximum displ.:     0.1740292 α      in ANC's #12, #17, #30, ...

........................................................................
.............................. CYCLE    2 ..............................
........................................................................

 iter      E             dE          RMSdq      gap      omega  full diag
   1    -30.4289561 -0.304290E+02  0.291E-01    3.58       0.0  T
   2    -30.4292213 -0.265269E-03  0.190E-01    3.62       1.0  T
   3    -30.4291862  0.351555E-04  0.107E-01    3.63       1.0  T
   4    -30.4292646 -0.784408E-04  0.431E-02    3.64       1.0  T
   5    -30.4292875 -0.229038E-04  0.958E-03    3.63       2.4  T
   6    -30.4292881 -0.574696E-06  0.474E-03    3.63       4.8  T
   7    -30.4292881 -0.510540E-07  0.161E-03    3.63      14.2  T
   8    -30.4292881 -0.363918E-08  0.560E-04    3.63      41.0  T
   9    -30.4292881 -0.984826E-09  0.184E-04    3.63     124.8  T
     SCC iter.                  ...        0 min,  0.010 sec
     gradient                   ...        0 min,  0.003 sec
 * total energy  :   -30.1078581 Eh     change       -0.1276681E-01 Eh
   gradient norm :     0.0506263 Eh/α   predicted    -0.1010822E-01 ( -20.82%)
   displ. norm   :     0.3127510 α      lambda       -0.5893471E-02
   maximum displ.:     0.1783915 α      in ANC's #12, #9, #6, ...

........................................................................
.............................. CYCLE    3 ..............................
........................................................................

 iter      E             dE          RMSdq      gap      omega  full diag
   1    -30.4432130 -0.304432E+02  0.177E-01    3.73       0.0  T
   2    -30.4433095 -0.965960E-04  0.114E-01    3.77       1.0  T
   3    -30.4432927  0.168801E-04  0.687E-02    3.77       1.0  T
   4    -30.4433292 -0.365062E-04  0.254E-02    3.78       1.0  T
   5    -30.4433359 -0.668285E-05  0.514E-03    3.77       4.5  T
   6    -30.4433360 -0.155058E-06  0.235E-03    3.77       9.7  T
   7    -30.4433360 -0.192539E-07  0.799E-04    3.77      28.7  T
   8    -30.4433360 -0.729088E-09  0.284E-04    3.77      80.7  T
     SCC iter.                  ...        0 min,  0.007 sec
     gradient                   ...        0 min,  0.002 sec
 * total energy  :   -30.1113083 Eh     change       -0.3450231E-02 Eh
   gradient norm :     0.0148651 Eh/α   predicted    -0.3234966E-02 (  -6.24%)
   displ. norm   :     0.2238915 α      lambda       -0.1168572E-02
   maximum displ.:     0.0949081 α      in ANC's #8, #12, #3, ...

........................................................................
.............................. CYCLE    4 ..............................
........................................................................

 iter      E             dE          RMSdq      gap      omega  full diag
   1    -30.4431781 -0.304432E+02  0.917E-02    3.77       0.0  T
   2    -30.4431816 -0.351577E-05  0.558E-02    3.78       1.0  T
   3    -30.4431726  0.898313E-05  0.281E-02    3.78       1.0  T
   4    -30.4431830 -0.104031E-04  0.516E-03    3.78       4.4  T
   5    -30.4431834 -0.337424E-06  0.175E-03    3.78      13.1  T
   6    -30.4431834 -0.105891E-07  0.912E-04    3.78      25.2  T
   7    -30.4431834 -0.132144E-08  0.194E-04    3.78     118.4  T
     SCC iter.                  ...        0 min,  0.005 sec
     gradient                   ...        0 min,  0.001 sec
 * total energy  :   -30.1120747 Eh     change       -0.7664278E-03 Eh
   gradient norm :     0.0093102 Eh/α   predicted    -0.6136007E-03 ( -19.94%)
   displ. norm   :     0.2534229 α      lambda       -0.7250612E-03
   maximum displ.:     0.1189657 α      in ANC's #8, #3, #5, ...

........................................................................
.............................. CYCLE    5 ..............................
........................................................................

 iter      E             dE          RMSdq      gap      omega  full diag
   1    -30.4418388 -0.304418E+02  0.117E-01    3.77       0.0  T
   2    -30.4418419 -0.312787E-05  0.702E-02    3.77       1.0  T
   3    -30.4418392  0.274684E-05  0.166E-02    3.77       1.4  T
   4    -30.4418426 -0.345946E-05  0.485E-03    3.77       4.7  T
   5    -30.4418429 -0.223042E-06  0.227E-03    3.77      10.1  T
   6    -30.4418429 -0.216722E-07  0.937E-04    3.77      24.5  T
   7    -30.4418429 -0.195235E-08  0.216E-04    3.77     106.1  T
     SCC iter.                  ...        0 min,  0.005 sec
     gradient                   ...        0 min,  0.001 sec
 * total energy  :   -30.1124239 Eh     change       -0.3491670E-03 Eh
   gradient norm :     0.0109881 Eh/α   predicted    -0.3859568E-03 (  10.54%)
   displ. norm   :     0.1168439 α      lambda       -0.2981989E-03
   maximum displ.:     0.0581831 α      in ANC's #5, #1, #8, ...

........................................................................
.............................. CYCLE    6 ..............................
........................................................................

 iter      E             dE          RMSdq      gap      omega  full diag
   1    -30.4435977 -0.304436E+02  0.612E-02    3.77       0.0  T
   2    -30.4435985 -0.730807E-06  0.367E-02    3.77       1.0  T
   3    -30.4435980  0.472279E-06  0.683E-03    3.77       3.4  T
   4    -30.4435986 -0.544474E-06  0.243E-03    3.77       9.4  T
   5    -30.4435986 -0.808377E-07  0.971E-04    3.77      23.6  T
   6    -30.4435986 -0.339593E-08  0.401E-04    3.77      57.2  T
     SCC iter.                  ...        0 min,  0.005 sec
     gradient                   ...        0 min,  0.001 sec
 * total energy  :   -30.1126273 Eh     change       -0.2033538E-03 Eh
   gradient norm :     0.0074627 Eh/α   predicted    -0.1511533E-03 ( -25.67%)
   displ. norm   :     0.1603499 α      lambda       -0.2404902E-03
   maximum displ.:     0.0849449 α      in ANC's #1, #5, #4, ...

........................................................................
.............................. CYCLE    7 ..............................
........................................................................

 iter      E             dE          RMSdq      gap      omega  full diag
   1    -30.4452386 -0.304452E+02  0.708E-02    3.77       0.0  T
   2    -30.4452393 -0.657082E-06  0.422E-02    3.76       1.0  T
   3    -30.4452372  0.206387E-05  0.123E-02    3.77       1.9  T
   4    -30.4452395 -0.233810E-05  0.217E-03    3.76      10.6  T
   5    -30.4452396 -0.407165E-07  0.993E-04    3.76      23.1  T
   6    -30.4452396 -0.182300E-08  0.373E-04    3.76      61.6  T
     SCC iter.                  ...        0 min,  0.004 sec
     gradient                   ...        0 min,  0.001 sec
 * total energy  :   -30.1128107 Eh     change       -0.1834846E-03 Eh
   gradient norm :     0.0049465 Eh/α   predicted    -0.1233398E-03 ( -32.78%)
   displ. norm   :     0.3254729 α      lambda       -0.3314504E-03
   maximum displ.:     0.1647929 α      in ANC's #1, #5, #2, ...

........................................................................
.............................. CYCLE    8 ..............................
........................................................................

 iter      E             dE          RMSdq      gap      omega  full diag
   1    -30.4443209 -0.304443E+02  0.154E-01    3.76       0.0  T
   2    -30.4443222 -0.136102E-05  0.915E-02    3.75       1.0  T
   3    -30.4443191  0.307542E-05  0.155E-02    3.76       1.5  T
   4    -30.4443230 -0.382006E-05  0.361E-03    3.75       6.4  T
   5    -30.4443230 -0.493946E-07  0.175E-03    3.76      13.1  T
   6    -30.4443230 -0.294456E-08  0.416E-04    3.76      55.1  T
   7    -30.4443230 -0.630834E-09  0.156E-04    3.76     147.2  T
     SCC iter.                  ...        0 min,  0.005 sec
     gradient                   ...        0 min,  0.001 sec
 * total energy  :   -30.1130611 Eh     change       -0.2504085E-03 Eh
   gradient norm :     0.0076133 Eh/α   predicted    -0.1832844E-03 ( -26.81%)
   displ. norm   :     0.3831976 α      lambda       -0.3643487E-03
   maximum displ.:     0.2253163 α      in ANC's #1, #5, #2, ...

........................................................................
.............................. CYCLE    9 ..............................
........................................................................

 iter      E             dE          RMSdq      gap      omega  full diag
   1    -30.4429400 -0.304429E+02  0.197E-01    3.75       0.0  T
   2    -30.4429413 -0.123362E-05  0.117E-01    3.75       1.0  T
   3    -30.4429380  0.326087E-05  0.157E-02    3.75       1.5  T
   4    -30.4429421 -0.409366E-05  0.359E-03    3.75       6.4  T
   5    -30.4429421 -0.371429E-07  0.178E-03    3.75      12.9  T
   6    -30.4429421 -0.537532E-08  0.399E-04    3.75      57.5  T
   7    -30.4429421 -0.535344E-09  0.147E-04    3.75     156.4  T
     SCC iter.                  ...        0 min,  0.005 sec
     gradient                   ...        0 min,  0.001 sec
 * total energy  :   -30.1133022 Eh     change       -0.2410914E-03 Eh
   gradient norm :     0.0068762 Eh/α   predicted    -0.2089399E-03 ( -13.34%)
   displ. norm   :     0.2083441 α      lambda       -0.1753900E-03
   maximum displ.:     0.1392734 α      in ANC's #1, #2, #5, ...

........................................................................
.............................. CYCLE   10 ..............................
........................................................................

 iter      E             dE          RMSdq      gap      omega  full diag
   1    -30.4439777 -0.304440E+02  0.116E-01    3.76       0.0  T
   2    -30.4439789 -0.119746E-05  0.688E-02    3.76       1.0  T
   3    -30.4439791 -0.138659E-06  0.357E-03    3.76       6.4  T
   4    -30.4439791 -0.508949E-07  0.215E-03    3.76      10.7  T
   5    -30.4439791 -0.313215E-07  0.133E-03    3.76      17.3  T
   6    -30.4439792 -0.757461E-08  0.352E-04    3.76      65.1  T
   7    -30.4439792 -0.801087E-09  0.108E-04    3.76     212.6  T
     SCC iter.                  ...        0 min,  0.005 sec
     gradient                   ...        0 min,  0.001 sec
 * total energy  :   -30.1134138 Eh     change       -0.1115728E-03 Eh
   gradient norm :     0.0045425 Eh/α   predicted    -0.9150535E-04 ( -17.99%)
   displ. norm   :     0.1836610 α      lambda       -0.1086424E-03
   maximum displ.:     0.1212100 α      in ANC's #1, #2, #5, ...

........................................................................
.............................. CYCLE   11 ..............................
........................................................................

 iter      E             dE          RMSdq      gap      omega  full diag
   1    -30.4443104 -0.304443E+02  0.106E-01    3.77       0.0  T
   2    -30.4443108 -0.450356E-06  0.625E-02    3.77       1.0  T
   3    -30.4443109 -0.990400E-07  0.292E-03    3.77       7.8  T
   4    -30.4443110 -0.545937E-07  0.159E-03    3.77      14.4  T
   5    -30.4443110 -0.730151E-08  0.103E-03    3.77      22.2  T
   6    -30.4443110 -0.718997E-08  0.315E-04    3.77      72.8  T
   7    -30.4443110 -0.370321E-09  0.845E-05    3.77     271.4  T
     SCC iter.                  ...        0 min,  0.005 sec
     gradient                   ...        0 min,  0.001 sec
 * total energy  :   -30.1134741 Eh     change       -0.6026414E-04 Eh
   gradient norm :     0.0040682 Eh/α   predicted    -0.5616020E-04 (  -6.81%)
   displ. norm   :     0.1480480 α      lambda       -0.6541386E-04
   maximum displ.:     0.1009982 α      in ANC's #1, #2, #5, ...

........................................................................
.............................. CYCLE   12 ..............................
........................................................................

 iter      E             dE          RMSdq      gap      omega  full diag
   1    -30.4441555 -0.304442E+02  0.799E-02    3.77       0.0  T
   2    -30.4441559 -0.391398E-06  0.473E-02    3.77       1.0  T
   3    -30.4441559  0.164726E-07  0.358E-03    3.77       6.4  T
   4    -30.4441560 -0.120768E-06  0.197E-03    3.77      11.6  T
   5    -30.4441561 -0.367279E-07  0.869E-04    3.77      26.4  T
   6    -30.4441561 -0.127636E-08  0.222E-04    3.77     103.5  T
     SCC iter.                  ...        0 min,  0.004 sec
     gradient                   ...        0 min,  0.001 sec
 * total energy  :   -30.1135063 Eh     change       -0.3225062E-04 Eh
   gradient norm :     0.0040858 Eh/α   predicted    -0.3342444E-04 (   3.64%)
   displ. norm   :     0.0849838 α      lambda       -0.7658802E-04
   maximum displ.:     0.0647599 α      in ANC's #1, #2, #5, ...

........................................................................
.............................. CYCLE   13 ..............................
........................................................................

 iter      E             dE          RMSdq      gap      omega  full diag
   1    -30.4479343 -0.304479E+02  0.546E-02    3.78       0.0  T
   2    -30.4479354 -0.111760E-05  0.319E-02    3.78       1.0  T
   3    -30.4479353  0.772173E-07  0.471E-03    3.78       4.9  T
   4    -30.4479355 -0.167958E-06  0.160E-03    3.78      14.3  T
   5    -30.4479355 -0.238819E-07  0.871E-04    3.78      26.3  T
   6    -30.4479355 -0.404033E-08  0.469E-04    3.78      48.9  T
     SCC iter.                  ...        0 min,  0.004 sec
     gradient                   ...        0 min,  0.001 sec
 * total energy  :   -30.1135188 Eh     change       -0.1246382E-04 Eh
   gradient norm :     0.0055686 Eh/α   predicted    -0.3857077E-04 ( 209.46%)
   displ. norm   :     0.0925953 α      lambda       -0.5874108E-04
   maximum displ.:     0.0555583 α      in ANC's #2, #1, #5, ...

........................................................................
.............................. CYCLE   14 ..............................
........................................................................

 iter      E             dE          RMSdq      gap      omega  full diag
   1    -30.4455979 -0.304456E+02  0.591E-02    3.77       0.0  T
   2    -30.4455990 -0.104143E-05  0.349E-02    3.77       1.0  T
   3    -30.4455978  0.114895E-05  0.932E-03    3.77       2.5  T
   4    -30.4455990 -0.122867E-05  0.279E-03    3.77       8.2  T
   5    -30.4455991 -0.109996E-06  0.712E-04    3.77      32.2  T
   6    -30.4455991 -0.947704E-09  0.407E-04    3.77      56.4  T
     SCC iter.                  ...        0 min,  0.004 sec
     gradient                   ...        0 min,  0.001 sec
 * total energy  :   -30.1135539 Eh     change       -0.3511110E-04 Eh
   gradient norm :     0.0026309 Eh/α   predicted    -0.2962644E-04 ( -15.62%)
   displ. norm   :     0.0601719 α      lambda       -0.1998083E-04
   maximum displ.:     0.0430309 α      in ANC's #1, #2, #3, ...

........................................................................
.............................. CYCLE   15 ..............................
........................................................................

 iter      E             dE          RMSdq      gap      omega  full diag
   1    -30.4450088 -0.304450E+02  0.371E-02    3.77       0.0  T
   2    -30.4450091 -0.241480E-06  0.219E-02    3.77       1.0  T
   3    -30.4450089  0.179220E-06  0.379E-03    3.77       6.0  T
   4    -30.4450091 -0.181932E-06  0.156E-03    3.77      14.7  T
   5    -30.4450091 -0.359694E-07  0.368E-04    3.77      62.3  T
   6    -30.4450091 -0.528608E-10  0.135E-04    3.77     169.8  T
     SCC iter.                  ...        0 min,  0.004 sec
     gradient                   ...        0 min,  0.001 sec
 * total energy  :   -30.1135658 Eh     change       -0.1187594E-04 Eh
   gradient norm :     0.0016022 Eh/α   predicted    -0.1002844E-04 ( -15.56%)
   displ. norm   :     0.1141181 α      lambda       -0.1614722E-04
   maximum displ.:     0.0801722 α      in ANC's #1, #2, #4, ...

........................................................................
.............................. CYCLE   16 ..............................
........................................................................

 iter      E             dE          RMSdq      gap      omega  full diag
   1    -30.4448259 -0.304448E+02  0.744E-02    3.76       0.0  T
   2    -30.4448262 -0.211986E-06  0.439E-02    3.76       1.0  T
   3    -30.4448257  0.500944E-06  0.614E-03    3.76       3.7  T
   4    -30.4448263 -0.618770E-06  0.126E-03    3.76      18.2  T
   5    -30.4448263 -0.723452E-08  0.686E-04    3.76      33.4  T
   6    -30.4448263 -0.804963E-09  0.227E-04    3.76     100.9  T
     SCC iter.                  ...        0 min,  0.004 sec
     gradient                   ...        0 min,  0.001 sec
 * total energy  :   -30.1135818 Eh     change       -0.1601317E-04 Eh
   gradient norm :     0.0026333 Eh/α   predicted    -0.8122648E-05 ( -49.28%)
   displ. norm   :     0.0900874 α      lambda       -0.1869660E-04
   maximum displ.:     0.0641205 α      in ANC's #1, #2, #4, ...

........................................................................
.............................. CYCLE   17 ..............................
........................................................................

 iter      E             dE          RMSdq      gap      omega  full diag
   1    -30.4452556 -0.304453E+02  0.612E-02    3.76       0.0  T
   2    -30.4452558 -0.231402E-06  0.361E-02    3.76       1.0  T
   3    -30.4452558 -0.385217E-07  0.141E-03    3.76      16.3  T
   4    -30.4452558 -0.657141E-08  0.866E-04    3.76      26.5  T
   5    -30.4452558 -0.422353E-08  0.534E-04    3.76      43.0  T
     SCC iter.                  ...        0 min,  0.004 sec
     gradient                   ...        0 min,  0.001 sec
 * total energy  :   -30.1135958 Eh     change       -0.1400214E-04 Eh
   gradient norm :     0.0016724 Eh/α   predicted    -0.9428787E-05 ( -32.66%)
   displ. norm   :     0.1999258 α      lambda       -0.2058552E-04
   maximum displ.:     0.1358335 α      in ANC's #1, #2, #4, ...

........................................................................
.............................. CYCLE   18 ..............................
........................................................................

 iter      E             dE          RMSdq      gap      omega  full diag
   1    -30.4455076 -0.304455E+02  0.130E-01    3.76       0.0  T
   2    -30.4455083 -0.612198E-06  0.768E-02    3.76       1.0  T
   3    -30.4455085 -0.251485E-06  0.288E-03    3.76       8.0  T
   4    -30.4455085 -0.271535E-07  0.170E-03    3.76      13.5  T
   5    -30.4455085 -0.202908E-08  0.694E-04    3.76      33.0  T
   6    -30.4455085 -0.154407E-08  0.233E-04    3.76      98.5  T
     SCC iter.                  ...        0 min,  0.004 sec
     gradient                   ...        0 min,  0.001 sec
 * total energy  :   -30.1136103 Eh     change       -0.1447371E-04 Eh
   gradient norm :     0.0020123 Eh/α   predicted    -0.1047655E-04 ( -27.62%)
   displ. norm   :     0.0205426 α      lambda       -0.7607799E-05
   maximum displ.:     0.0116699 α      in ANC's #2, #4, #1, ...

........................................................................
.............................. CYCLE   19 ..............................
........................................................................

 iter      E             dE          RMSdq      gap      omega  full diag
   1    -30.4456450 -0.304456E+02  0.146E-02    3.76       0.0  T
   2    -30.4456451 -0.894634E-07  0.862E-03    3.76       2.7  T
   3    -30.4456450  0.123054E-07  0.161E-03    3.76      14.3  T
   4    -30.4456451 -0.217070E-07  0.354E-04    3.76      64.8  T
   5    -30.4456451 -0.751438E-09  0.233E-04    3.76      98.3  T
     SCC iter.                  ...        0 min,  0.004 sec
     gradient                   ...        0 min,  0.002 sec
 * total energy  :   -30.1136155 Eh     change       -0.5192029E-05 Eh
   gradient norm :     0.0012451 Eh/α   predicted    -0.3809289E-05 ( -26.63%)
   displ. norm   :     0.0639186 α      lambda       -0.1113654E-04
   maximum displ.:     0.0393566 α      in ANC's #2, #3, #10, ...

........................................................................
.............................. CYCLE   20 ..............................
........................................................................

 iter      E             dE          RMSdq      gap      omega  full diag
   1    -30.4454960 -0.304455E+02  0.395E-02    3.76       0.0  T
   2    -30.4454963 -0.302370E-06  0.234E-02    3.76       1.0  T
   3    -30.4454963  0.236172E-07  0.285E-03    3.76       8.0  T
   4    -30.4454963 -0.546841E-07  0.173E-03    3.76      13.3  T
   5    -30.4454963 -0.342274E-07  0.650E-04    3.76      35.3  T
   6    -30.4454964 -0.517662E-09  0.154E-04    3.76     148.9  T
     SCC iter.                  ...        0 min,  0.004 sec
     gradient                   ...        0 min,  0.001 sec
 * total energy  :   -30.1136260 Eh     change       -0.1050399E-04 Eh
   gradient norm :     0.0012278 Eh/α   predicted    -0.5580877E-05 ( -46.87%)
   displ. norm   :     0.0644563 α      lambda       -0.7249586E-05
   maximum displ.:     0.0399821 α      in ANC's #2, #3, #10, ...
 * RMSD in coord.:     0.5896097 α      energy gain  -0.1853469E-01 Eh

generating ANC from exact Hessian ...
Using Lindh-Hessian (1995)
 Shifting diagonal of input Hessian by   8.717823577196094E-003
 Lowest  eigenvalues of input Hessian
    0.000000    0.000000    0.000000    0.000000    0.000000    0.000000
    0.010000    0.011069    0.011694    0.015169    0.019028    0.020589
    0.022198    0.024212    0.030323    0.032828    0.042866    0.046983
 Highest eigenvalues
    1.317427    1.452794    1.503774    1.758704    2.027752    2.389956
 

........................................................................
.............................. CYCLE   21 ..............................
........................................................................

 iter      E             dE          RMSdq      gap      omega  full diag
   1    -30.4452918 -0.304453E+02  0.404E-02    3.76       0.0  T
   2    -30.4452920 -0.173257E-06  0.239E-02    3.76       1.0  T
   3    -30.4452920  0.356987E-07  0.293E-03    3.76       7.8  T
   4    -30.4452921 -0.999674E-07  0.134E-03    3.76      17.1  T
   5    -30.4452921 -0.111093E-07  0.757E-04    3.76      30.3  T
   6    -30.4452921 -0.181859E-08  0.199E-04    3.76     115.4  T
     SCC iter.                  ...        0 min,  0.004 sec
     gradient                   ...        0 min,  0.001 sec
 * total energy  :   -30.1136324 Eh     change       -0.6419165E-05 Eh
   gradient norm :     0.0011960 Eh/α   predicted     0.0000000E+00 (-100.00%)
   displ. norm   :     0.0165937 α      lambda       -0.3830338E-05
   maximum displ.:     0.0087522 α      in ANC's #5, #1, #2, ...

........................................................................
.............................. CYCLE   22 ..............................
........................................................................

 iter      E             dE          RMSdq      gap      omega  full diag
   1    -30.4456376 -0.304456E+02  0.105E-02    3.76       0.0  T
   2    -30.4456376 -0.247679E-07  0.615E-03    3.76       3.7  T
   3    -30.4456376  0.311142E-07  0.160E-03    3.76      14.4  T
   4    -30.4456376 -0.365578E-07  0.414E-04    3.76      55.4  T
   5    -30.4456376 -0.169161E-08  0.167E-04    3.76     137.1  T
     SCC iter.                  ...        0 min,  0.003 sec
     gradient                   ...        0 min,  0.001 sec
 * total energy  :   -30.1136359 Eh     change       -0.3559515E-05 Eh
   gradient norm :     0.0004437 Eh/α   predicted    -0.1983971E-05 ( -44.26%)
   displ. norm   :     0.0256461 α      lambda       -0.2950096E-05
   maximum displ.:     0.0143726 α      in ANC's #5, #2, #1, ...

   *** GEOMETRY OPTIMIZATION CONVERGED AFTER 22 ITERATIONS ***

------------------------------------------------------------------------
 total energy gain   :        -0.0185447 Eh      -11.6370 kcal/mol
 total RMSD          :         0.5897056 a0        0.3121 Å
 total power (kW/mol):        -2.2131377 (step) -273.0398 (real)
------------------------------------------------------------------------

 ANCopt (total)                0 d,  0 h,  0 min,  0.178 sec
 optimizer setup                ...        0 min,  0.000 sec (  0.063%)
 model hessian                  ...        0 min,  0.009 sec (  5.219%)
 ANC generation                 ...        0 min,  0.004 sec (  2.326%)
 coordinate transformation      ...        0 min,  0.000 sec (  0.098%)
 single point calculation       ...        0 min,  0.154 sec ( 86.602%)
 optimization log               ...        0 min,  0.006 sec (  3.546%)
 hessian update                 ...        0 min,  0.001 sec (  0.579%)
 rational function              ...        0 min,  0.002 sec (  1.037%)

================
 final structure:
================
19
 xtb: 6.7.1 (edcfbbe)
C           -3.10625712987518       -0.32053923957351        0.23176357251812
C           -1.77922457029488        0.31526426994584        0.64715044494251
O           -1.80530384183743        1.71714483537094        0.48463066634195
C           -0.63204722211795       -0.21052932468808       -0.21304137502835
O            0.59491085270290        0.01000297148734        0.47028412448279
C            1.71149062174248       -0.26495857422503       -0.21703104875889
O            1.71414161472258       -0.69770426004205       -1.34302572582719
C            2.91339810503406        0.02679235493463        0.59412035919759
C            4.13090751142915       -0.19039673021058        0.11955479572867
H           -3.06887072491401       -1.39820734363633        0.35966048183757
H           -3.91802911038236        0.07219845961357        0.84114049124157
H           -3.31291505753303       -0.09324520276222       -0.81115173176187
H           -1.55943209832402        0.06452961307962        1.69736172796480
H           -2.52569958857401        2.08168728015250        1.01012581101906
H           -0.61476353018869        0.32054646730263       -1.17016529149012
H           -0.74539586672525       -1.28247033801916       -0.40639875424957
H            2.72371737067217        0.42275663778809        1.57995959989380
H            4.26040355134889       -0.58865062632543       -0.87379905804857
H            5.01896811311488        0.01577874980703        0.69195790999598
 
 Bond Distances (Angstroems)
 ---------------------------
C1-C2=1.5290         C1-H10=1.0859        C1-H11=1.0884        C1-H12=1.0872        C2-C1=1.5290         C2-O3=1.4115         
C2-C4=1.5272         C2-H13=1.1019        O3-C2=1.4115         O3-H14=0.9633        C4-C2=1.5272         C4-O5=1.4216         
C4-H15=1.0947        C4-H16=1.0951        O5-C4=1.4216         O5-C6=1.3397         C6-O5=1.3397         C6-O7=1.2063         
C6-C8=1.4791         O7-C6=1.2063         C8-C6=1.4791         C8-C9=1.3247         C8-H17=1.0792        C9-C8=1.3247         
C9-H18=1.0780        C9-H19=1.0765        H10-C1=1.0859        H11-C1=1.0884        H12-C1=1.0872        H13-C2=1.1019        
H14-O3=0.9633        H15-C4=1.0947        H16-C4=1.0951        H17-C8=1.0792        H18-C9=1.0780        H19-C9=1.0765        
 C  H  Rav=1.0874 sigma=0.0082  Rmin=1.0765  Rmax=1.1019     9
 C  C  Rav=1.4650 sigma=0.0835  Rmin=1.3247  Rmax=1.5290     4
 O  H  Rav=0.9633 sigma=0.0000  Rmin=0.9633  Rmax=0.9633     1
 O  C  Rav=1.3448 sigma=0.0860  Rmin=1.2063  Rmax=1.4216     4
 
 selected bond angles (degree)
 --------------------
H10-C1-C2=110.54               H11-C1-C2=110.19               H11-C1-H10=108.53              H12-C1-C2=109.79               
H12-C1-H10=109.09              H12-C1-H11=108.66              O3-C2-C1=111.45                C4-C2-C1=110.84                
C4-C2-O3=106.92                H13-C2-C1=109.72               H13-C2-O3=109.84               H13-C2-C4=107.98               
H14-O3-C2=109.08               O5-C4-C2=108.91                H15-C4-C2=109.71               H15-C4-O5=109.35               
H16-C4-C2=111.02               H16-C4-O5=109.03               H16-C4-H15=108.79              C6-O5-C4=116.16                
O7-C6-O5=123.67                C8-C6-O5=110.82                C8-C6-O7=125.51                C9-C8-C6=121.20                
H17-C8-C6=115.50               H17-C8-C9=123.30               H18-C9-C8=120.07               H19-C9-C8=122.43               
H19-C9-H18=117.49              
 
 selected dihedral angles (degree)
 ---------------------------------
O3-C2-C1-H10=179.82           O3-C2-C1-H11=299.79           O3-C2-C1-H12= 59.43           C4-C2-C1-H10= 60.87           
C4-C2-C1-H11=180.83           C4-C2-C1-H12=300.48           H13-C2-C1-H10=301.71          H13-C2-C1-H11= 61.67          
H13-C2-C1-H12=181.31          H14-O3-C2-C1= 58.24           H14-O3-C2-C4=179.50           H14-O3-C2-H13=296.42          
O5-C4-C2-C1=200.37            O5-C4-C2-O3= 78.72            O5-C4-C2-H13=320.57           H15-C4-C2-C1= 80.71           
H15-C4-C2-O3=319.06           H15-C4-C2-H13=200.91          H16-C4-C2-C1=320.43           H16-C4-C2-O3=198.78           
H16-C4-C2-H13= 80.63          C6-O5-C4-C2=187.00            C6-O5-C4-H15=306.88           C6-O5-C4-H16= 65.72           
O7-C6-O5-C4=358.74            C8-C6-O5-C4=179.06            C9-C8-C6-O5=178.98            C9-C8-C6-O7=359.31            
H17-C8-C6-O5=358.90           H17-C8-C6-O7=179.23           H18-C9-C8-C6=359.87           H18-C9-C8-H17=179.96          
H19-C9-C8-C6=179.93           H19-C9-C8-H17=  0.00          
           -------------------------------------------------
          |                Final Singlepoint                |
           -------------------------------------------------

          ...................................................
          :                      SETUP                      :
          :.................................................:
          :  # basis functions                  46          :
          :  # atomic orbitals                  46          :
          :  # shells                           28          :
          :  # electrons                        52          :
          :  max. iterations                   250          :
          :  Hamiltonian                  GFN2-xTB          :
          :  restarted?                      false          :
          :  GBSA solvation                  false          :
          :  PC potential                    false          :
          :  electronic temp.          300.0000000     K    :
          :  accuracy                    1.0000000          :
          :  -> integral cutoff          0.2500000E+02      :
          :  -> integral neglect         0.1000000E-07      :
          :  -> SCF convergence          0.1000000E-05 Eh   :
          :  -> wf. convergence          0.1000000E-03 e    :
          :  Broyden damping             0.4000000          :
          :  net charge                          0          :
          :  unpaired electrons                  0          :
          ...................................................

 iter      E             dE          RMSdq      gap      omega  full diag
   1    -30.4456376 -0.304456E+02  0.802E-05    3.76       0.0  T
   2    -30.4456376 -0.925127E-11  0.490E-05    3.76     468.0  T
   3    -30.4456376 -0.468958E-12  0.237E-05    3.76     966.5  T

   *** convergence criteria satisfied after 3 iterations ***

         #    Occupation            Energy/Eh            Energy/eV
      -------------------------------------------------------------
         1        2.0000           -0.7386271             -20.0991
       ...           ...                  ...                  ...
        20        2.0000           -0.4777024             -12.9989
        21        2.0000           -0.4594674             -12.5027
        22        2.0000           -0.4526985             -12.3186
        23        2.0000           -0.4411700             -12.0048
        24        2.0000           -0.4360598             -11.8658
        25        2.0000           -0.4217833             -11.4773
        26        2.0000           -0.4109944             -11.1837 (HOMO)
        27                         -0.2727421              -7.4217 (LUMO)
        28                         -0.1625106              -4.4221
        29                          0.0044551               0.1212
        30                          0.0360009               0.9796
        31                          0.0811257               2.2075
       ...                                ...                  ...
        46                          0.7095661              19.3083
      -------------------------------------------------------------
                  HL-Gap            0.1382523 Eh            3.7620 eV
             Fermi-level           -0.3418682 Eh           -9.3027 eV

 SCC (total)                   0 d,  0 h,  0 min,  0.004 sec
 SCC setup                      ...        0 min,  0.000 sec (  1.787%)
 Dispersion                     ...        0 min,  0.000 sec (  2.230%)
 classical contributions        ...        0 min,  0.000 sec (  0.893%)
 integral evaluation            ...        0 min,  0.000 sec (  8.590%)
 iterations                     ...        0 min,  0.002 sec ( 49.506%)
 molecular gradient             ...        0 min,  0.001 sec ( 34.367%)
 printout                       ...        0 min,  0.000 sec (  2.035%)

         :::::::::::::::::::::::::::::::::::::::::::::::::::::
         ::                     SUMMARY                     ::
         :::::::::::::::::::::::::::::::::::::::::::::::::::::
         :: total energy             -30.113635937391 Eh    ::
         :: gradient norm              0.000444034724 Eh/a0 ::
         :: HOMO-LUMO gap              3.762036348428 eV    ::
         ::.................................................::
         :: SCC energy               -30.445678791455 Eh    ::
         :: -> isotropic ES            0.069861538893 Eh    ::
         :: -> anisotropic ES          0.001937598261 Eh    ::
         :: -> anisotropic XC          0.005414127963 Eh    ::
         :: -> dispersion             -0.011398565072 Eh    ::
         :: repulsion energy           0.332042854064 Eh    ::
         :: add. restraining           0.000000000000 Eh    ::
         :: total charge              -0.000000000000 e     ::
         :::::::::::::::::::::::::::::::::::::::::::::::::::::

           -------------------------------------------------
          |                Property Printout                |
           -------------------------------------------------

    * Orbital Energies and Occupations

         #    Occupation            Energy/Eh            Energy/eV
      -------------------------------------------------------------
         1        2.0000           -0.7386271             -20.0991
       ...           ...                  ...                  ...
        14        2.0000           -0.5320123             -14.4768
        15        2.0000           -0.5177509             -14.0887
        16        2.0000           -0.5045488             -13.7295
        17        2.0000           -0.5005330             -13.6202
        18        2.0000           -0.4894323             -13.3181
        19        2.0000           -0.4829263             -13.1411
        20        2.0000           -0.4777024             -12.9989
        21        2.0000           -0.4594674             -12.5027
        22        2.0000           -0.4526985             -12.3186
        23        2.0000           -0.4411700             -12.0048
        24        2.0000           -0.4360598             -11.8658
        25        2.0000           -0.4217833             -11.4773
        26        2.0000           -0.4109944             -11.1837 (HOMO)
        27                         -0.2727421              -7.4217 (LUMO)
        28                         -0.1625106              -4.4221
        29                          0.0044551               0.1212
        30                          0.0360009               0.9796
        31                          0.0811257               2.2075
        32                          0.1055990               2.8735
        33                          0.1245802               3.3900
        34                          0.1326289               3.6090
        35                          0.1388278               3.7777
        36                          0.1641373               4.4664
        37                          0.1800852               4.9004
       ...                                ...                  ...
        46                          0.7095661              19.3083
      -------------------------------------------------------------
                  HL-Gap            0.1382523 Eh            3.7620 eV
             Fermi-level           -0.3418682 Eh           -9.3027 eV

     #   Z          covCN         q      C6AA      α(0)
     1   6 C        3.753    -0.128    23.013     6.841
     2   6 C        3.723     0.116    18.790     6.190
     3   8 O        1.656    -0.438    21.596     6.273
     4   6 C        3.709     0.076    19.438     6.301
     5   8 O        1.706    -0.258    18.275     5.772
     6   6 C        2.730     0.356    20.960     7.495
     7   8 O        0.856    -0.413    21.933     6.279
     8   6 C        2.887    -0.058    29.428     8.894
     9   6 C        2.842    -0.060    29.480     8.898
    10   1 H        0.925     0.047     2.362     2.403
    11   1 H        0.925     0.047     2.354     2.399
    12   1 H        0.925     0.056     2.244     2.343
    13   1 H        0.923     0.032     2.555     2.500
    14   1 H        0.805     0.292     0.746     1.356
    15   1 H        0.924     0.073     2.050     2.239
    16   1 H        0.924     0.051     2.313     2.378
    17   1 H        0.926     0.066     2.135     2.285
    18   1 H        0.926     0.079     1.991     2.206
    19   1 H        0.926     0.063     2.163     2.300

 Mol. C6AA /au·bohr⁶  :       3218.551896
 Mol. C8AA /au·bohr⁸  :      70745.469795
 Mol. α(0) /au        :         85.353530


Wiberg/Mayer (AO) data.
largest (>0.10) Wiberg bond orders for each atom

 ---------------------------------------------------------------------------
     #   Z sym  total        # sym  WBO       # sym  WBO       # sym  WBO
 ---------------------------------------------------------------------------
     1   6 C    3.993 --     2 C    0.999    12 H    0.985    10 H    0.985
                            11 H    0.984
     2   6 C    3.960 --     1 C    0.999     3 O    0.993     4 C    0.990
                            13 H    0.959
     3   8 O    1.961 --     2 C    0.993    14 H    0.898
     4   6 C    3.933 --     2 C    0.990    16 H    0.966    15 H    0.963
                             5 O    0.949
     5   8 O    2.311 --     6 C    1.121     4 C    0.949     7 O    0.174
     6   6 C    3.918 --     7 O    1.725     5 O    1.121     8 C    1.011
     7   8 O    2.032 --     6 C    1.725     5 O    0.174
     8   6 C    3.988 --     9 C    1.933     6 C    1.011    17 H    0.964
     9   6 C    3.982 --     8 C    1.933    19 H    0.975    18 H    0.970
    10   1 H    0.998 --     1 C    0.985
    11   1 H    0.997 --     1 C    0.984
    12   1 H    0.997 --     1 C    0.985
    13   1 H    0.999 --     2 C    0.959
    14   1 H    0.915 --     3 O    0.898
    15   1 H    0.995 --     4 C    0.963
    16   1 H    0.997 --     4 C    0.966
    17   1 H    0.996 --     8 C    0.964
    18   1 H    0.994 --     9 C    0.970
    19   1 H    0.995 --     9 C    0.975
 ---------------------------------------------------------------------------

Topologies differ in total number of bonds
Writing topology from bond orders to xtbtopo.mol

molecular dipole:
                 x           y           z       tot (Debye)
 q only:       -0.543      -0.011       0.876
   full:       -0.723      -0.044       1.104       3.357
molecular quadrupole (traceless):
                xx          xy          yy          xz          yz          zz
 q only:       11.628       0.702      -5.672       1.914      -0.052      -5.956
  q+dip:       11.953       0.362      -7.007       1.353       0.287      -4.946
   full:       11.725       0.458      -5.607       1.423      -0.381      -6.117

           -------------------------------------------------
          |                Geometry Summary                 |
           -------------------------------------------------

      molecular mass/u    :      130.1420377
   center of mass at/Å    :        0.3318061       0.0641071       0.0821795
  moments of inertia/u·Å² :        0.1098297E+03   0.7309315E+03   0.7849348E+03
rotational constants/cm⁻¹ :        0.1534888E+00   0.2306322E-01   0.2147647E-01

 * 17 selected distances

     #   Z          #   Z                                           value/Å
     1   6 C        2   6 C                                       1.5289893 (max)
     2   6 C        3   8 O                                       1.4115106
     2   6 C        4   6 C                                       1.5272214
     4   6 C        5   8 O                                       1.4216169
     5   8 O        6   6 C                                       1.3396853
     6   6 C        7   8 O                                       1.2062919
     8   6 C        9   6 C                                       1.3246558
     1   6 C       10   1 H                                       1.0858748
     1   6 C       11   1 H                                       1.0883736
     1   6 C       12   1 H                                       1.0872178
     2   6 C       13   1 H                                       1.1018714
     3   8 O       14   1 H                                       0.9633310 (min)
     4   6 C       15   1 H                                       1.0947267
     4   6 C       16   1 H                                       1.0951223
     8   6 C       17   1 H                                       1.0791875
     9   6 C       18   1 H                                       1.0780202
     9   6 C       19   1 H                                       1.0764783

 * 4 distinct bonds (by element types)

   Z      Z             #   av. dist./Å        max./Å        min./Å
   1 H    6 C           9     1.0874303     1.1018714     1.0764783
   6 C    6 C           3     1.4602888     1.5289893     1.3246558
   1 H    8 O           1     0.9633310     0.9633310     0.9633310
   6 C    8 O           4     1.3447762     1.4216169     1.2062919


optimized geometry written to: xtbopt.xyz


           -------------------------------------------------
          | TOTAL ENERGY              -30.113635937391 Eh   |
          | GRADIENT NORM               0.000444034724 Eh/α |
          | HOMO-LUMO GAP               3.762036348428 eV   |
           -------------------------------------------------
########################################################################
[WARNING] Runtime exception occurred
-2- restart_readRestart: Dimension missmatch in restart file.
-1- restart_readRestart: Number of electron missmatch in restart file.
########################################################################

------------------------------------------------------------------------
 * finished run on 2025/12/01 at 14:22:11.884     
------------------------------------------------------------------------
 total:
 * wall-time:     0 d,  0 h,  0 min,  0.217 sec
 *  cpu-time:     0 d,  0 h,  0 min,  4.897 sec
 * ratio c/w:    22.608 speedup
 SCF:
 * wall-time:     0 d,  0 h,  0 min,  0.025 sec
 *  cpu-time:     0 d,  0 h,  0 min,  0.571 sec
 * ratio c/w:    22.683 speedup
 ANC optimizer:
 * wall-time:     0 d,  0 h,  0 min,  0.183 sec
 *  cpu-time:     0 d,  0 h,  0 min,  4.176 sec
 * ratio c/w:    22.771 speedup

normal termination of xtb
