      -----------------------------------------------------------      
     |                   =====================                   |     
     |                           x T B                           |     
     |                   =====================                   |     
     |                         S. Grimme                         |     
     |          Mulliken Center for Theoretical Chemistry        |     
     |                    University of Bonn                     |     
      -----------------------------------------------------------      

   * xtb version 6.7.1 (edcfbbe) compiled by 'albert@albert-system' on 2024-07-22

   xtb is free software: you can redistribute it and/or modify it under
   the terms of the GNU Lesser General Public License as published by
   the Free Software Foundation, either version 3 of the License, or
   (at your option) any later version.
   
   xtb is distributed in the hope that it will be useful,
   but WITHOUT ANY WARRANTY; without even the implied warranty of
   MERCHANTABILITY or FITNESS FOR A PARTICULAR PURPOSE.  See the
   GNU Lesser General Public License for more details.
   
   Cite this work as:
   * C. Bannwarth, E. Caldeweyher, S. Ehlert, A. Hansen, P. Pracht,
     J. Seibert, S. Spicher, S. Grimme, WIREs Comput. Mol. Sci., 2020, 11,
     e01493. DOI: 10.1002/wcms.1493
   
   for GFN2-xTB:
   * C. Bannwarth, S. Ehlert and S. Grimme., J. Chem. Theory Comput., 2019,
     15, 1652-1671. DOI: 10.1021/acs.jctc.8b01176
   for GFN1-xTB:
   * S. Grimme, C. Bannwarth, P. Shushkov, J. Chem. Theory Comput., 2017,
     13, 1989-2009. DOI: 10.1021/acs.jctc.7b00118
   for GFN0-xTB:
   * P. Pracht, E. Caldeweyher, S. Ehlert, S. Grimme, ChemRxiv, 2019, preprint.
     DOI: 10.26434/chemrxiv.8326202.v1
   for GFN-FF:
   * S. Spicher and S. Grimme, Angew. Chem. Int. Ed., 2020, 59, 15665-15673.
     DOI: 10.1002/anie.202004239
   
   for ALPB and GBSA implicit solvation:
   * S. Ehlert, M. Stahn, S. Spicher, S. Grimme, J. Chem. Theory Comput.,
     2021, 17, 4250-4261. DOI: 10.1021/acs.jctc.1c00471
   
   for ddCOSMO and CPCM-X implicit solvation:
   * M. Stahn, S. Ehlert, S. Grimme, J. Phys. Chem. A,
     2023, XX, XXXX-XXXX. DOI: 10.1021/acs.jpca.3c04382
   
   for DFT-D4:
   * E. Caldeweyher, C. Bannwarth and S. Grimme, J. Chem. Phys., 2017,
     147, 034112. DOI: 10.1063/1.4993215
   * E. Caldeweyher, S. Ehlert, A. Hansen, H. Neugebauer, S. Spicher,
     C. Bannwarth and S. Grimme, J. Chem. Phys., 2019, 150, 154122.
     DOI: 10.1063/1.5090222
   * E. Caldeweyher, J.-M. Mewes, S. Ehlert and S. Grimme, Phys. Chem. Chem. Phys.
     2020, 22, 8499-8512. DOI: 10.1039/D0CP00502A
   
   for sTDA-xTB:
   * S. Grimme and C. Bannwarth, J. Chem. Phys., 2016, 145, 054103.
     DOI: 10.1063/1.4959605
   
   in the mass-spec context:
   * V. Asgeirsson, C. Bauer and S. Grimme, Chem. Sci., 2017, 8, 4879.
     DOI: 10.1039/c7sc00601b
   * J. Koopman and S. Grimme, ACS Omega 2019, 4, 12, 15120-15133.
     DOI: 10.1021/acsomega.9b02011
   
   for metadynamics refer to:
   * S. Grimme, J. Chem. Theory Comput., 2019, 155, 2847-2862
     DOI: 10.1021/acs.jctc.9b00143
   
   for SPH calculations refer to:
   * S. Spicher and S. Grimme, J. Chem. Theory Comput., 2021, 17, 1701-1714
     DOI: 10.1021/acs.jctc.0c01306
   
   for ONIOM refer to:
   * C. Plett, A. Katbashev, S. Ehlert, S. Grimme, M. Bursch,
     Phys. Chem. Chem. Phys., 2023, 25, 17860-17868. DOI: 10.1039/D3CP02178E
   
   for DIPRO refer to:
   * J. Kohn, N. Gildemeister, S. Grimme, D. Fazzi, A. Hansen,
     J. Chem. Phys., 2023, just accepted.
   
   for PTB refer to:
   * S. Grimme, M. Mueller, A. Hansen, J. Chem. Phys., 2023, 158, 124111.
     DOI: 10.1063/5.0137838
   
   with help from (in alphabetical order)
   P. Atkinson, C. Bannwarth, F. Bohle, G. Brandenburg, E. Caldeweyher
   M. Checinski, S. Dohm, S. Ehlert, S. Ehrlich, I. Gerasimov, C. Hölzer
   A. Katbashev, J. Kohn, J. Koopman, C. Lavigne, S. Lehtola, F. März, M. Müller,
   F. Musil, H. Neugebauer, J. Pisarek, C. Plett, P. Pracht, F. Pultar,
   J. Seibert, P. Shushkov, S. Spicher, M. Stahn, M. Steiner, T. Strunk,
   J. Stückrath, T. Rose, and J. Unsleber
   
 * started run on 2025/12/01 at 14:22:12.318     
   ID    Z sym.   atoms
    1    8 O      1, 4, 13, 15, 23
    2    6 C      2, 3, 5-12, 14, 16-22, 24, 25
    3    1 H      26-47

           -------------------------------------------------
          |                Calculation Setup                |
           -------------------------------------------------

          program call               : xtb pipeline_data/3_conformer_xyz/acrylates/rdkit/IWBDNDKRBBFYKG-JLHYYAGUSA-N_conf149.xyz --opt --gfn 2-xTB --iterations 250
          coordinate file            : pipeline_data/3_conformer_xyz/acrylates/rdkit/IWBDNDKRBBFYKG-JLHYYAGUSA-N_conf149.xyz
          omp threads                :                    24

########################################################################
[WARNING] Please study the warnings concerning your input carefully
-1- readin_getIntValue: could not parse '2-xTB'
########################################################################

           -------------------------------------------------
          |                 G F N 2 - x T B                 |
           -------------------------------------------------

        Reference                      10.1021/acs.jctc.8b01176
      * Hamiltonian:
        H0-scaling (s, p, d)           1.850000    2.230000    2.230000
        zeta-weighting                 0.500000
      * Dispersion:
        s8                             2.700000
        a1                             0.520000
        a2                             5.000000
        s9                             5.000000
      * Repulsion:
        kExp                           1.500000    1.000000
        rExp                           1.000000
      * Coulomb:
        alpha                          2.000000
        third order                    shell-resolved
        anisotropic                    true
        a3                             3.000000
        a5                             4.000000
        cn-shift                       1.200000
        cn-exp                         4.000000
        max-rad                        5.000000


          ...................................................
          :                      SETUP                      :
          :.................................................:
          :  # basis functions                 122          :
          :  # atomic orbitals                 122          :
          :  # shells                           72          :
          :  # electrons                       132          :
          :  max. iterations                   250          :
          :  Hamiltonian                  GFN2-xTB          :
          :  restarted?                      false          :
          :  GBSA solvation                  false          :
          :  PC potential                    false          :
          :  electronic temp.          300.0000000     K    :
          :  accuracy                    1.0000000          :
          :  -> integral cutoff          0.2500000E+02      :
          :  -> integral neglect         0.1000000E-07      :
          :  -> SCF convergence          0.1000000E-05 Eh   :
          :  -> wf. convergence          0.1000000E-03 e    :
          :  Broyden damping             0.4000000          :
          :  net charge                          0          :
          :  unpaired electrons                  0          :
          ...................................................

 iter      E             dE          RMSdq      gap      omega  full diag
   1    -75.1865232 -0.751865E+02  0.498E+00    2.61       0.0  T
   2    -75.2793378 -0.928147E-01  0.275E+00    2.13       1.0  T
   3    -75.2716842  0.765365E-02  0.124E+00    2.55       1.0  T
   4    -75.2887237 -0.170395E-01  0.248E-01    2.28       1.0  T
   5    -75.2898959 -0.117215E-02  0.849E-02    2.34       1.0  T
   6    -75.2899337 -0.378550E-04  0.486E-02    2.34       1.0  T
   7    -75.2899691 -0.353373E-04  0.199E-02    2.34       1.0  T
   8    -75.2899722 -0.317139E-05  0.748E-03    2.34       2.0  T
   9    -75.2899740 -0.176226E-05  0.256E-03    2.34       5.7  T
  10    -75.2899741 -0.992986E-07  0.113E-03    2.34      12.9  T
  11    -75.2899741 -0.167689E-07  0.530E-04    2.34      27.5  T
  12    -75.2899741 -0.261764E-08  0.215E-04    2.34      67.9  T

   *** convergence criteria satisfied after 12 iterations ***

         #    Occupation            Energy/Eh            Energy/eV
      -------------------------------------------------------------
         1        2.0000           -0.7222075             -19.6523
       ...           ...                  ...                  ...
        60        2.0000           -0.4210657             -11.4578
        61        2.0000           -0.4193876             -11.4121
        62        2.0000           -0.4110083             -11.1841
        63        2.0000           -0.4109163             -11.1816
        64        2.0000           -0.4013929             -10.9225
        65        2.0000           -0.3900397             -10.6135
        66        2.0000           -0.3831546             -10.4262 (HOMO)
        67                         -0.2971441              -8.0857 (LUMO)
        68                         -0.2364507              -6.4342
        69                         -0.2330682              -6.3421
        70                         -0.2291121              -6.2345
        71                         -0.2231835              -6.0731
       ...                                ...                  ...
       122                          0.7288747              19.8337
      -------------------------------------------------------------
                  HL-Gap            0.0860106 Eh            2.3405 eV
             Fermi-level           -0.3401493 Eh           -9.2559 eV

 SCC (total)                   0 d,  0 h,  0 min,  0.054 sec
 SCC setup                      ...        0 min,  0.000 sec (  0.470%)
 Dispersion                     ...        0 min,  0.001 sec (  1.252%)
 classical contributions        ...        0 min,  0.000 sec (  0.139%)
 integral evaluation            ...        0 min,  0.003 sec (  6.231%)
 iterations                     ...        0 min,  0.045 sec ( 81.907%)
 molecular gradient             ...        0 min,  0.005 sec (  9.493%)
 printout                       ...        0 min,  0.000 sec (  0.452%)

         :::::::::::::::::::::::::::::::::::::::::::::::::::::
         ::                     SUMMARY                     ::
         :::::::::::::::::::::::::::::::::::::::::::::::::::::
         :: total energy             -74.280278188304 Eh    ::
         :: gradient norm              0.168143205797 Eh/a0 ::
         :: HOMO-LUMO gap              2.340466320946 eV    ::
         ::.................................................::
         :: SCC energy               -75.289690181215 Eh    ::
         :: -> isotropic ES            0.104865491672 Eh    ::
         :: -> anisotropic ES          0.005527049321 Eh    ::
         :: -> anisotropic XC          0.018493563250 Eh    ::
         :: -> dispersion             -0.048052398434 Eh    ::
         :: repulsion energy           1.009411992912 Eh    ::
         :: add. restraining           0.000000000000 Eh    ::
         :: total charge              -0.000000000000 e     ::
         :::::::::::::::::::::::::::::::::::::::::::::::::::::

      ----------------------------------------------------------- 
     |                   =====================                   |
     |                        A N C O P T                        |
     |                   =====================                   |
     |               Approximate Normal Coordinate               |
     |                Rational Function Optimizer                |
      ----------------------------------------------------------- 
      ----------------------------------------------------------- 
     |                   =====================                   |
     |                        A N C O P T                        |
     |                   =====================                   |
     |               Approximate Normal Coordinate               |
     |                Rational Function Optimizer                |
      ----------------------------------------------------------- 

          ...................................................
          :                      SETUP                      :
          :.................................................:
          :   optimization level            normal          :
          :   max. optcycles                   200          :
          :   ANC micro-cycles                  20          :
          :   degrees of freedom               135          :
          :.................................................:
          :   RF solver                   davidson          :
          :   write xtbopt.log                true          :
          :   linear?                        false          :
          :   energy convergence         0.5000000E-05 Eh   :
          :   grad. convergence          0.1000000E-02 Eh/α :
          :   maxmium RF displ.          1.0000000          :
          :   Hlow (freq-cutoff)         0.1000000E-01      :
          :   Hmax (freq-cutoff)         5.0000000          :
          :   S6 in model hess.         20.0000000          :
          ...................................................

generating ANC from exact Hessian ...
Using Lindh-Hessian (1995)
 Shifting diagonal of input Hessian by   9.930779481116980E-003
 Lowest  eigenvalues of input Hessian
    0.000000    0.000000    0.000000    0.000000    0.000000    0.010000
    0.000000    0.010285    0.010480    0.010695    0.011379    0.011613
    0.011704    0.012554    0.012864    0.013410    0.013945    0.015321
 Highest eigenvalues
    1.999837    2.022786    2.035696    2.053748    2.092946    2.180128
 

........................................................................
.............................. CYCLE    1 ..............................
........................................................................

 iter      E             dE          RMSdq      gap      omega  full diag
   1    -75.2899741 -0.752900E+02  0.752E-05    2.34       0.0  T
   2    -75.2899741 -0.383267E-10  0.489E-05    2.34     298.6  T
   3    -75.2899741 -0.100329E-10  0.306E-05    2.34     476.4  T
     SCC iter.                  ...        0 min,  0.008 sec
     gradient                   ...        0 min,  0.006 sec
 * total energy  :   -74.2802782 Eh     change       -0.9262493E-09 Eh
   gradient norm :     0.1681449 Eh/α   predicted     0.0000000E+00 (-100.00%)
   displ. norm   :     0.3334702 α      lambda       -0.2833092E-01
   maximum displ.:     0.1207900 α      in ANC's #27, #34, #32, ...

........................................................................
.............................. CYCLE    2 ..............................
........................................................................

 iter      E             dE          RMSdq      gap      omega  full diag
   1    -75.3058114 -0.753058E+02  0.220E-01    2.33       0.0  T
   2    -75.3063276 -0.516199E-03  0.145E-01    2.34       1.0  T
   3    -75.3063750 -0.473833E-04  0.768E-02    2.33       1.0  T
   4    -75.3064116 -0.366597E-04  0.287E-02    2.32       1.0  T
   5    -75.3064411 -0.294306E-04  0.671E-03    2.33       2.2  T
   6    -75.3064421 -0.100041E-05  0.378E-03    2.33       3.9  T
   7    -75.3064424 -0.367882E-06  0.160E-03    2.33       9.1  T
   8    -75.3064425 -0.213952E-07  0.758E-04    2.33      19.2  T
   9    -75.3064425 -0.490540E-08  0.274E-04    2.33      53.2  T
     SCC iter.                  ...        0 min,  0.022 sec
     gradient                   ...        0 min,  0.005 sec
 * total energy  :   -74.3000261 Eh     change       -0.1974786E-01 Eh
   gradient norm :     0.0670017 Eh/α   predicted    -0.1575322E-01 ( -20.23%)
   displ. norm   :     0.3283637 α      lambda       -0.9243005E-02
   maximum displ.:     0.1256556 α      in ANC's #27, #23, #34, ...

........................................................................
.............................. CYCLE    3 ..............................
........................................................................

 iter      E             dE          RMSdq      gap      omega  full diag
   1    -75.3136303 -0.753136E+02  0.156E-01    2.32       0.0  T
   2    -75.3139577 -0.327451E-03  0.105E-01    2.32       1.0  T
   3    -75.3140148 -0.570754E-04  0.570E-02    2.32       1.0  T
   4    -75.3140251 -0.103429E-04  0.237E-02    2.31       1.0  T
   5    -75.3140415 -0.163206E-04  0.593E-03    2.32       2.5  T
   6    -75.3140424 -0.973247E-06  0.288E-03    2.32       5.1  T
   7    -75.3140427 -0.269479E-06  0.959E-04    2.32      15.2  T
   8    -75.3140427 -0.961205E-08  0.516E-04    2.32      28.3  T
     SCC iter.                  ...        0 min,  0.019 sec
     gradient                   ...        0 min,  0.006 sec
 * total energy  :   -74.3056469 Eh     change       -0.5620882E-02 Eh
   gradient norm :     0.0161205 Eh/α   predicted    -0.5122514E-02 (  -8.87%)
   displ. norm   :     0.2957756 α      lambda       -0.2067765E-02
   maximum displ.:     0.1193538 α      in ANC's #23, #7, #8, ...

........................................................................
.............................. CYCLE    4 ..............................
........................................................................

 iter      E             dE          RMSdq      gap      omega  full diag
   1    -75.3122248 -0.753122E+02  0.763E-02    2.31       0.0  T
   2    -75.3122460 -0.211999E-04  0.484E-02    2.31       1.0  T
   3    -75.3122366  0.936656E-05  0.239E-02    2.30       1.0  T
   4    -75.3122522 -0.155834E-04  0.653E-03    2.30       2.2  T
   5    -75.3122533 -0.110969E-05  0.263E-03    2.30       5.5  T
   6    -75.3122535 -0.178316E-06  0.114E-03    2.30      12.8  T
   7    -75.3122535 -0.230482E-07  0.548E-04    2.30      26.6  T
   8    -75.3122535 -0.290720E-08  0.200E-04    2.30      72.8  T
     SCC iter.                  ...        0 min,  0.019 sec
     gradient                   ...        0 min,  0.005 sec
 * total energy  :   -74.3072544 Eh     change       -0.1607443E-02 Eh
   gradient norm :     0.0139096 Eh/α   predicted    -0.1124345E-02 ( -30.05%)
   displ. norm   :     0.4715045 α      lambda       -0.2172105E-02
   maximum displ.:     0.2005620 α      in ANC's #23, #7, #8, ...

........................................................................
.............................. CYCLE    5 ..............................
........................................................................

 iter      E             dE          RMSdq      gap      omega  full diag
   1    -75.3092848 -0.753093E+02  0.102E-01    2.30       0.0  T
   2    -75.3092960 -0.112424E-04  0.618E-02    2.29       1.0  T
   3    -75.3092921  0.390702E-05  0.145E-02    2.29       1.0  T
   4    -75.3092985 -0.644852E-05  0.453E-03    2.29       3.2  T
   5    -75.3092988 -0.312921E-06  0.212E-03    2.29       6.9  T
   6    -75.3092989 -0.581399E-07  0.109E-03    2.29      13.4  T
   7    -75.3092989 -0.138269E-07  0.549E-04    2.29      26.5  T
   8    -75.3092989 -0.612582E-08  0.183E-04    2.29      79.7  T
     SCC iter.                  ...        0 min,  0.019 sec
     gradient                   ...        0 min,  0.005 sec
 * total energy  :   -74.3087440 Eh     change       -0.1489665E-02 Eh
   gradient norm :     0.0224598 Eh/α   predicted    -0.1327514E-02 ( -10.89%)
   displ. norm   :     0.3848419 α      lambda       -0.1295822E-02
   maximum displ.:     0.1501349 α      in ANC's #5, #7, #10, ...

........................................................................
.............................. CYCLE    6 ..............................
........................................................................

 iter      E             dE          RMSdq      gap      omega  full diag
   1    -75.3105308 -0.753105E+02  0.682E-02    2.29       0.0  T
   2    -75.3105348 -0.403006E-05  0.408E-02    2.29       1.0  T
   3    -75.3105250  0.982531E-05  0.172E-02    2.28       1.0  T
   4    -75.3105364 -0.114221E-04  0.350E-03    2.29       4.2  T
   5    -75.3105368 -0.327331E-06  0.135E-03    2.29      10.8  T
   6    -75.3105368 -0.187259E-07  0.743E-04    2.29      19.6  T
   7    -75.3105368 -0.119407E-07  0.260E-04    2.29      56.1  T
     SCC iter.                  ...        0 min,  0.017 sec
     gradient                   ...        0 min,  0.009 sec
 * total energy  :   -74.3097115 Eh     change       -0.9674465E-03 Eh
   gradient norm :     0.0170616 Eh/α   predicted    -0.7438728E-03 ( -23.11%)
   displ. norm   :     0.3851955 α      lambda       -0.1210380E-02
   maximum displ.:     0.1546213 α      in ANC's #5, #7, #10, ...

........................................................................
.............................. CYCLE    7 ..............................
........................................................................

 iter      E             dE          RMSdq      gap      omega  full diag
   1    -75.3150254 -0.753150E+02  0.718E-02    2.29       0.0  T
   2    -75.3150381 -0.126726E-04  0.446E-02    2.29       1.0  T
   3    -75.3150243  0.138527E-04  0.255E-02    2.29       1.0  T
   4    -75.3150441 -0.198095E-04  0.560E-03    2.29       2.6  T
   5    -75.3150449 -0.825071E-06  0.213E-03    2.29       6.9  T
   6    -75.3150450 -0.118149E-06  0.953E-04    2.29      15.3  T
   7    -75.3150450 -0.140916E-07  0.438E-04    2.29      33.3  T
     SCC iter.                  ...        0 min,  0.034 sec
     gradient                   ...        0 min,  0.006 sec
 * total energy  :   -74.3105962 Eh     change       -0.8847382E-03 Eh
   gradient norm :     0.0137799 Eh/α   predicted    -0.6949934E-03 ( -21.45%)
   displ. norm   :     0.3267009 α      lambda       -0.8432486E-03
   maximum displ.:     0.1531639 α      in ANC's #7, #5, #10, ...

........................................................................
.............................. CYCLE    8 ..............................
........................................................................

 iter      E             dE          RMSdq      gap      omega  full diag
   1    -75.3196981 -0.753197E+02  0.706E-02    2.30       0.0  T
   2    -75.3197063 -0.822327E-05  0.429E-02    2.30       1.0  T
   3    -75.3196925  0.137920E-04  0.213E-02    2.30       1.0  T
   4    -75.3197094 -0.169189E-04  0.462E-03    2.31       3.2  T
   5    -75.3197100 -0.581004E-06  0.177E-03    2.31       8.2  T
   6    -75.3197101 -0.782773E-07  0.724E-04    2.31      20.2  T
   7    -75.3197101 -0.741205E-08  0.362E-04    2.31      40.3  T
     SCC iter.                  ...        0 min,  0.017 sec
     gradient                   ...        0 min,  0.005 sec
 * total energy  :   -74.3111414 Eh     change       -0.5451995E-03 Eh
   gradient norm :     0.0086155 Eh/α   predicted    -0.4666309E-03 ( -14.41%)
   displ. norm   :     0.3813171 α      lambda       -0.6752565E-03
   maximum displ.:     0.1892651 α      in ANC's #7, #23, #5, ...

........................................................................
.............................. CYCLE    9 ..............................
........................................................................

 iter      E             dE          RMSdq      gap      omega  full diag
   1    -75.3170112 -0.753170E+02  0.953E-02    2.31       0.0  T
   2    -75.3170196 -0.840961E-05  0.570E-02    2.31       1.0  T
   3    -75.3170109  0.869433E-05  0.174E-02    2.31       1.0  T
   4    -75.3170225 -0.115871E-04  0.547E-03    2.32       2.7  T
   5    -75.3170229 -0.468456E-06  0.274E-03    2.31       5.3  T
   6    -75.3170231 -0.111736E-06  0.123E-03    2.31      11.8  T
   7    -75.3170231 -0.140840E-07  0.503E-04    2.31      29.0  T
   8    -75.3170231 -0.533630E-08  0.168E-04    2.31      87.1  T
     SCC iter.                  ...        0 min,  0.019 sec
     gradient                   ...        0 min,  0.005 sec
 * total energy  :   -74.3111733 Eh     change       -0.3184633E-04 Eh
   gradient norm :     0.0245636 Eh/α   predicted    -0.3867350E-03 (1114.38%)
   displ. norm   :     0.1081090 α      lambda       -0.7212229E-03
   maximum displ.:     0.0489456 α      in ANC's #23, #8, #11, ...

........................................................................
.............................. CYCLE   10 ..............................
........................................................................

 iter      E             dE          RMSdq      gap      omega  full diag
   1    -75.3207534 -0.753208E+02  0.362E-02    2.32       0.0  T
   2    -75.3207571 -0.363958E-05  0.215E-02    2.32       1.0  T
   3    -75.3207551  0.197460E-05  0.102E-02    2.32       1.4  T
   4    -75.3207582 -0.307628E-05  0.336E-03    2.32       4.3  T
   5    -75.3207584 -0.166031E-06  0.158E-03    2.32       9.3  T
   6    -75.3207584 -0.449382E-07  0.784E-04    2.32      18.6  T
   7    -75.3207584 -0.736175E-08  0.375E-04    2.32      38.8  T
     SCC iter.                  ...        0 min,  0.017 sec
     gradient                   ...        0 min,  0.006 sec
 * total energy  :   -74.3115503 Eh     change       -0.3770239E-03 Eh
   gradient norm :     0.0054487 Eh/α   predicted    -0.3648354E-03 (  -3.23%)
   displ. norm   :     0.1176359 α      lambda       -0.1481121E-03
   maximum displ.:     0.0838087 α      in ANC's #7, #14, #13, ...

........................................................................
.............................. CYCLE   11 ..............................
........................................................................

 iter      E             dE          RMSdq      gap      omega  full diag
   1    -75.3197128 -0.753197E+02  0.351E-02    2.32       0.0  T
   2    -75.3197135 -0.635775E-06  0.210E-02    2.32       1.0  T
   3    -75.3197124  0.104158E-05  0.564E-03    2.32       2.6  T
   4    -75.3197137 -0.123213E-05  0.124E-03    2.32      11.7  T
   5    -75.3197137 -0.301408E-07  0.619E-04    2.32      23.6  T
   6    -75.3197137 -0.780422E-08  0.275E-04    2.32      53.0  T
     SCC iter.                  ...        0 min,  0.014 sec
     gradient                   ...        0 min,  0.005 sec
 * total energy  :   -74.3116641 Eh     change       -0.1138518E-03 Eh
   gradient norm :     0.0036141 Eh/α   predicted    -0.7508181E-04 ( -34.05%)
   displ. norm   :     0.3167588 α      lambda       -0.3297425E-03
   maximum displ.:     0.2058545 α      in ANC's #7, #11, #8, ...

........................................................................
.............................. CYCLE   12 ..............................
........................................................................

 iter      E             dE          RMSdq      gap      omega  full diag
   1    -75.3183502 -0.753184E+02  0.951E-02    2.32       0.0  T
   2    -75.3183542 -0.393801E-05  0.566E-02    2.32       1.0  T
   3    -75.3183497  0.448504E-05  0.125E-02    2.32       1.2  T
   4    -75.3183552 -0.553458E-05  0.350E-03    2.32       4.2  T
   5    -75.3183555 -0.254769E-06  0.168E-03    2.32       8.7  T
   6    -75.3183555 -0.380869E-07  0.785E-04    2.32      18.6  T
   7    -75.3183555 -0.711665E-08  0.280E-04    2.32      52.1  T
     SCC iter.                  ...        0 min,  0.017 sec
     gradient                   ...        0 min,  0.005 sec
 * total energy  :   -74.3118825 Eh     change       -0.2183548E-03 Eh
   gradient norm :     0.0059370 Eh/α   predicted    -0.1814164E-03 ( -16.92%)
   displ. norm   :     0.2260160 α      lambda       -0.1642313E-03
   maximum displ.:     0.1450696 α      in ANC's #7, #8, #11, ...

........................................................................
.............................. CYCLE   13 ..............................
........................................................................

 iter      E             dE          RMSdq      gap      omega  full diag
   1    -75.3177217 -0.753177E+02  0.659E-02    2.32       0.0  T
   2    -75.3177226 -0.881435E-06  0.391E-02    2.31       1.0  T
   3    -75.3177217  0.862255E-06  0.506E-03    2.31       2.9  T
   4    -75.3177230 -0.129083E-05  0.154E-03    2.31       9.5  T
   5    -75.3177230 -0.131390E-07  0.720E-04    2.31      20.3  T
   6    -75.3177230 -0.629063E-08  0.324E-04    2.31      45.0  T
     SCC iter.                  ...        0 min,  0.014 sec
     gradient                   ...        0 min,  0.005 sec
 * total energy  :   -74.3120070 Eh     change       -0.1245215E-03 Eh
   gradient norm :     0.0065867 Eh/α   predicted    -0.8631799E-04 ( -30.68%)
   displ. norm   :     0.2788605 α      lambda       -0.2006566E-03
   maximum displ.:     0.1590552 α      in ANC's #7, #8, #11, ...

........................................................................
.............................. CYCLE   14 ..............................
........................................................................

 iter      E             dE          RMSdq      gap      omega  full diag
   1    -75.3183358 -0.753183E+02  0.800E-02    2.31       0.0  T
   2    -75.3183373 -0.151422E-05  0.474E-02    2.31       1.0  T
   3    -75.3183324  0.498541E-05  0.107E-02    2.31       1.4  T
   4    -75.3183382 -0.587967E-05  0.190E-03    2.31       7.7  T
   5    -75.3183383 -0.419016E-07  0.113E-03    2.31      12.9  T
   6    -75.3183383 -0.140077E-07  0.520E-04    2.31      28.1  T
   7    -75.3183383 -0.555696E-08  0.168E-04    2.31      86.6  T
     SCC iter.                  ...        0 min,  0.017 sec
     gradient                   ...        0 min,  0.006 sec
 * total energy  :   -74.3121475 Eh     change       -0.1404980E-03 Eh
   gradient norm :     0.0048122 Eh/α   predicted    -0.1081341E-03 ( -23.04%)
   displ. norm   :     0.2072393 α      lambda       -0.1171161E-03
   maximum displ.:     0.1156513 α      in ANC's #7, #8, #6, ...

........................................................................
.............................. CYCLE   15 ..............................
........................................................................

 iter      E             dE          RMSdq      gap      omega  full diag
   1    -75.3191440 -0.753191E+02  0.623E-02    2.30       0.0  T
   2    -75.3191456 -0.155167E-05  0.369E-02    2.31       1.0  T
   3    -75.3191413  0.424642E-05  0.103E-02    2.30       1.4  T
   4    -75.3191462 -0.491686E-05  0.185E-03    2.31       7.9  T
   5    -75.3191463 -0.868666E-07  0.858E-04    2.31      17.0  T
   6    -75.3191463 -0.724923E-08  0.459E-04    2.31      31.8  T
     SCC iter.                  ...        0 min,  0.014 sec
     gradient                   ...        0 min,  0.008 sec
 * total energy  :   -74.3122309 Eh     change       -0.8334857E-04 Eh
   gradient norm :     0.0035905 Eh/α   predicted    -0.6107377E-04 ( -26.72%)
   displ. norm   :     0.1809321 α      lambda       -0.8369421E-04
   maximum displ.:     0.0998230 α      in ANC's #6, #7, #8, ...

........................................................................
.............................. CYCLE   16 ..............................
........................................................................

 iter      E             dE          RMSdq      gap      omega  full diag
   1    -75.3200734 -0.753201E+02  0.556E-02    2.30       0.0  T
   2    -75.3200742 -0.793824E-06  0.328E-02    2.30       1.0  T
   3    -75.3200728  0.146727E-05  0.634E-03    2.30       2.3  T
   4    -75.3200745 -0.173556E-05  0.134E-03    2.30      10.9  T
   5    -75.3200745 -0.462085E-07  0.615E-04    2.30      23.7  T
   6    -75.3200745 -0.316318E-08  0.311E-04    2.30      46.9  T
     SCC iter.                  ...        0 min,  0.014 sec
     gradient                   ...        0 min,  0.005 sec
 * total energy  :   -74.3122921 Eh     change       -0.6121045E-04 Eh
   gradient norm :     0.0034488 Eh/α   predicted    -0.4321819E-04 ( -29.39%)
   displ. norm   :     0.2027418 α      lambda       -0.7820473E-04
   maximum displ.:     0.1256710 α      in ANC's #6, #7, #8, ...

........................................................................
.............................. CYCLE   17 ..............................
........................................................................

 iter      E             dE          RMSdq      gap      omega  full diag
   1    -75.3206195 -0.753206E+02  0.631E-02    2.30       0.0  T
   2    -75.3206200 -0.503184E-06  0.372E-02    2.30       1.0  T
   3    -75.3206198  0.211266E-06  0.313E-03    2.30       4.7  T
   4    -75.3206202 -0.419205E-06  0.960E-04    2.30      15.2  T
   5    -75.3206202 -0.632312E-08  0.524E-04    2.30      27.8  T
     SCC iter.                  ...        0 min,  0.012 sec
     gradient                   ...        0 min,  0.005 sec
 * total energy  :   -74.3123512 Eh     change       -0.5911987E-04 Eh
   gradient norm :     0.0040072 Eh/α   predicted    -0.4071141E-04 ( -31.14%)
   displ. norm   :     0.2100674 α      lambda       -0.8684224E-04
   maximum displ.:     0.1396943 α      in ANC's #6, #2, #8, ...

........................................................................
.............................. CYCLE   18 ..............................
........................................................................

 iter      E             dE          RMSdq      gap      omega  full diag
   1    -75.3208110 -0.753208E+02  0.641E-02    2.30       0.0  T
   2    -75.3208116 -0.606799E-06  0.378E-02    2.30       1.0  T
   3    -75.3208112  0.415140E-06  0.380E-03    2.30       3.8  T
   4    -75.3208118 -0.607771E-06  0.124E-03    2.30      11.7  T
   5    -75.3208118 -0.273169E-07  0.623E-04    2.30      23.4  T
   6    -75.3208118 -0.589276E-08  0.282E-04    2.30      51.7  T
     SCC iter.                  ...        0 min,  0.014 sec
     gradient                   ...        0 min,  0.005 sec
 * total energy  :   -74.3124160 Eh     change       -0.6477656E-04 Eh
   gradient norm :     0.0039302 Eh/α   predicted    -0.4533790E-04 ( -30.01%)
   displ. norm   :     0.2515615 α      lambda       -0.9822538E-04
   maximum displ.:     0.1731824 α      in ANC's #6, #2, #8, ...

........................................................................
.............................. CYCLE   19 ..............................
........................................................................

 iter      E             dE          RMSdq      gap      omega  full diag
   1    -75.3214011 -0.753214E+02  0.762E-02    2.29       0.0  T
   2    -75.3214023 -0.116740E-05  0.448E-02    2.29       1.0  T
   3    -75.3214011  0.122420E-05  0.614E-03    2.29       2.4  T
   4    -75.3214026 -0.153956E-05  0.169E-03    2.29       8.6  T
   5    -75.3214027 -0.643625E-07  0.766E-04    2.29      19.0  T
   6    -75.3214027 -0.999918E-08  0.353E-04    2.29      41.3  T
     SCC iter.                  ...        0 min,  0.014 sec
     gradient                   ...        0 min,  0.005 sec
 * total energy  :   -74.3124864 Eh     change       -0.7039902E-04 Eh
   gradient norm :     0.0040505 Eh/α   predicted    -0.5222474E-04 ( -25.82%)
   displ. norm   :     0.2744421 α      lambda       -0.9333407E-04
   maximum displ.:     0.1872664 α      in ANC's #6, #2, #8, ...

........................................................................
.............................. CYCLE   20 ..............................
........................................................................

 iter      E             dE          RMSdq      gap      omega  full diag
   1    -75.3185778 -0.753186E+02  0.836E-02    2.29       0.0  T
   2    -75.3185790 -0.124822E-05  0.491E-02    2.28       1.0  T
   3    -75.3185781  0.909823E-06  0.541E-03    2.28       2.7  T
   4    -75.3185794 -0.129524E-05  0.160E-03    2.28       9.1  T
   5    -75.3185794 -0.475975E-07  0.845E-04    2.28      17.3  T
   6    -75.3185795 -0.738321E-08  0.425E-04    2.28      34.3  T
     SCC iter.                  ...        0 min,  0.035 sec
     gradient                   ...        0 min,  0.006 sec
 * total energy  :   -74.3125432 Eh     change       -0.5678050E-04 Eh
   gradient norm :     0.0045641 Eh/α   predicted    -0.5018301E-04 ( -11.62%)
   displ. norm   :     0.3116978 α      lambda       -0.1373495E-03
   maximum displ.:     0.2107639 α      in ANC's #6, #2, #7, ...
 * RMSD in coord.:     0.5270408 α      energy gain  -0.3226497E-01 Eh

generating ANC from exact Hessian ...
Using Lindh-Hessian (1995)
 Shifting diagonal of input Hessian by   9.936082015671983E-003
 Lowest  eigenvalues of input Hessian
    0.000000    0.000000    0.000000    0.000000    0.000000    0.010000
    0.000000    0.010297    0.010471    0.010642    0.011303    0.011477
    0.011629    0.012189    0.012461    0.013017    0.013906    0.014978
 Highest eigenvalues
    1.992819    2.009592    2.020251    2.024682    2.151201    2.208652
 

........................................................................
.............................. CYCLE   21 ..............................
........................................................................

 iter      E             dE          RMSdq      gap      omega  full diag
   1    -75.3211706 -0.753212E+02  0.887E-02    2.28       0.0  T
   2    -75.3211721 -0.147337E-05  0.522E-02    2.28       1.0  T
   3    -75.3211713  0.722579E-06  0.547E-03    2.28       2.7  T
   4    -75.3211726 -0.123939E-05  0.168E-03    2.28       8.7  T
   5    -75.3211726 -0.260604E-07  0.893E-04    2.28      16.3  T
   6    -75.3211726 -0.866368E-08  0.439E-04    2.28      33.2  T
     SCC iter.                  ...        0 min,  0.017 sec
     gradient                   ...        0 min,  0.005 sec
 * total energy  :   -74.3126107 Eh     change       -0.6756127E-04 Eh
   gradient norm :     0.0053812 Eh/α   predicted     0.0000000E+00 (-100.00%)
   displ. norm   :     0.0421516 α      lambda       -0.5275854E-04
   maximum displ.:     0.0164098 α      in ANC's #5, #6, #2, ...

........................................................................
.............................. CYCLE   22 ..............................
........................................................................

 iter      E             dE          RMSdq      gap      omega  full diag
   1    -75.3210332 -0.753210E+02  0.124E-02    2.28       0.0  T
   2    -75.3210336 -0.415489E-06  0.765E-03    2.28       1.9  T
   3    -75.3210332  0.374209E-06  0.360E-03    2.28       4.1  T
   4    -75.3210337 -0.446341E-06  0.109E-03    2.28      13.3  T
   5    -75.3210337 -0.357405E-07  0.329E-04    2.28      44.3  T
   6    -75.3210337 -0.304239E-08  0.127E-04    2.28     114.8  T
     SCC iter.                  ...        0 min,  0.022 sec
     gradient                   ...        0 min,  0.005 sec
 * total energy  :   -74.3126576 Eh     change       -0.4683047E-04 Eh
   gradient norm :     0.0026231 Eh/α   predicted    -0.2933521E-04 ( -37.36%)
   displ. norm   :     0.1113191 α      lambda       -0.8244476E-04
   maximum displ.:     0.0484722 α      in ANC's #5, #6, #2, ...

........................................................................
.............................. CYCLE   23 ..............................
........................................................................

 iter      E             dE          RMSdq      gap      omega  full diag
   1    -75.3209548 -0.753210E+02  0.291E-02    2.28       0.0  T
   2    -75.3209563 -0.145936E-05  0.176E-02    2.28       1.0  T
   3    -75.3209545  0.178210E-05  0.736E-03    2.28       2.0  T
   4    -75.3209566 -0.204728E-05  0.204E-03    2.28       7.1  T
   5    -75.3209567 -0.119459E-06  0.660E-04    2.28      22.1  T
   6    -75.3209567 -0.122935E-07  0.272E-04    2.28      53.6  T
     SCC iter.                  ...        0 min,  0.026 sec
     gradient                   ...        0 min,  0.005 sec
 * total energy  :   -74.3127097 Eh     change       -0.5218094E-04 Eh
   gradient norm :     0.0024767 Eh/α   predicted    -0.4173359E-04 ( -20.02%)
   displ. norm   :     0.0869121 α      lambda       -0.2995307E-04
   maximum displ.:     0.0414813 α      in ANC's #5, #6, #2, ...

........................................................................
.............................. CYCLE   24 ..............................
........................................................................

 iter      E             dE          RMSdq      gap      omega  full diag
   1    -75.3209414 -0.753209E+02  0.219E-02    2.28       0.0  T
   2    -75.3209416 -0.263601E-06  0.130E-02    2.29       1.1  T
   3    -75.3209413  0.325593E-06  0.296E-03    2.29       4.9  T
   4    -75.3209417 -0.380327E-06  0.885E-04    2.29      16.5  T
   5    -75.3209417 -0.185151E-07  0.373E-04    2.29      39.1  T
     SCC iter.                  ...        0 min,  0.020 sec
     gradient                   ...        0 min,  0.009 sec
 * total energy  :   -74.3127346 Eh     change       -0.2491026E-04 Eh
   gradient norm :     0.0031860 Eh/α   predicted    -0.1547290E-04 ( -37.89%)
   displ. norm   :     0.1501361 α      lambda       -0.4939136E-04
   maximum displ.:     0.0739014 α      in ANC's #6, #5, #2, ...

........................................................................
.............................. CYCLE   25 ..............................
........................................................................

 iter      E             dE          RMSdq      gap      omega  full diag
   1    -75.3208761 -0.753209E+02  0.382E-02    2.29       0.0  T
   2    -75.3208765 -0.378168E-06  0.227E-02    2.29       1.0  T
   3    -75.3208761  0.318848E-06  0.299E-03    2.29       4.9  T
   4    -75.3208766 -0.447470E-06  0.951E-04    2.29      15.3  T
   5    -75.3208766 -0.114248E-07  0.491E-04    2.29      29.7  T
     SCC iter.                  ...        0 min,  0.022 sec
     gradient                   ...        0 min,  0.007 sec
 * total energy  :   -74.3127727 Eh     change       -0.3805281E-04 Eh
   gradient norm :     0.0026799 Eh/α   predicted    -0.2525253E-04 ( -33.64%)
   displ. norm   :     0.1533473 α      lambda       -0.4114877E-04
   maximum displ.:     0.0782053 α      in ANC's #6, #5, #2, ...

........................................................................
.............................. CYCLE   26 ..............................
........................................................................

 iter      E             dE          RMSdq      gap      omega  full diag
   1    -75.3208331 -0.753208E+02  0.399E-02    2.29       0.0  T
   2    -75.3208334 -0.287536E-06  0.236E-02    2.29       1.0  T
   3    -75.3208331  0.268507E-06  0.281E-03    2.29       5.2  T
   4    -75.3208335 -0.390506E-06  0.793E-04    2.29      18.4  T
   5    -75.3208335 -0.438905E-08  0.434E-04    2.29      33.6  T
     SCC iter.                  ...        0 min,  0.012 sec
     gradient                   ...        0 min,  0.007 sec
 * total energy  :   -74.3128047 Eh     change       -0.3196156E-04 Eh
   gradient norm :     0.0017571 Eh/α   predicted    -0.2106611E-04 ( -34.09%)
   displ. norm   :     0.2394877 α      lambda       -0.3696368E-04
   maximum displ.:     0.1243027 α      in ANC's #6, #2, #5, ...

........................................................................
.............................. CYCLE   27 ..............................
........................................................................

 iter      E             dE          RMSdq      gap      omega  full diag
   1    -75.3207596 -0.753208E+02  0.638E-02    2.29       0.0  T
   2    -75.3207602 -0.571383E-06  0.376E-02    2.29       1.0  T
   3    -75.3207598  0.407585E-06  0.359E-03    2.29       4.1  T
   4    -75.3207604 -0.637937E-06  0.103E-03    2.29      14.2  T
   5    -75.3207604 -0.843900E-08  0.562E-04    2.29      26.0  T
   6    -75.3207604 -0.420559E-08  0.254E-04    2.29      57.3  T
     SCC iter.                  ...        0 min,  0.015 sec
     gradient                   ...        0 min,  0.006 sec
 * total energy  :   -74.3128446 Eh     change       -0.3995007E-04 Eh
   gradient norm :     0.0023517 Eh/α   predicted    -0.1895465E-04 ( -52.55%)
   displ. norm   :     0.1416052 α      lambda       -0.3239471E-04
   maximum displ.:     0.0732851 α      in ANC's #6, #2, #5, ...

........................................................................
.............................. CYCLE   28 ..............................
........................................................................

 iter      E             dE          RMSdq      gap      omega  full diag
   1    -75.3209579 -0.753210E+02  0.386E-02    2.29       0.0  T
   2    -75.3209580 -0.143217E-06  0.227E-02    2.29       1.0  T
   3    -75.3209579  0.181518E-06  0.222E-03    2.29       6.6  T
   4    -75.3209581 -0.245691E-06  0.597E-04    2.29      24.4  T
   5    -75.3209581 -0.466608E-08  0.332E-04    2.29      44.0  T
     SCC iter.                  ...        0 min,  0.013 sec
     gradient                   ...        0 min,  0.005 sec
 * total energy  :   -74.3128734 Eh     change       -0.2874546E-04 Eh
   gradient norm :     0.0023917 Eh/α   predicted    -0.1652270E-04 ( -42.52%)
   displ. norm   :     0.2951676 α      lambda       -0.6819927E-04
   maximum displ.:     0.1513990 α      in ANC's #6, #2, #1, ...

........................................................................
.............................. CYCLE   29 ..............................
........................................................................

 iter      E             dE          RMSdq      gap      omega  full diag
   1    -75.3208844 -0.753209E+02  0.814E-02    2.28       0.0  T
   2    -75.3208850 -0.646566E-06  0.479E-02    2.28       1.0  T
   3    -75.3208840  0.965018E-06  0.504E-03    2.28       2.9  T
   4    -75.3208853 -0.125391E-05  0.123E-03    2.28      11.9  T
   5    -75.3208853 -0.212503E-07  0.670E-04    2.28      21.8  T
   6    -75.3208853 -0.701122E-08  0.270E-04    2.28      54.0  T
     SCC iter.                  ...        0 min,  0.015 sec
     gradient                   ...        0 min,  0.008 sec
 * total energy  :   -74.3129258 Eh     change       -0.5240081E-04 Eh
   gradient norm :     0.0022947 Eh/α   predicted    -0.3707787E-04 ( -29.24%)
   displ. norm   :     0.2875077 α      lambda       -0.5034015E-04
   maximum displ.:     0.1468406 α      in ANC's #6, #2, #1, ...

........................................................................
.............................. CYCLE   30 ..............................
........................................................................

 iter      E             dE          RMSdq      gap      omega  full diag
   1    -75.3205529 -0.753206E+02  0.806E-02    2.28       0.0  T
   2    -75.3205536 -0.636354E-06  0.474E-02    2.28       1.0  T
   3    -75.3205523  0.122388E-05  0.557E-03    2.28       2.6  T
   4    -75.3205539 -0.152954E-05  0.120E-03    2.28      12.1  T
   5    -75.3205539 -0.220482E-07  0.658E-04    2.28      22.2  T
   6    -75.3205539 -0.599394E-08  0.273E-04    2.28      53.4  T
     SCC iter.                  ...        0 min,  0.015 sec
     gradient                   ...        0 min,  0.008 sec
 * total energy  :   -74.3129616 Eh     change       -0.3587235E-04 Eh
   gradient norm :     0.0024968 Eh/α   predicted    -0.2725246E-04 ( -24.03%)
   displ. norm   :     0.1978515 α      lambda       -0.3743788E-04
   maximum displ.:     0.1025167 α      in ANC's #2, #6, #1, ...

........................................................................
.............................. CYCLE   31 ..............................
........................................................................

 iter      E             dE          RMSdq      gap      omega  full diag
   1    -75.3212532 -0.753213E+02  0.571E-02    2.27       0.0  T
   2    -75.3212536 -0.359383E-06  0.336E-02    2.27       1.0  T
   3    -75.3212528  0.793314E-06  0.440E-03    2.27       3.3  T
   4    -75.3212537 -0.974144E-06  0.896E-04    2.27      16.3  T
   5    -75.3212537 -0.126581E-07  0.499E-04    2.27      29.3  T
     SCC iter.                  ...        0 min,  0.013 sec
     gradient                   ...        0 min,  0.008 sec
 * total energy  :   -74.3129900 Eh     change       -0.2836854E-04 Eh
   gradient norm :     0.0021205 Eh/α   predicted    -0.1945682E-04 ( -31.41%)
   displ. norm   :     0.2151243 α      lambda       -0.3842401E-04
   maximum displ.:     0.1146583 α      in ANC's #2, #6, #1, ...

........................................................................
.............................. CYCLE   32 ..............................
........................................................................

 iter      E             dE          RMSdq      gap      omega  full diag
   1    -75.3213540 -0.753214E+02  0.638E-02    2.27       0.0  T
   2    -75.3213545 -0.506493E-06  0.375E-02    2.27       1.0  T
   3    -75.3213534  0.116874E-05  0.511E-03    2.27       2.9  T
   4    -75.3213548 -0.143125E-05  0.954E-04    2.27      15.3  T
   5    -75.3213548 -0.112774E-07  0.563E-04    2.27      25.9  T
   6    -75.3213548 -0.427795E-08  0.268E-04    2.27      54.4  T
     SCC iter.                  ...        0 min,  0.016 sec
     gradient                   ...        0 min,  0.005 sec
 * total energy  :   -74.3130199 Eh     change       -0.2992854E-04 Eh
   gradient norm :     0.0020389 Eh/α   predicted    -0.2010445E-04 ( -32.83%)
   displ. norm   :     0.2238339 α      lambda       -0.3946825E-04
   maximum displ.:     0.1194064 α      in ANC's #2, #1, #6, ...

........................................................................
.............................. CYCLE   33 ..............................
........................................................................

 iter      E             dE          RMSdq      gap      omega  full diag
   1    -75.3216445 -0.753216E+02  0.680E-02    2.27       0.0  T
   2    -75.3216452 -0.610967E-06  0.400E-02    2.27       1.0  T
   3    -75.3216440  0.114129E-05  0.507E-03    2.27       2.9  T
   4    -75.3216454 -0.143428E-05  0.102E-03    2.27      14.3  T
   5    -75.3216455 -0.984130E-08  0.611E-04    2.27      23.9  T
   6    -75.3216455 -0.597564E-08  0.309E-04    2.27      47.2  T
     SCC iter.                  ...        0 min,  0.015 sec
     gradient                   ...        0 min,  0.008 sec
 * total energy  :   -74.3130483 Eh     change       -0.2838385E-04 Eh
   gradient norm :     0.0019846 Eh/α   predicted    -0.2072588E-04 ( -26.98%)
   displ. norm   :     0.2977809 α      lambda       -0.2524735E-04
   maximum displ.:     0.1587188 α      in ANC's #2, #1, #6, ...

........................................................................
.............................. CYCLE   34 ..............................
........................................................................

 iter      E             dE          RMSdq      gap      omega  full diag
   1    -75.3207439 -0.753207E+02  0.902E-02    2.27       0.0  T
   2    -75.3207448 -0.884690E-06  0.530E-02    2.27       1.0  T
   3    -75.3207433  0.151013E-05  0.580E-03    2.27       2.5  T
   4    -75.3207453 -0.196015E-05  0.120E-03    2.27      12.1  T
   5    -75.3207453 -0.859397E-08  0.728E-04    2.27      20.0  T
   6    -75.3207453 -0.817823E-08  0.368E-04    2.27      39.6  T
     SCC iter.                  ...        0 min,  0.015 sec
     gradient                   ...        0 min,  0.008 sec
 * total energy  :   -74.3130698 Eh     change       -0.2147462E-04 Eh
   gradient norm :     0.0021639 Eh/α   predicted    -0.1312196E-04 ( -38.90%)
   displ. norm   :     0.0692828 α      lambda       -0.2185548E-04
   maximum displ.:     0.0342256 α      in ANC's #1, #5, #2, ...

........................................................................
.............................. CYCLE   35 ..............................
........................................................................

 iter      E             dE          RMSdq      gap      omega  full diag
   1    -75.3225839 -0.753226E+02  0.203E-02    2.27       0.0  T
   2    -75.3225841 -0.173431E-06  0.120E-02    2.27       1.2  T
   3    -75.3225840  0.139008E-06  0.214E-03    2.27       6.8  T
   4    -75.3225841 -0.181269E-06  0.372E-04    2.27      39.2  T
   5    -75.3225841 -0.229198E-08  0.206E-04    2.27      70.8  T
     SCC iter.                  ...        0 min,  0.014 sec
     gradient                   ...        0 min,  0.008 sec
 * total energy  :   -74.3130807 Eh     change       -0.1094715E-04 Eh
   gradient norm :     0.0019768 Eh/α   predicted    -0.1098331E-04 (   0.33%)
   displ. norm   :     0.1425872 α      lambda       -0.1615051E-04
   maximum displ.:     0.0798089 α      in ANC's #1, #2, #6, ...

........................................................................
.............................. CYCLE   36 ..............................
........................................................................

 iter      E             dE          RMSdq      gap      omega  full diag
   1    -75.3220300 -0.753220E+02  0.416E-02    2.27       0.0  T
   2    -75.3220302 -0.244967E-06  0.244E-02    2.27       1.0  T
   3    -75.3220301  0.142559E-06  0.215E-03    2.27       6.8  T
   4    -75.3220303 -0.216131E-06  0.519E-04    2.27      28.1  T
   5    -75.3220303 -0.443320E-08  0.276E-04    2.27      52.9  T
     SCC iter.                  ...        0 min,  0.013 sec
     gradient                   ...        0 min,  0.008 sec
 * total energy  :   -74.3130979 Eh     change       -0.1717351E-04 Eh
   gradient norm :     0.0015583 Eh/α   predicted    -0.8153548E-05 ( -52.52%)
   displ. norm   :     0.1122242 α      lambda       -0.1074709E-04
   maximum displ.:     0.0682128 α      in ANC's #1, #2, #6, ...

........................................................................
.............................. CYCLE   37 ..............................
........................................................................

 iter      E             dE          RMSdq      gap      omega  full diag
   1    -75.3218796 -0.753219E+02  0.312E-02    2.27       0.0  T
   2    -75.3218798 -0.135174E-06  0.184E-02    2.27       1.0  T
   3    -75.3218797  0.321596E-07  0.138E-03    2.27      10.5  T
   4    -75.3218798 -0.654768E-07  0.542E-04    2.27      26.9  T
   5    -75.3218798 -0.632052E-08  0.256E-04    2.27      57.0  T
     SCC iter.                  ...        0 min,  0.013 sec
     gradient                   ...        0 min,  0.008 sec
 * total energy  :   -74.3131093 Eh     change       -0.1136003E-04 Eh
   gradient norm :     0.0011828 Eh/α   predicted    -0.5408021E-05 ( -52.39%)
   displ. norm   :     0.0920526 α      lambda       -0.7942681E-05
   maximum displ.:     0.0587046 α      in ANC's #1, #2, #4, ...

........................................................................
.............................. CYCLE   38 ..............................
........................................................................

 iter      E             dE          RMSdq      gap      omega  full diag
   1    -75.3219066 -0.753219E+02  0.240E-02    2.27       0.0  T
   2    -75.3219067 -0.803676E-07  0.141E-02    2.27       1.0  T
   3    -75.3219066  0.250786E-07  0.122E-03    2.27      12.0  T
   4    -75.3219067 -0.497331E-07  0.505E-04    2.27      28.9  T
   5    -75.3219067 -0.464124E-08  0.232E-04    2.27      62.8  T
     SCC iter.                  ...        0 min,  0.013 sec
     gradient                   ...        0 min,  0.006 sec
 * total energy  :   -74.3131170 Eh     change       -0.7743660E-05 Eh
   gradient norm :     0.0010764 Eh/α   predicted    -0.3987083E-05 ( -48.51%)
   displ. norm   :     0.0852385 α      lambda       -0.7658867E-05
   maximum displ.:     0.0556583 α      in ANC's #1, #2, #5, ...

........................................................................
.............................. CYCLE   39 ..............................
........................................................................

 iter      E             dE          RMSdq      gap      omega  full diag
   1    -75.3222025 -0.753222E+02  0.203E-02    2.27       0.0  T
   2    -75.3222026 -0.745330E-07  0.120E-02    2.27       1.2  T
   3    -75.3222026  0.502905E-08  0.965E-04    2.27      15.1  T
   4    -75.3222026 -0.258227E-07  0.427E-04    2.27      34.1  T
     SCC iter.                  ...        0 min,  0.011 sec
     gradient                   ...        0 min,  0.006 sec
 * total energy  :   -74.3131243 Eh     change       -0.7317638E-05 Eh
   gradient norm :     0.0010011 Eh/α   predicted    -0.3845302E-05 ( -47.45%)
   displ. norm   :     0.0714102 α      lambda       -0.5816024E-05
   maximum displ.:     0.0483457 α      in ANC's #1, #2, #5, ...

........................................................................
.............................. CYCLE   40 ..............................
........................................................................

 iter      E             dE          RMSdq      gap      omega  full diag
   1    -75.3220642 -0.753221E+02  0.162E-02    2.27       0.0  T
   2    -75.3220643 -0.543591E-07  0.957E-03    2.27       1.5  T
   3    -75.3220642  0.408274E-07  0.118E-03    2.27      12.4  T
   4    -75.3220643 -0.583555E-07  0.328E-04    2.27      44.5  T
   5    -75.3220643 -0.113424E-08  0.211E-04    2.27      69.1  T
     SCC iter.                  ...        0 min,  0.013 sec
     gradient                   ...        0 min,  0.006 sec
 * total energy  :   -74.3131313 Eh     change       -0.7005796E-05 Eh
   gradient norm :     0.0009800 Eh/α   predicted    -0.2917317E-05 ( -58.36%)
   displ. norm   :     0.0899257 α      lambda       -0.7243896E-05
   maximum displ.:     0.0600024 α      in ANC's #1, #13, #5, ...

........................................................................
.............................. CYCLE   41 ..............................
........................................................................

 iter      E             dE          RMSdq      gap      omega  full diag
   1    -75.3221704 -0.753222E+02  0.192E-02    2.27       0.0  T
   2    -75.3221704 -0.643922E-07  0.113E-02    2.27       1.3  T
   3    -75.3221704  0.587166E-07  0.123E-03    2.27      11.9  T
   4    -75.3221705 -0.793165E-07  0.340E-04    2.27      42.9  T
   5    -75.3221705 -0.235347E-08  0.176E-04    2.27      82.7  T
     SCC iter.                  ...        0 min,  0.015 sec
     gradient                   ...        0 min,  0.008 sec
 * total energy  :   -74.3131395 Eh     change       -0.8132966E-05 Eh
   gradient norm :     0.0008601 Eh/α   predicted    -0.3636969E-05 ( -55.28%)
   displ. norm   :     0.0848331 α      lambda       -0.5320459E-05
   maximum displ.:     0.0583172 α      in ANC's #1, #13, #5, ...

........................................................................
.............................. CYCLE   42 ..............................
........................................................................

 iter      E             dE          RMSdq      gap      omega  full diag
   1    -75.3219938 -0.753220E+02  0.177E-02    2.27       0.0  T
   2    -75.3219939 -0.464165E-07  0.105E-02    2.27       1.4  T
   3    -75.3219938  0.116348E-06  0.181E-03    2.27       8.1  T
   4    -75.3219939 -0.138331E-06  0.313E-04    2.27      46.7  T
   5    -75.3219939 -0.121500E-08  0.185E-04    2.27      78.6  T
     SCC iter.                  ...        0 min,  0.019 sec
     gradient                   ...        0 min,  0.009 sec
 * total energy  :   -74.3131452 Eh     change       -0.5738084E-05 Eh
   gradient norm :     0.0007716 Eh/α   predicted    -0.2671292E-05 ( -53.45%)
   displ. norm   :     0.0629533 α      lambda       -0.3897453E-05
   maximum displ.:     0.0430344 α      in ANC's #1, #13, #3, ...
 * RMSD in coord.:     0.3854895 α      energy gain  -0.6020404E-03 Eh

generating ANC from exact Hessian ...
Using Lindh-Hessian (1995)
 Shifting diagonal of input Hessian by   9.916240216546086E-003
 Lowest  eigenvalues of input Hessian
    0.000000    0.000000    0.000000    0.000000    0.000000    0.000000
    0.010000    0.010282    0.010435    0.010633    0.011321    0.011536
    0.011577    0.012268    0.012552    0.013007    0.013906    0.014979
 Highest eigenvalues
    1.992041    2.010761    2.020875    2.025734    2.149956    2.211792
 

........................................................................
.............................. CYCLE   43 ..............................
........................................................................

 iter      E             dE          RMSdq      gap      omega  full diag
   1    -75.3219470 -0.753219E+02  0.135E-02    2.27       0.0  T
   2    -75.3219470 -0.247528E-07  0.799E-03    2.27       1.8  T
   3    -75.3219470  0.382479E-07  0.105E-03    2.27      13.8  T
   4    -75.3219470 -0.485116E-07  0.224E-04    2.27      65.1  T
   5    -75.3219470 -0.477527E-09  0.130E-04    2.27     112.0  T
     SCC iter.                  ...        0 min,  0.030 sec
     gradient                   ...        0 min,  0.007 sec
 * total energy  :   -74.3131493 Eh     change       -0.4114083E-05 Eh
   gradient norm :     0.0006562 Eh/α   predicted     0.0000000E+00 (-100.00%)
   displ. norm   :     0.0167426 α      lambda       -0.2150763E-05
   maximum displ.:     0.0102596 α      in ANC's #1, #11, #6, ...

   *** GEOMETRY OPTIMIZATION CONVERGED AFTER 43 ITERATIONS ***

------------------------------------------------------------------------
 total energy gain   :        -0.0328711 Eh      -20.6269 kcal/mol
 total RMSD          :         0.8016582 a0        0.4242 Å
 total power (kW/mol):        -2.0070495 (step)  -70.9302 (real)
------------------------------------------------------------------------

 ANCopt (total)                0 d,  0 h,  0 min,  1.217 sec
 optimizer setup                ...        0 min,  0.000 sec (  0.009%)
 model hessian                  ...        0 min,  0.066 sec (  5.383%)
 ANC generation                 ...        0 min,  0.008 sec (  0.674%)
 coordinate transformation      ...        0 min,  0.001 sec (  0.079%)
 single point calculation       ...        0 min,  1.117 sec ( 91.775%)
 optimization log               ...        0 min,  0.015 sec (  1.267%)
 hessian update                 ...        0 min,  0.004 sec (  0.308%)
 rational function              ...        0 min,  0.004 sec (  0.341%)

================
 final structure:
================
47
 xtb: 6.7.1 (edcfbbe)
O            8.16908387569826        0.26624154540456        1.18591707576931
C            7.38990774679591       -0.82909465685883        1.57553479800639
C            5.88242398504225       -0.57327489379902        1.48975054822949
O            5.53140106796134       -0.46307288074001        0.12847993977287
C            4.23656158234509       -0.26046197014072       -0.21013324280362
C            3.97092619048307       -0.18531588621748       -1.58165863533535
C            2.68771089003474        0.00328525231653       -2.03330029383234
C            1.61480354094259        0.13319377092647       -1.14007252336933
C            0.28069731105788        0.31023764641905       -1.65977554544167
C           -0.84442457103151        0.52850271352440       -0.95738535227668
C           -2.13313857843032        0.65247554027622       -1.63211597399150
C           -3.30820156000340        0.89132372750502       -0.64855863617346
O           -4.43286362054924        1.24995327700250       -1.40604244695412
C           -5.63559467851362        1.33086641193663       -0.67001268271162
O           -2.99572069553584        1.87668301153142        0.31462374635183
C           -2.70572501201396        3.14623038084717       -0.23635609853699
C           -3.47183468192296       -0.44955616378742        0.04902041515132
C           -3.92577494796889       -1.52868517885198       -0.70045844722608
C           -4.06639867160531       -2.77031001288078       -0.10887124244497
C           -3.74826574781335       -2.94287032144600        1.22833330785685
C           -3.29346495987270       -1.86867657343644        1.97349041578300
C           -3.15289628866180       -0.62250720249395        1.38776058549914
O           -2.30753629533999        0.51528352971326       -2.82094542433794
C            1.89501217400749        0.06413130619281        0.22647675598562
C            3.18025026374001       -0.13092063082609        0.69010715173152
H            7.91369211690762        1.04247046618227        1.69771752240181
H            7.65547319947674       -1.63708905681246        0.89118159192397
H            7.62899791290831       -1.13605544084813        2.60532419020522
H            5.34885119865521       -1.41150550130386        1.95861411813376
H            5.62947989600848        0.35393962236142        2.02658809441367
H            4.79912993320548       -0.28449344524860       -2.26510867005276
H            2.49830799728956        0.05421920715605       -3.09532305379066
H            0.17945566131654        0.25375290876746       -2.73778816667327
H           -0.85646947825055        0.62078418730488        0.11704495050130
H           -6.37092506196947        1.75628722830988       -1.34974703695599
H           -5.51998450763276        1.97774536766624        0.20508092379873
H           -5.96673499254049        0.34089524527701       -0.33867551250119
H           -2.68439410924797        3.83906530528693        0.60292099448424
H           -3.47530385403767        3.44969694755413       -0.95049318356326
H           -1.73333366710900        3.14446970611106       -0.74137763832302
H           -4.16647033262791       -1.37913839208455       -1.74286603769725
H           -4.42305166972197       -3.60568768956710       -0.69325880807508
H           -3.85587049390230       -3.91390412051344        1.68900637776509
H           -3.04848404565878       -1.99966115075063        3.01731196984690
H           -2.81158619019965        0.22290729739089        1.96341072255520
H            1.09287566575159        0.15322699874507        0.94219875536937
H            3.34940550252291       -0.18558743308655        1.75443170153547
 
 Bond Distances (Angstroems)
 ---------------------------
O1-C2=1.3995         O1-H26=0.9642        C2-O1=1.3995         C2-C3=1.5314         C2-H27=1.0917        C2-H28=1.1008        
C3-C2=1.5314         C3-O4=1.4101         C3-H29=1.0987        C3-H30=1.1009        O4-C3=1.4101         O4-C5=1.3536         
C5-O4=1.3536         C5-C6=1.3990         C5-C25=1.3939        C6-C5=1.3990         C6-C7=1.3734         C6-H31=1.0784        
C7-C6=1.3734         C7-C8=1.4021         C7-H32=1.0800        C8-C7=1.4021         C8-C9=1.4427         C8-C24=1.3967        
C9-C8=1.4427         C9-C10=1.3442        C9-H33=1.0842        C10-C9=1.3442        C10-C11=1.4599       C10-H34=1.0785       
C11-C10=1.4599       C11-C12=1.5509       C11-O23=1.2094       C12-C11=1.5509       C12-O13=1.4026       C12-O15=1.4129       
C12-C17=1.5203       O13-C12=1.4026       O13-C14=1.4124       C14-O13=1.4124       C14-H35=1.0880       C14-H36=1.0944       
C14-H37=1.0952       O15-C12=1.4129       O15-C16=1.4140       C16-O15=1.4140       C16-H38=1.0885       C16-H39=1.0929       
C16-H40=1.0957       C17-C12=1.5203       C17-C18=1.3901       C17-C22=1.3870       C18-C17=1.3901       C18-C19=1.3825       
C18-H41=1.0802       C19-C18=1.3825       C19-C20=1.3853       C19-H42=1.0801       C20-C19=1.3853       C20-C21=1.3842       
C20-H43=1.0801       C21-C20=1.3842       C21-C22=1.3841       C21-H44=1.0802       C22-C17=1.3870       C22-C21=1.3841       
C22-H45=1.0782       O23-C11=1.2094       C24-C8=1.3967        C24-C25=1.3802       C24-H46=1.0787       C25-C5=1.3939        
C25-C24=1.3802       C25-H47=1.0791       H26-O1=0.9642        H27-C2=1.0917        H28-C2=1.1008        H29-C3=1.0987        
H30-C3=1.1009        H31-C6=1.0784        H32-C7=1.0800        H33-C9=1.0842        H34-C10=1.0785       H35-C14=1.0880       
H36-C14=1.0944       H37-C14=1.0952       H38-C16=1.0885       H39-C16=1.0929       H40-C16=1.0957       H41-C18=1.0802       
H42-C19=1.0801       H43-C20=1.0801       H44-C21=1.0802       H45-C22=1.0782       H46-C24=1.0787       H47-C25=1.0791       
 C  H  Rav=1.0869 sigma=0.0081  Rmin=1.0782  Rmax=1.1009    21
 C  C  Rav=1.4171 sigma=0.0578  Rmin=1.3442  Rmax=1.5509    18
 O  H  Rav=0.9642 sigma=0.0000  Rmin=0.9642  Rmax=0.9642     1
 O  C  Rav=1.3768 sigma=0.0660  Rmin=1.2094  Rmax=1.4140     8
 
 selected bond angles (degree)
 --------------------
H26-O1-C2=109.56               C3-C2-O1=113.68                H27-C2-O1=105.62               H27-C2-C3=109.15               
H28-C2-O1=110.96               H28-C2-C3=108.23               H28-C2-H27=109.10              O4-C3-C2=108.19                
H29-C3-C2=109.07               H29-C3-O4=110.53               H30-C3-C2=109.85               H30-C3-O4=110.35               
H30-C3-H29=108.84              C5-O4-C3=119.43                C6-C5-O4=115.78                C25-C5-O4=125.26               
C25-C5-C6=118.96               C7-C6-C5=120.48                H31-C6-C5=118.07               H31-C6-C7=121.45               
C8-C7-C6=121.21                H32-C7-C6=119.59               H32-C7-C8=119.20               C9-C8-C7=119.31                
C24-C8-C7=117.72               C24-C8-C9=122.96               C10-C9-C8=127.28               H33-C9-C8=115.98               
H33-C9-C10=116.73              C11-C10-C9=120.74              H34-C10-C9=122.94              H34-C10-C11=116.32             
 
 selected dihedral angles (degree)
 ---------------------------------
C3-C2-O1-H26= 54.59           H27-C2-O1-H26=174.23          H28-C2-O1-H26=292.33          O4-C3-C2-O1= 68.65            
O4-C3-C2-H27=311.03           O4-C3-C2-H28=192.41           H29-C3-C2-O1=188.93           H29-C3-C2-H27= 71.31          
H29-C3-C2-H28=312.69          H30-C3-C2-O1=308.14           H30-C3-C2-H27=190.52          H30-C3-C2-H28= 71.90          
C5-O4-C3-C2=178.70            C5-O4-C3-H29= 59.34           C5-O4-C3-H30=298.90           C6-C5-O4-C3=181.04            
C25-C5-O4-C3=  0.77           C7-C6-C5-O4=179.27            C7-C6-C5-C25=359.52           H31-C6-C5-O4=359.57           
H31-C6-C5-C25=179.82          C8-C7-C6-C5=  0.38            C8-C7-C6-H31=180.08           H32-C7-C6-C5=180.30           
H32-C7-C6-H31=  0.00          C9-C8-C7-C6=180.91            C9-C8-C7-H32=  0.99           C24-C8-C7-C6=  0.00           
C24-C8-C7-H32=180.07          C10-C9-C8-C7=184.24           C10-C9-C8-C24=  5.21          H33-C9-C8-C7=  4.66           
H33-C9-C8-C24=185.62          C11-C10-C9-C8=181.65          C11-C10-C9-H33=  1.23         H34-C10-C9-C8=  1.59          
H34-C10-C9-H33=181.17         
           -------------------------------------------------
          |                Final Singlepoint                |
           -------------------------------------------------

          ...................................................
          :                      SETUP                      :
          :.................................................:
          :  # basis functions                 122          :
          :  # atomic orbitals                 122          :
          :  # shells                           72          :
          :  # electrons                       132          :
          :  max. iterations                   250          :
          :  Hamiltonian                  GFN2-xTB          :
          :  restarted?                      false          :
          :  GBSA solvation                  false          :
          :  PC potential                    false          :
          :  electronic temp.          300.0000000     K    :
          :  accuracy                    1.0000000          :
          :  -> integral cutoff          0.2500000E+02      :
          :  -> integral neglect         0.1000000E-07      :
          :  -> SCF convergence          0.1000000E-05 Eh   :
          :  -> wf. convergence          0.1000000E-03 e    :
          :  Broyden damping             0.4000000          :
          :  net charge                          0          :
          :  unpaired electrons                  0          :
          ...................................................

 iter      E             dE          RMSdq      gap      omega  full diag
   1    -75.3219470 -0.753219E+02  0.613E-05    2.27       0.0  T
   2    -75.3219470 -0.180478E-10  0.456E-05    2.27     319.9  T
   3    -75.3219470 -0.614335E-10  0.236E-05    2.27     619.4  T

   *** convergence criteria satisfied after 3 iterations ***

         #    Occupation            Energy/Eh            Energy/eV
      -------------------------------------------------------------
         1        2.0000           -0.7323906             -19.9294
       ...           ...                  ...                  ...
        60        2.0000           -0.4210451             -11.4572
        61        2.0000           -0.4208139             -11.4509
        62        2.0000           -0.4103448             -11.1660
        63        2.0000           -0.4085382             -11.1169
        64        2.0000           -0.4045325             -11.0079
        65        2.0000           -0.3861722             -10.5083
        66        2.0000           -0.3767345             -10.2515 (HOMO)
        67                         -0.2934938              -7.9864 (LUMO)
        68                         -0.2367777              -6.4430
        69                         -0.2314386              -6.2978
        70                         -0.2271043              -6.1798
        71                         -0.2159414              -5.8761
       ...                                ...                  ...
       122                          0.7031575              19.1339
      -------------------------------------------------------------
                  HL-Gap            0.0832407 Eh            2.2651 eV
             Fermi-level           -0.3351142 Eh           -9.1189 eV

 SCC (total)                   0 d,  0 h,  0 min,  0.017 sec
 SCC setup                      ...        0 min,  0.000 sec (  0.980%)
 Dispersion                     ...        0 min,  0.000 sec (  1.328%)
 classical contributions        ...        0 min,  0.000 sec (  0.263%)
 integral evaluation            ...        0 min,  0.001 sec (  7.287%)
 iterations                     ...        0 min,  0.010 sec ( 54.445%)
 molecular gradient             ...        0 min,  0.006 sec ( 34.467%)
 printout                       ...        0 min,  0.000 sec (  1.088%)

         :::::::::::::::::::::::::::::::::::::::::::::::::::::
         ::                     SUMMARY                     ::
         :::::::::::::::::::::::::::::::::::::::::::::::::::::
         :: total energy             -74.313149313990 Eh    ::
         :: gradient norm              0.000659534553 Eh/a0 ::
         :: HOMO-LUMO gap              2.265094382289 eV    ::
         ::.................................................::
         :: SCC energy               -75.321595694289 Eh    ::
         :: -> isotropic ES            0.101907238366 Eh    ::
         :: -> anisotropic ES          0.004581286036 Eh    ::
         :: -> anisotropic XC          0.020347076725 Eh    ::
         :: -> dispersion             -0.047806136986 Eh    ::
         :: repulsion energy           1.008446380298 Eh    ::
         :: add. restraining           0.000000000000 Eh    ::
         :: total charge              -0.000000000000 e     ::
         :::::::::::::::::::::::::::::::::::::::::::::::::::::

           -------------------------------------------------
          |                Property Printout                |
           -------------------------------------------------

    * Orbital Energies and Occupations

         #    Occupation            Energy/Eh            Energy/eV
      -------------------------------------------------------------
         1        2.0000           -0.7323906             -19.9294
       ...           ...                  ...                  ...
        54        2.0000           -0.4481803             -12.1956
        55        2.0000           -0.4335265             -11.7969
        56        2.0000           -0.4325481             -11.7702
        57        2.0000           -0.4296836             -11.6923
        58        2.0000           -0.4287118             -11.6658
        59        2.0000           -0.4279576             -11.6453
        60        2.0000           -0.4210451             -11.4572
        61        2.0000           -0.4208139             -11.4509
        62        2.0000           -0.4103448             -11.1660
        63        2.0000           -0.4085382             -11.1169
        64        2.0000           -0.4045325             -11.0079
        65        2.0000           -0.3861722             -10.5083
        66        2.0000           -0.3767345             -10.2515 (HOMO)
        67                         -0.2934938              -7.9864 (LUMO)
        68                         -0.2367777              -6.4430
        69                         -0.2314386              -6.2978
        70                         -0.2271043              -6.1798
        71                         -0.2159414              -5.8761
        72                         -0.1609040              -4.3784
        73                         -0.0985242              -2.6810
        74                         -0.0883435              -2.4039
        75                          0.0027065               0.0736
        76                          0.0115709               0.3149
        77                          0.0328736               0.8945
       ...                                ...                  ...
       122                          0.7031575              19.1339
      -------------------------------------------------------------
                  HL-Gap            0.0832407 Eh            2.2651 eV
             Fermi-level           -0.3351142 Eh           -9.1189 eV

     #   Z          covCN         q      C6AA      α(0)
     1   8 O        1.656    -0.423    21.292     6.229
     2   6 C        3.674     0.074    19.563     6.338
     3   6 C        3.691     0.071    19.562     6.329
     4   8 O        1.706    -0.254    18.204     5.761
     5   6 C        2.865     0.149    24.754     8.155
     6   6 C        2.917    -0.052    29.288     8.874
     7   6 C        2.927    -0.029    28.714     8.788
     8   6 C        2.969     0.006    27.888     8.662
     9   6 C        2.907    -0.009    28.241     8.714
    10   6 C        2.894    -0.070    29.733     8.940
    11   6 C        2.831     0.211    23.537     7.950
    12   6 C        3.707     0.249    16.886     5.874
    13   8 O        1.701    -0.317    19.287     5.929
    14   6 C        3.647     0.046    20.127     6.446
    15   8 O        1.700    -0.337    19.643     5.984
    16   6 C        3.647     0.045    20.134     6.448
    17   6 C        2.984    -0.010    28.263     8.721
    18   6 C        2.923    -0.032    28.793     8.800
    19   6 C        2.920    -0.028    28.707     8.786
    20   6 C        2.920    -0.030    28.750     8.793
    21   6 C        2.921    -0.029    28.733     8.790
    22   6 C        2.921    -0.032    28.789     8.799
    23   8 O        0.857    -0.349    20.688     6.098
    24   6 C        2.924    -0.029    28.722     8.789
    25   6 C        2.914    -0.066    29.649     8.929
    26   1 H        0.805     0.291     0.750     1.360
    27   1 H        0.924     0.074     2.041     2.234
    28   1 H        0.923     0.027     2.629     2.536
    29   1 H        0.923     0.035     2.518     2.481
    30   1 H        0.923     0.033     2.538     2.492
    31   1 H        0.926     0.058     2.220     2.330
    32   1 H        0.926     0.050     2.318     2.381
    33   1 H        0.925     0.070     2.083     2.257
    34   1 H        0.926     0.052     2.292     2.367
    35   1 H        0.925     0.059     2.205     2.322
    36   1 H        0.924     0.039     2.460     2.453
    37   1 H        0.924     0.031     2.579     2.511
    38   1 H        0.925     0.056     2.246     2.344
    39   1 H        0.924     0.048     2.344     2.394
    40   1 H        0.924     0.027     2.623     2.533
    41   1 H        0.926     0.051     2.307     2.375
    42   1 H        0.926     0.038     2.477     2.461
    43   1 H        0.926     0.035     2.513     2.479
    44   1 H        0.926     0.035     2.513     2.479
    45   1 H        0.926     0.049     2.327     2.385
    46   1 H        0.926     0.045     2.378     2.412
    47   1 H        0.926     0.036     2.509     2.477

 Mol. C6AA /au·bohr⁶  :      24549.610108
 Mol. C8AA /au·bohr⁸  :     577494.080656
 Mol. α(0) /au        :        243.990782


Wiberg/Mayer (AO) data.
largest (>0.10) Wiberg bond orders for each atom

 ---------------------------------------------------------------------------
     #   Z sym  total        # sym  WBO       # sym  WBO       # sym  WBO
 ---------------------------------------------------------------------------
     1   8 O    1.975 --     2 C    1.015    26 H    0.899
     2   6 C    3.961 --     1 O    1.015     3 C    0.990    27 H    0.968
                            28 H    0.966
     3   6 C    3.950 --     2 C    0.990     4 O    0.973    29 H    0.966
                            30 H    0.964
     4   8 O    2.246 --     5 C    1.081     3 C    0.973
     5   6 C    3.923 --    25 C    1.353     6 C    1.327     4 O    1.081
     6   6 C    3.985 --     7 C    1.504     5 C    1.327    31 H    0.967
     7   6 C    3.988 --     6 C    1.504     8 C    1.333    32 H    0.967
     8   6 C    3.990 --    24 C    1.358     7 C    1.333     9 C    1.137
     9   6 C    3.977 --    10 C    1.729     8 C    1.137    33 H    0.957
    10   6 C    3.978 --     9 C    1.729    11 C    1.083    34 H    0.960
    11   6 C    3.927 --    23 O    1.807    10 C    1.083    12 C    0.898
    12   6 C    3.923 --    13 O    0.975    15 O    0.958    17 C    0.945
                            11 C    0.898
    13   8 O    2.094 --    14 C    0.983    12 C    0.975
    14   6 C    3.947 --    13 O    0.983    35 H    0.980    36 H    0.979
                            37 H    0.978
    15   8 O    2.077 --    16 C    0.982    12 C    0.958
    16   6 C    3.946 --    15 O    0.982    38 H    0.981    39 H    0.979
                            40 H    0.977
    17   6 C    3.983 --    22 C    1.413    18 C    1.404    12 C    0.945
                            20 C    0.108
    18   6 C    3.990 --    19 C    1.449    17 C    1.404    41 H    0.967
                            21 C    0.111
    19   6 C    3.992 --    18 C    1.449    20 C    1.435    42 H    0.971
                            22 C    0.110
    20   6 C    3.988 --    21 C    1.441    19 C    1.435    43 H    0.971
                            17 C    0.108
    21   6 C    3.991 --    20 C    1.441    22 C    1.440    44 H    0.971
                            18 C    0.111
    22   6 C    3.990 --    21 C    1.440    17 C    1.413    45 H    0.966
                            19 C    0.110
    23   8 O    2.069 --    11 C    1.807
    24   6 C    3.990 --    25 C    1.471     8 C    1.358    46 H    0.965
    25   6 C    3.986 --    24 C    1.471     5 C    1.353    47 H    0.966
    26   1 H    0.916 --     1 O    0.899
    27   1 H    0.994 --     2 C    0.968
    28   1 H    0.999 --     2 C    0.966
    29   1 H    0.998 --     3 C    0.966
    30   1 H    0.998 --     3 C    0.964
    31   1 H    0.996 --     6 C    0.967
    32   1 H    0.997 --     7 C    0.967
    33   1 H    0.995 --     9 C    0.957
    34   1 H    0.997 --    10 C    0.960
    35   1 H    0.996 --    14 C    0.980
    36   1 H    0.998 --    14 C    0.979
    37   1 H    0.999 --    14 C    0.978
    38   1 H    0.996 --    16 C    0.981
    39   1 H    0.998 --    16 C    0.979
    40   1 H    0.999 --    16 C    0.977
    41   1 H    0.997 --    18 C    0.967
    42   1 H    0.998 --    19 C    0.971
    43   1 H    0.998 --    20 C    0.971
    44   1 H    0.998 --    21 C    0.971
    45   1 H    0.998 --    22 C    0.966
    46   1 H    0.998 --    24 C    0.965
    47   1 H    0.998 --    25 C    0.966
 ---------------------------------------------------------------------------

Topologies differ in total number of bonds
Writing topology from bond orders to xtbtopo.mol

molecular dipole:
                 x           y           z       tot (Debye)
 q only:        0.932      -0.193       1.727
   full:        0.710      -0.066       2.223       5.935
molecular quadrupole (traceless):
                xx          xy          yy          xz          yz          zz
 q only:       -2.283       1.316       6.770       2.357       1.017      -4.487
  q+dip:      -10.628       1.935       8.560       6.805       2.172       2.067
   full:       -9.839       2.274      11.507       6.111       1.807      -1.667

           -------------------------------------------------
          |                Geometry Summary                 |
           -------------------------------------------------

      molecular mass/u    :      342.3864391
   center of mass at/Å    :        0.0081649      -0.0130935      -0.2088169
  moments of inertia/u·Å² :        0.1149922E+04   0.6376531E+04   0.6783432E+04
rotational constants/cm⁻¹ :        0.1465981E-01   0.2643699E-02   0.2485119E-02

 * 44 selected distances

     #   Z          #   Z                                           value/Å
     1   8 O        2   6 C                                       1.3995282
     2   6 C        3   6 C                                       1.5314406 (max)
     3   6 C        4   8 O                                       1.4101133
     4   8 O        5   6 C                                       1.3536320
     5   6 C        6   6 C                                       1.3990323
     6   6 C        7   6 C                                       1.3733872
     7   6 C        8   6 C                                       1.4020922
     9   6 C       10   6 C                                       1.3442065
    12   6 C       13   8 O                                       1.4025912
    13   8 O       14   6 C                                       1.4123913
    12   6 C       15   8 O                                       1.4129041
    15   8 O       16   6 C                                       1.4140110
    17   6 C       18   6 C                                       1.3900720
    18   6 C       19   6 C                                       1.3825278
    19   6 C       20   6 C                                       1.3853166
    20   6 C       21   6 C                                       1.3841949
    17   6 C       22   6 C                                       1.3870326
    21   6 C       22   6 C                                       1.3841161
    11   6 C       23   8 O                                       1.2093601
     8   6 C       24   6 C                                       1.3966903
     5   6 C       25   6 C                                       1.3939181
    24   6 C       25   6 C                                       1.3801579
     1   8 O       26   1 H                                       0.9642075 (min)
     2   6 C       27   1 H                                       1.0916591
     2   6 C       28   1 H                                       1.1008431
     3   6 C       29   1 H                                       1.0987100
     3   6 C       30   1 H                                       1.1008643
     6   6 C       31   1 H                                       1.0783607
     7   6 C       32   1 H                                       1.0799816
     9   6 C       33   1 H                                       1.0842287
    10   6 C       34   1 H                                       1.0784534
    14   6 C       35   1 H                                       1.0879948
    14   6 C       36   1 H                                       1.0943524
    14   6 C       37   1 H                                       1.0952084
    16   6 C       38   1 H                                       1.0885134
    16   6 C       39   1 H                                       1.0928566
    16   6 C       40   1 H                                       1.0957167
    18   6 C       41   1 H                                       1.0802372
    19   6 C       42   1 H                                       1.0800770
    20   6 C       43   1 H                                       1.0801413
    21   6 C       44   1 H                                       1.0801557
    22   6 C       45   1 H                                       1.0782354
    24   6 C       46   1 H                                       1.0787118
    25   6 C       47   1 H                                       1.0790685

 * 4 distinct bonds (by element types)

   Z      Z             #   av. dist./Å        max./Å        min./Å
   1 H    6 C          21     1.0868748     1.1008643     1.0782354
   6 C    6 C          14     1.3952989     1.5314406     1.3442065
   1 H    8 O           1     0.9642075     0.9642075     0.9642075
   6 C    8 O           8     1.3768164     1.4140110     1.2093601


optimized geometry written to: xtbopt.xyz


           -------------------------------------------------
          | TOTAL ENERGY              -74.313149313990 Eh   |
          | GRADIENT NORM               0.000659534553 Eh/α |
          | HOMO-LUMO GAP               2.265094382289 eV   |
           -------------------------------------------------
########################################################################
[WARNING] Runtime exception occurred
-2- restart_readRestart: Dimension missmatch in restart file.
-1- restart_readRestart: Number of electron missmatch in restart file.
########################################################################

------------------------------------------------------------------------
 * finished run on 2025/12/01 at 14:22:13.621     
------------------------------------------------------------------------
 total:
 * wall-time:     0 d,  0 h,  0 min,  1.303 sec
 *  cpu-time:     0 d,  0 h,  0 min, 29.741 sec
 * ratio c/w:    22.817 speedup
 SCF:
 * wall-time:     0 d,  0 h,  0 min,  0.055 sec
 *  cpu-time:     0 d,  0 h,  0 min,  1.212 sec
 * ratio c/w:    22.185 speedup
 ANC optimizer:
 * wall-time:     0 d,  0 h,  0 min,  1.235 sec
 *  cpu-time:     0 d,  0 h,  0 min, 28.315 sec
 * ratio c/w:    22.924 speedup

normal termination of xtb
