      -----------------------------------------------------------      
     |                   =====================                   |     
     |                           x T B                           |     
     |                   =====================                   |     
     |                         S. Grimme                         |     
     |          Mulliken Center for Theoretical Chemistry        |     
     |                    University of Bonn                     |     
      -----------------------------------------------------------      

   * xtb version 6.7.1 (edcfbbe) compiled by 'albert@albert-system' on 2024-07-22

   xtb is free software: you can redistribute it and/or modify it under
   the terms of the GNU Lesser General Public License as published by
   the Free Software Foundation, either version 3 of the License, or
   (at your option) any later version.
   
   xtb is distributed in the hope that it will be useful,
   but WITHOUT ANY WARRANTY; without even the implied warranty of
   MERCHANTABILITY or FITNESS FOR A PARTICULAR PURPOSE.  See the
   GNU Lesser General Public License for more details.
   
   Cite this work as:
   * C. Bannwarth, E. Caldeweyher, S. Ehlert, A. Hansen, P. Pracht,
     J. Seibert, S. Spicher, S. Grimme, WIREs Comput. Mol. Sci., 2020, 11,
     e01493. DOI: 10.1002/wcms.1493
   
   for GFN2-xTB:
   * C. Bannwarth, S. Ehlert and S. Grimme., J. Chem. Theory Comput., 2019,
     15, 1652-1671. DOI: 10.1021/acs.jctc.8b01176
   for GFN1-xTB:
   * S. Grimme, C. Bannwarth, P. Shushkov, J. Chem. Theory Comput., 2017,
     13, 1989-2009. DOI: 10.1021/acs.jctc.7b00118
   for GFN0-xTB:
   * P. Pracht, E. Caldeweyher, S. Ehlert, S. Grimme, ChemRxiv, 2019, preprint.
     DOI: 10.26434/chemrxiv.8326202.v1
   for GFN-FF:
   * S. Spicher and S. Grimme, Angew. Chem. Int. Ed., 2020, 59, 15665-15673.
     DOI: 10.1002/anie.202004239
   
   for ALPB and GBSA implicit solvation:
   * S. Ehlert, M. Stahn, S. Spicher, S. Grimme, J. Chem. Theory Comput.,
     2021, 17, 4250-4261. DOI: 10.1021/acs.jctc.1c00471
   
   for ddCOSMO and CPCM-X implicit solvation:
   * M. Stahn, S. Ehlert, S. Grimme, J. Phys. Chem. A,
     2023, XX, XXXX-XXXX. DOI: 10.1021/acs.jpca.3c04382
   
   for DFT-D4:
   * E. Caldeweyher, C. Bannwarth and S. Grimme, J. Chem. Phys., 2017,
     147, 034112. DOI: 10.1063/1.4993215
   * E. Caldeweyher, S. Ehlert, A. Hansen, H. Neugebauer, S. Spicher,
     C. Bannwarth and S. Grimme, J. Chem. Phys., 2019, 150, 154122.
     DOI: 10.1063/1.5090222
   * E. Caldeweyher, J.-M. Mewes, S. Ehlert and S. Grimme, Phys. Chem. Chem. Phys.
     2020, 22, 8499-8512. DOI: 10.1039/D0CP00502A
   
   for sTDA-xTB:
   * S. Grimme and C. Bannwarth, J. Chem. Phys., 2016, 145, 054103.
     DOI: 10.1063/1.4959605
   
   in the mass-spec context:
   * V. Asgeirsson, C. Bauer and S. Grimme, Chem. Sci., 2017, 8, 4879.
     DOI: 10.1039/c7sc00601b
   * J. Koopman and S. Grimme, ACS Omega 2019, 4, 12, 15120-15133.
     DOI: 10.1021/acsomega.9b02011
   
   for metadynamics refer to:
   * S. Grimme, J. Chem. Theory Comput., 2019, 155, 2847-2862
     DOI: 10.1021/acs.jctc.9b00143
   
   for SPH calculations refer to:
   * S. Spicher and S. Grimme, J. Chem. Theory Comput., 2021, 17, 1701-1714
     DOI: 10.1021/acs.jctc.0c01306
   
   for ONIOM refer to:
   * C. Plett, A. Katbashev, S. Ehlert, S. Grimme, M. Bursch,
     Phys. Chem. Chem. Phys., 2023, 25, 17860-17868. DOI: 10.1039/D3CP02178E
   
   for DIPRO refer to:
   * J. Kohn, N. Gildemeister, S. Grimme, D. Fazzi, A. Hansen,
     J. Chem. Phys., 2023, just accepted.
   
   for PTB refer to:
   * S. Grimme, M. Mueller, A. Hansen, J. Chem. Phys., 2023, 158, 124111.
     DOI: 10.1063/5.0137838
   
   with help from (in alphabetical order)
   P. Atkinson, C. Bannwarth, F. Bohle, G. Brandenburg, E. Caldeweyher
   M. Checinski, S. Dohm, S. Ehlert, S. Ehrlich, I. Gerasimov, C. Hölzer
   A. Katbashev, J. Kohn, J. Koopman, C. Lavigne, S. Lehtola, F. März, M. Müller,
   F. Musil, H. Neugebauer, J. Pisarek, C. Plett, P. Pracht, F. Pultar,
   J. Seibert, P. Shushkov, S. Spicher, M. Stahn, M. Steiner, T. Strunk,
   J. Stückrath, T. Rose, and J. Unsleber
   
 * started run on 2025/12/01 at 14:22:16.464     
   ID    Z sym.   atoms
    1    8 O      1, 3
    2    6 C      2, 4-7
    3    1 H      8-15

           -------------------------------------------------
          |                Calculation Setup                |
           -------------------------------------------------

          program call               : xtb pipeline_data/3_conformer_xyz/acrylates/rdkit/JIGUQPWFLRLWPJ-UHFFFAOYSA-N_conf83.xyz --opt --gfn 2-xTB --iterations 250
          coordinate file            : pipeline_data/3_conformer_xyz/acrylates/rdkit/JIGUQPWFLRLWPJ-UHFFFAOYSA-N_conf83.xyz
          omp threads                :                    24

########################################################################
[WARNING] Please study the warnings concerning your input carefully
-1- readin_getIntValue: could not parse '2-xTB'
########################################################################

           -------------------------------------------------
          |                 G F N 2 - x T B                 |
           -------------------------------------------------

        Reference                      10.1021/acs.jctc.8b01176
      * Hamiltonian:
        H0-scaling (s, p, d)           1.850000    2.230000    2.230000
        zeta-weighting                 0.500000
      * Dispersion:
        s8                             2.700000
        a1                             0.520000
        a2                             5.000000
        s9                             5.000000
      * Repulsion:
        kExp                           1.500000    1.000000
        rExp                           1.000000
      * Coulomb:
        alpha                          2.000000
        third order                    shell-resolved
        anisotropic                    true
        a3                             3.000000
        a5                             4.000000
        cn-shift                       1.200000
        cn-exp                         4.000000
        max-rad                        5.000000

q/qsh data taken from xtbrestart
CAMM data taken from xtbrestart

          ...................................................
          :                      SETUP                      :
          :.................................................:
          :  # basis functions                  36          :
          :  # atomic orbitals                  36          :
          :  # shells                           22          :
          :  # electrons                        40          :
          :  max. iterations                   250          :
          :  Hamiltonian                  GFN2-xTB          :
          :  restarted?                       true          :
          :  GBSA solvation                  false          :
          :  PC potential                    false          :
          :  electronic temp.          300.0000000     K    :
          :  accuracy                    1.0000000          :
          :  -> integral cutoff          0.2500000E+02      :
          :  -> integral neglect         0.1000000E-07      :
          :  -> SCF convergence          0.1000000E-05 Eh   :
          :  -> wf. convergence          0.1000000E-03 e    :
          :  Broyden damping             0.4000000          :
          :  net charge                          0          :
          :  unpaired electrons                  0          :
          ...................................................

 iter      E             dE          RMSdq      gap      omega  full diag
   1    -23.1271515 -0.231272E+02  0.518E+00    3.48       0.0  T
   2    -23.1317958 -0.464431E-02  0.310E+00    3.21       1.0  T
   3    -23.1317976 -0.182551E-05  0.469E-01    3.49       1.0  T
   4    -23.1331182 -0.132060E-02  0.203E-01    3.32       1.0  T
   5    -23.1332324 -0.114141E-03  0.126E-01    3.35       1.0  T
   6    -23.1332928 -0.604607E-04  0.402E-02    3.34       1.0  T
   7    -23.1333078 -0.149195E-04  0.131E-02    3.34       2.0  T
   8    -23.1333081 -0.394377E-06  0.486E-03    3.34       5.3  T
   9    -23.1333082 -0.311313E-07  0.135E-03    3.34      19.1  T
  10    -23.1333082 -0.287853E-08  0.310E-04    3.34      83.2  T
  11    -23.1333082 -0.141899E-09  0.100E-04    3.34     257.9  T

   *** convergence criteria satisfied after 11 iterations ***

         #    Occupation            Energy/Eh            Energy/eV
      -------------------------------------------------------------
         1        2.0000           -0.7296952             -19.8560
       ...           ...                  ...                  ...
        14        2.0000           -0.4802981             -13.0696
        15        2.0000           -0.4699422             -12.7878
        16        2.0000           -0.4664587             -12.6930
        17        2.0000           -0.4545313             -12.3684
        18        2.0000           -0.4419192             -12.0252
        19        2.0000           -0.4308534             -11.7241
        20        2.0000           -0.4123261             -11.2200 (HOMO)
        21                         -0.2895947              -7.8803 (LUMO)
        22                         -0.1715425              -4.6679
        23                         -0.0185262              -0.5041
        24                          0.0866566               2.3580
        25                          0.1184864               3.2242
       ...                                ...                  ...
        36                          0.6301702              17.1478
      -------------------------------------------------------------
                  HL-Gap            0.1227314 Eh            3.3397 eV
             Fermi-level           -0.3509604 Eh           -9.5501 eV

 SCC (total)                   0 d,  0 h,  0 min,  0.011 sec
 SCC setup                      ...        0 min,  0.000 sec (  1.958%)
 Dispersion                     ...        0 min,  0.000 sec (  1.458%)
 classical contributions        ...        0 min,  0.000 sec (  0.462%)
 integral evaluation            ...        0 min,  0.001 sec (  6.320%)
 iterations                     ...        0 min,  0.008 sec ( 77.190%)
 molecular gradient             ...        0 min,  0.001 sec ( 11.424%)
 printout                       ...        0 min,  0.000 sec (  0.968%)

         :::::::::::::::::::::::::::::::::::::::::::::::::::::
         ::                     SUMMARY                     ::
         :::::::::::::::::::::::::::::::::::::::::::::::::::::
         :: total energy             -22.874589884532 Eh    ::
         :: gradient norm              0.137140967604 Eh/a0 ::
         :: HOMO-LUMO gap              3.339692625079 eV    ::
         ::.................................................::
         :: SCC energy               -23.133324445328 Eh    ::
         :: -> isotropic ES            0.049143929350 Eh    ::
         :: -> anisotropic ES         -0.000078511446 Eh    ::
         :: -> anisotropic XC          0.007539607730 Eh    ::
         :: -> dispersion             -0.007937431040 Eh    ::
         :: repulsion energy           0.258734560796 Eh    ::
         :: add. restraining           0.000000000000 Eh    ::
         :: total charge               0.000000000000 e     ::
         :::::::::::::::::::::::::::::::::::::::::::::::::::::

      ----------------------------------------------------------- 
     |                   =====================                   |
     |                        A N C O P T                        |
     |                   =====================                   |
     |               Approximate Normal Coordinate               |
     |                Rational Function Optimizer                |
      ----------------------------------------------------------- 
      ----------------------------------------------------------- 
     |                   =====================                   |
     |                        A N C O P T                        |
     |                   =====================                   |
     |               Approximate Normal Coordinate               |
     |                Rational Function Optimizer                |
      ----------------------------------------------------------- 

          ...................................................
          :                      SETUP                      :
          :.................................................:
          :   optimization level            normal          :
          :   max. optcycles                   200          :
          :   ANC micro-cycles                  20          :
          :   degrees of freedom                39          :
          :.................................................:
          :   RF solver                   davidson          :
          :   write xtbopt.log                true          :
          :   linear?                        false          :
          :   energy convergence         0.5000000E-05 Eh   :
          :   grad. convergence          0.1000000E-02 Eh/α :
          :   maxmium RF displ.          1.0000000          :
          :   Hlow (freq-cutoff)         0.1000000E-01      :
          :   Hmax (freq-cutoff)         5.0000000          :
          :   S6 in model hess.         20.0000000          :
          ...................................................

generating ANC from exact Hessian ...
Using Lindh-Hessian (1995)
 Shifting diagonal of input Hessian by   7.607100381730360E-003
 Lowest  eigenvalues of input Hessian
    0.000000    0.000000    0.000000    0.000000    0.000000    0.000000
    0.010000    0.010721    0.012780    0.017534    0.020881    0.025840
    0.032057    0.041912    0.047588    0.055651    0.056680    0.060688
 Highest eigenvalues
    1.185701    1.262105    1.461218    1.758280    2.041723    2.099342
 

........................................................................
.............................. CYCLE    1 ..............................
........................................................................

 iter      E             dE          RMSdq      gap      omega  full diag
   1    -23.1333082 -0.231333E+02  0.378E-05    3.34       0.0  T
   2    -23.1333082 -0.117950E-11  0.236E-05    3.34    1095.6  T
   3    -23.1333082  0.110134E-12  0.923E-06    3.34    2798.8  T
     SCC iter.                  ...        0 min,  0.002 sec
     gradient                   ...        0 min,  0.001 sec
 * total energy  :   -22.8745899 Eh     change       -0.2174616E-10 Eh
   gradient norm :     0.1371407 Eh/α   predicted     0.0000000E+00 (-100.00%)
   displ. norm   :     0.2791095 α      lambda       -0.1694796E-01
   maximum displ.:     0.2187044 α      in ANC's #8, #24, #17, ...

........................................................................
.............................. CYCLE    2 ..............................
........................................................................

 iter      E             dE          RMSdq      gap      omega  full diag
   1    -23.1576115 -0.231576E+02  0.247E-01    3.51       0.0  T
   2    -23.1578735 -0.262005E-03  0.163E-01    3.59       1.0  T
   3    -23.1579004 -0.269792E-04  0.103E-01    3.58       1.0  T
   4    -23.1579343 -0.338165E-04  0.425E-02    3.60       1.0  T
   5    -23.1579485 -0.142531E-04  0.851E-03    3.59       3.0  T
   6    -23.1579490 -0.436281E-06  0.414E-03    3.59       6.2  T
   7    -23.1579490 -0.442783E-07  0.110E-03    3.59      23.4  T
   8    -23.1579490 -0.145206E-08  0.463E-04    3.59      55.8  T
   9    -23.1579490 -0.333930E-09  0.118E-04    3.59     219.3  T
     SCC iter.                  ...        0 min,  0.004 sec
     gradient                   ...        0 min,  0.001 sec
 * total energy  :   -22.8868254 Eh     change       -0.1223555E-01 Eh
   gradient norm :     0.0597538 Eh/α   predicted    -0.9134127E-02 ( -25.35%)
   displ. norm   :     0.2942768 α      lambda       -0.6868318E-02
   maximum displ.:     0.2591867 α      in ANC's #8, #24, #16, ...

........................................................................
.............................. CYCLE    3 ..............................
........................................................................

 iter      E             dE          RMSdq      gap      omega  full diag
   1    -23.1716896 -0.231717E+02  0.211E-01    3.71       0.0  T
   2    -23.1718465 -0.156874E-03  0.136E-01    3.79       1.0  T
   3    -23.1718493 -0.287356E-05  0.869E-02    3.78       1.0  T
   4    -23.1718821 -0.327833E-04  0.346E-02    3.79       1.0  T
   5    -23.1718907 -0.854485E-05  0.629E-03    3.79       4.1  T
   6    -23.1718908 -0.167966E-06  0.297E-03    3.79       8.7  T
   7    -23.1718909 -0.313108E-07  0.795E-04    3.79      32.5  T
   8    -23.1718909 -0.751932E-09  0.357E-04    3.79      72.4  T
     SCC iter.                  ...        0 min,  0.004 sec
     gradient                   ...        0 min,  0.001 sec
 * total energy  :   -22.8906545 Eh     change       -0.3829087E-02 Eh
   gradient norm :     0.0191801 Eh/α   predicted    -0.3731549E-02 (  -2.55%)
   displ. norm   :     0.1273109 α      lambda       -0.6741609E-03
   maximum displ.:     0.0970364 α      in ANC's #8, #4, #6, ...

........................................................................
.............................. CYCLE    4 ..............................
........................................................................

 iter      E             dE          RMSdq      gap      omega  full diag
   1    -23.1709661 -0.231710E+02  0.610E-02    3.79       0.0  T
   2    -23.1709745 -0.837021E-05  0.379E-02    3.79       1.0  T
   3    -23.1709732  0.125749E-05  0.202E-02    3.78       1.3  T
   4    -23.1709743 -0.105286E-05  0.975E-03    3.79       2.6  T
   5    -23.1709754 -0.110492E-05  0.104E-03    3.79      24.8  T
   6    -23.1709754 -0.382515E-08  0.646E-04    3.79      40.0  T
   7    -23.1709754 -0.787193E-09  0.164E-04    3.79     157.3  T
     SCC iter.                  ...        0 min,  0.003 sec
     gradient                   ...        0 min,  0.001 sec
 * total energy  :   -22.8911012 Eh     change       -0.4466617E-03 Eh
   gradient norm :     0.0084355 Eh/α   predicted    -0.3425403E-03 ( -23.31%)
   displ. norm   :     0.1044707 α      lambda       -0.2436335E-03
   maximum displ.:     0.0629661 α      in ANC's #4, #8, #6, ...

........................................................................
.............................. CYCLE    5 ..............................
........................................................................

 iter      E             dE          RMSdq      gap      omega  full diag
   1    -23.1710107 -0.231710E+02  0.548E-02    3.79       0.0  T
   2    -23.1710138 -0.311166E-05  0.318E-02    3.78       1.0  T
   3    -23.1710134  0.400001E-06  0.104E-02    3.78       2.5  T
   4    -23.1710135 -0.133485E-06  0.574E-03    3.78       4.5  T
   5    -23.1710139 -0.422926E-06  0.684E-04    3.78      37.7  T
   6    -23.1710140 -0.631083E-09  0.356E-04    3.78      72.5  T
     SCC iter.                  ...        0 min,  0.003 sec
     gradient                   ...        0 min,  0.001 sec
 * total energy  :   -22.8912552 Eh     change       -0.1540131E-03 Eh
   gradient norm :     0.0030670 Eh/α   predicted    -0.1231467E-03 ( -20.04%)
   displ. norm   :     0.0733007 α      lambda       -0.7671287E-04
   maximum displ.:     0.0579101 α      in ANC's #4, #2, #6, ...

........................................................................
.............................. CYCLE    6 ..............................
........................................................................

 iter      E             dE          RMSdq      gap      omega  full diag
   1    -23.1713753 -0.231714E+02  0.395E-02    3.78       0.0  T
   2    -23.1713756 -0.283048E-06  0.231E-02    3.78       1.1  T
   3    -23.1713756  0.318292E-07  0.326E-03    3.78       7.9  T
   4    -23.1713757 -0.526868E-07  0.112E-03    3.78      23.0  T
   5    -23.1713757 -0.121296E-07  0.559E-04    3.78      46.2  T
   6    -23.1713757 -0.141047E-08  0.214E-04    3.78     120.5  T
     SCC iter.                  ...        0 min,  0.003 sec
     gradient                   ...        0 min,  0.001 sec
 * total energy  :   -22.8913047 Eh     change       -0.4953529E-04 Eh
   gradient norm :     0.0030240 Eh/α   predicted    -0.3856271E-04 ( -22.15%)
   displ. norm   :     0.0869230 α      lambda       -0.5865698E-04
   maximum displ.:     0.0679581 α      in ANC's #4, #2, #7, ...

........................................................................
.............................. CYCLE    7 ..............................
........................................................................

 iter      E             dE          RMSdq      gap      omega  full diag
   1    -23.1716327 -0.231716E+02  0.390E-02    3.77       0.0  T
   2    -23.1716328 -0.960895E-07  0.233E-02    3.77       1.1  T
   3    -23.1716326  0.190817E-06  0.429E-03    3.77       6.0  T
   4    -23.1716329 -0.223653E-06  0.917E-04    3.77      28.2  T
   5    -23.1716329 -0.551727E-08  0.416E-04    3.77      62.0  T
     SCC iter.                  ...        0 min,  0.002 sec
     gradient                   ...        0 min,  0.002 sec
 * total energy  :   -22.8913405 Eh     change       -0.3573734E-04 Eh
   gradient norm :     0.0036882 Eh/α   predicted    -0.2954877E-04 ( -17.32%)
   displ. norm   :     0.0927479 α      lambda       -0.4926237E-04
   maximum displ.:     0.0742725 α      in ANC's #4, #2, #7, ...

........................................................................
.............................. CYCLE    8 ..............................
........................................................................

 iter      E             dE          RMSdq      gap      omega  full diag
   1    -23.1717356 -0.231717E+02  0.326E-02    3.77       0.0  T
   2    -23.1717358 -0.171736E-06  0.196E-02    3.77       1.3  T
   3    -23.1717357  0.124690E-06  0.337E-03    3.77       7.7  T
   4    -23.1717358 -0.118890E-06  0.153E-03    3.77      16.9  T
   5    -23.1717358 -0.295338E-07  0.311E-04    3.77      83.1  T
   6    -23.1717358 -0.565841E-10  0.143E-04    3.77     180.3  T
     SCC iter.                  ...        0 min,  0.003 sec
     gradient                   ...        0 min,  0.001 sec
 * total energy  :   -22.8913777 Eh     change       -0.3724826E-04 Eh
   gradient norm :     0.0031073 Eh/α   predicted    -0.2484422E-04 ( -33.30%)
   displ. norm   :     0.1227520 α      lambda       -0.5878825E-04
   maximum displ.:     0.0928098 α      in ANC's #4, #2, #7, ...

........................................................................
.............................. CYCLE    9 ..............................
........................................................................

 iter      E             dE          RMSdq      gap      omega  full diag
   1    -23.1716591 -0.231717E+02  0.457E-02    3.77       0.0  T
   2    -23.1716593 -0.267003E-06  0.271E-02    3.77       1.0  T
   3    -23.1716593  0.165002E-07  0.244E-03    3.77      10.6  T
   4    -23.1716594 -0.383680E-07  0.927E-04    3.77      27.9  T
   5    -23.1716594 -0.670097E-08  0.440E-04    3.77      58.7  T
     SCC iter.                  ...        0 min,  0.002 sec
     gradient                   ...        0 min,  0.001 sec
 * total energy  :   -22.8914167 Eh     change       -0.3896490E-04 Eh
   gradient norm :     0.0018498 Eh/α   predicted    -0.2983739E-04 ( -23.42%)
   displ. norm   :     0.0871189 α      lambda       -0.1943603E-04
   maximum displ.:     0.0582924 α      in ANC's #4, #2, #7, ...

........................................................................
.............................. CYCLE   10 ..............................
........................................................................

 iter      E             dE          RMSdq      gap      omega  full diag
   1    -23.1718602 -0.231719E+02  0.429E-02    3.78       0.0  T
   2    -23.1718604 -0.108745E-06  0.254E-02    3.78       1.0  T
   3    -23.1718602  0.183522E-06  0.413E-03    3.78       6.3  T
   4    -23.1718604 -0.207710E-06  0.988E-04    3.78      26.1  T
   5    -23.1718604 -0.930647E-08  0.379E-04    3.78      68.0  T
     SCC iter.                  ...        0 min,  0.002 sec
     gradient                   ...        0 min,  0.001 sec
 * total energy  :   -22.8914306 Eh     change       -0.1392548E-04 Eh
   gradient norm :     0.0010732 Eh/α   predicted    -0.9752182E-05 ( -29.97%)
   displ. norm   :     0.0334524 α      lambda       -0.3896521E-05
   maximum displ.:     0.0261799 α      in ANC's #2, #4, #3, ...

........................................................................
.............................. CYCLE   11 ..............................
........................................................................

 iter      E             dE          RMSdq      gap      omega  full diag
   1    -23.1717212 -0.231717E+02  0.176E-02    3.78       0.0  T
   2    -23.1717213 -0.790917E-07  0.104E-02    3.78       2.5  T
   3    -23.1717213  0.152770E-07  0.157E-03    3.78      16.4  T
   4    -23.1717213 -0.144384E-07  0.752E-04    3.78      34.3  T
   5    -23.1717213 -0.707975E-08  0.182E-04    3.78     141.7  T
     SCC iter.                  ...        0 min,  0.003 sec
     gradient                   ...        0 min,  0.001 sec
 * total energy  :   -22.8914337 Eh     change       -0.3085208E-05 Eh
   gradient norm :     0.0009135 Eh/α   predicted    -0.1949987E-05 ( -36.80%)
   displ. norm   :     0.0266861 α      lambda       -0.4406320E-05
   maximum displ.:     0.0144040 α      in ANC's #2, #4, #3, ...

   *** GEOMETRY OPTIMIZATION CONVERGED AFTER 11 ITERATIONS ***

------------------------------------------------------------------------
 total energy gain   :        -0.0168438 Eh      -10.5697 kcal/mol
 total RMSD          :         0.2548924 a0        0.1349 Å
 total power (kW/mol):        -4.0203109 (step) -785.1046 (real)
------------------------------------------------------------------------

 ANCopt (total)                0 d,  0 h,  0 min,  0.056 sec
 optimizer setup                ...        0 min,  0.000 sec (  0.168%)
 model hessian                  ...        0 min,  0.002 sec (  2.753%)
 ANC generation                 ...        0 min,  0.000 sec (  0.545%)
 coordinate transformation      ...        0 min,  0.000 sec (  0.190%)
 single point calculation       ...        0 min,  0.049 sec ( 87.625%)
 optimization log               ...        0 min,  0.003 sec (  5.031%)
 hessian update                 ...        0 min,  0.000 sec (  0.766%)
 rational function              ...        0 min,  0.001 sec (  2.076%)

================
 final structure:
================
15
 xtb: 6.7.1 (edcfbbe)
O           -0.80730734503382        1.12601415157308        1.34994697258463
C           -0.82724763151006        0.30567438087904        0.46554095239324
O            0.27487205564706       -0.20884489447090       -0.09395092163465
C            1.52340877241223        0.25767030102986        0.41628762517029
C            2.64046485912528       -0.42125259372659       -0.35324160704451
C           -2.04461050078743       -0.26966110184750       -0.14771855198692
C           -3.25269768906720        0.09098543258612        0.25848287144096
H            1.56533900721332        1.34728715331408        0.30597397866331
H            1.57555247264733        0.02471829066651        1.48609617322483
H            2.56461881335833       -0.18259389467672       -1.41108271436851
H            3.60198686604437       -0.08026418440287        0.02124794092691
H            2.57424122385606       -1.50017584321545       -0.23472821236390
H           -1.87417349156659       -0.99137570498381       -0.93192988618442
H           -4.15161481892359       -0.31603002631588       -0.17186696920526
H           -3.36283359341529        0.81784853359101        1.04696834838400
 
 Bond Distances (Angstroems)
 ---------------------------
O1-C2=1.2065         C2-O1=1.2065         C2-O3=1.3388         C2-C6=1.4796         O3-C2=1.3388         O3-C4=1.4272         
C4-O3=1.4272         C4-C5=1.5169         C4-H8=1.0960         C4-H9=1.0961         C5-C4=1.5169         C5-H10=1.0871        
C5-H11=1.0868        C5-H12=1.0874        C6-C2=1.4796         C6-C7=1.3246         C6-H13=1.0793        C7-C6=1.3246         
C7-H14=1.0765        C7-H15=1.0780        H8-C4=1.0960         H9-C4=1.0961         H10-C5=1.0871        H11-C5=1.0868        
H12-C5=1.0874        H13-C6=1.0793        H14-C7=1.0765        H15-C7=1.0780        
 C  H  Rav=1.0859 sigma=0.0071  Rmin=1.0765  Rmax=1.0961     8
 C  C  Rav=1.4403 sigma=0.0833  Rmin=1.3246  Rmax=1.5169     3
 O  C  Rav=1.3241 sigma=0.0907  Rmin=1.2065  Rmax=1.4272     3
 
 selected bond angles (degree)
 --------------------
O3-C2-O1=123.65                C6-C2-O1=125.58                C6-C2-O3=110.77                C4-O3-C2=116.43                
C5-C4-O3=108.46                H8-C4-O3=108.81                H8-C4-C5=111.45                H9-C4-O3=108.73                
H9-C4-C5=111.41                H9-C4-H8=107.92                H10-C5-C4=110.12               H11-C5-C4=109.65               
H11-C5-H10=109.16              H12-C5-C4=110.12               H12-C5-H10=108.64              H12-C5-H11=109.13              
C7-C6-C2=121.16                H13-C6-C2=115.55               H13-C6-C7=123.29               H14-C7-C6=122.41               
H15-C7-C6=120.07               H15-C7-H14=117.52              
 
 selected dihedral angles (degree)
 ---------------------------------
C4-O3-C2-O1=  0.38            C4-O3-C2-C6=180.44            C5-C4-O3-C2=180.83            H8-C4-O3-C2=302.23            
H9-C4-O3-C2= 59.54            H10-C5-C4-O3= 59.94           H10-C5-C4-H8=300.18           H10-C5-C4-H9=179.57           
H11-C5-C4-O3=180.07           H11-C5-C4-H8= 60.31           H11-C5-C4-H9=299.70           H12-C5-C4-O3=300.16           
H12-C5-C4-H8=180.40           H12-C5-C4-H9= 59.79           C7-C6-C2-O1=359.65            C7-C6-C2-O3=179.59            
H13-C6-C2-O1=179.80           H13-C6-C2-O3=359.75           H14-C7-C6-C2=180.13           H14-C7-C6-H13=359.97          
H15-C7-C6-C2=  0.19           H15-C7-C6-H13=180.02          
           -------------------------------------------------
          |                Final Singlepoint                |
           -------------------------------------------------

          ...................................................
          :                      SETUP                      :
          :.................................................:
          :  # basis functions                  36          :
          :  # atomic orbitals                  36          :
          :  # shells                           22          :
          :  # electrons                        40          :
          :  max. iterations                   250          :
          :  Hamiltonian                  GFN2-xTB          :
          :  restarted?                      false          :
          :  GBSA solvation                  false          :
          :  PC potential                    false          :
          :  electronic temp.          300.0000000     K    :
          :  accuracy                    1.0000000          :
          :  -> integral cutoff          0.2500000E+02      :
          :  -> integral neglect         0.1000000E-07      :
          :  -> SCF convergence          0.1000000E-05 Eh   :
          :  -> wf. convergence          0.1000000E-03 e    :
          :  Broyden damping             0.4000000          :
          :  net charge                          0          :
          :  unpaired electrons                  0          :
          ...................................................

 iter      E             dE          RMSdq      gap      omega  full diag
   1    -23.1717213 -0.231717E+02  0.995E-05    3.78       0.0  T
   2    -23.1717213 -0.112124E-10  0.585E-05    3.78     441.4  T
   3    -23.1717213  0.500933E-12  0.427E-05    3.78     605.3  T

   *** convergence criteria satisfied after 3 iterations ***

         #    Occupation            Energy/Eh            Energy/eV
      -------------------------------------------------------------
         1        2.0000           -0.7403317             -20.1455
       ...           ...                  ...                  ...
        14        2.0000           -0.4828934             -13.1402
        15        2.0000           -0.4753889             -12.9360
        16        2.0000           -0.4692338             -12.7685
        17        2.0000           -0.4607396             -12.5374
        18        2.0000           -0.4401744             -11.9778
        19        2.0000           -0.4362563             -11.8711
        20        2.0000           -0.4137064             -11.2575 (HOMO)
        21                         -0.2749197              -7.4809 (LUMO)
        22                         -0.1648327              -4.4853
        23                          0.0094857               0.2581
        24                          0.1031081               2.8057
        25                          0.1281920               3.4883
       ...                                ...                  ...
        36                          0.7069069              19.2359
      -------------------------------------------------------------
                  HL-Gap            0.1387867 Eh            3.7766 eV
             Fermi-level           -0.3443130 Eh           -9.3692 eV

 SCC (total)                   0 d,  0 h,  0 min,  0.003 sec
 SCC setup                      ...        0 min,  0.000 sec (  3.913%)
 Dispersion                     ...        0 min,  0.000 sec (  2.388%)
 classical contributions        ...        0 min,  0.000 sec (  1.073%)
 integral evaluation            ...        0 min,  0.000 sec (  9.498%)
 iterations                     ...        0 min,  0.001 sec ( 48.024%)
 molecular gradient             ...        0 min,  0.001 sec ( 32.102%)
 printout                       ...        0 min,  0.000 sec (  2.248%)

         :::::::::::::::::::::::::::::::::::::::::::::::::::::
         ::                     SUMMARY                     ::
         :::::::::::::::::::::::::::::::::::::::::::::::::::::
         :: total energy             -22.891433695554 Eh    ::
         :: gradient norm              0.000914796195 Eh/a0 ::
         :: HOMO-LUMO gap              3.776577378058 eV    ::
         ::.................................................::
         :: SCC energy               -23.171738046103 Eh    ::
         :: -> isotropic ES            0.045704822263 Eh    ::
         :: -> anisotropic ES          0.000669070771 Eh    ::
         :: -> anisotropic XC          0.007201375902 Eh    ::
         :: -> dispersion             -0.008054469777 Eh    ::
         :: repulsion energy           0.280304350549 Eh    ::
         :: add. restraining           0.000000000000 Eh    ::
         :: total charge              -0.000000000000 e     ::
         :::::::::::::::::::::::::::::::::::::::::::::::::::::

           -------------------------------------------------
          |                Property Printout                |
           -------------------------------------------------

    * Orbital Energies and Occupations

         #    Occupation            Energy/Eh            Energy/eV
      -------------------------------------------------------------
         1        2.0000           -0.7403317             -20.1455
       ...           ...                  ...                  ...
         8        2.0000           -0.5819529             -15.8357
         9        2.0000           -0.5610865             -15.2679
        10        2.0000           -0.5442923             -14.8109
        11        2.0000           -0.5236453             -14.2491
        12        2.0000           -0.5108888             -13.9020
        13        2.0000           -0.4935106             -13.4291
        14        2.0000           -0.4828934             -13.1402
        15        2.0000           -0.4753889             -12.9360
        16        2.0000           -0.4692338             -12.7685
        17        2.0000           -0.4607396             -12.5374
        18        2.0000           -0.4401744             -11.9778
        19        2.0000           -0.4362563             -11.8711
        20        2.0000           -0.4137064             -11.2575 (HOMO)
        21                         -0.2749197              -7.4809 (LUMO)
        22                         -0.1648327              -4.4853
        23                          0.0094857               0.2581
        24                          0.1031081               2.8057
        25                          0.1281920               3.4883
        26                          0.1362757               3.7083
        27                          0.1430393               3.8923
        28                          0.1517082               4.1282
        29                          0.1707295               4.6458
        30                          0.1811395               4.9291
        31                          0.2322585               6.3201
       ...                                ...                  ...
        36                          0.7069069              19.2359
      -------------------------------------------------------------
                  HL-Gap            0.1387867 Eh            3.7766 eV
             Fermi-level           -0.3443130 Eh           -9.3692 eV

     #   Z          covCN         q      C6AA      α(0)
     1   8 O        0.856    -0.415    21.980     6.286
     2   6 C        2.727     0.355    20.979     7.498
     3   8 O        1.705    -0.267    18.428     5.796
     4   6 C        3.702     0.085    19.310     6.283
     5   6 C        3.751    -0.115    22.772     6.805
     6   6 C        2.887    -0.059    29.455     8.898
     7   6 C        2.842    -0.060    29.474     8.897
     8   1 H        0.924     0.051     2.308     2.376
     9   1 H        0.924     0.050     2.317     2.380
    10   1 H        0.925     0.058     2.220     2.330
    11   1 H        0.925     0.052     2.291     2.367
    12   1 H        0.925     0.058     2.221     2.330
    13   1 H        0.926     0.064     2.149     2.292
    14   1 H        0.926     0.063     2.167     2.302
    15   1 H        0.926     0.079     1.993     2.207

 Mol. C6AA /au·bohr⁶  :       2055.538475
 Mol. C8AA /au·bohr⁸  :      45536.639862
 Mol. α(0) /au        :         69.049386


Wiberg/Mayer (AO) data.
largest (>0.10) Wiberg bond orders for each atom

 ---------------------------------------------------------------------------
     #   Z sym  total        # sym  WBO       # sym  WBO       # sym  WBO
 ---------------------------------------------------------------------------
     1   8 O    2.031 --     2 C    1.725     3 O    0.174
     2   6 C    3.920 --     1 O    1.725     3 O    1.124     6 C    1.010
     3   8 O    2.306 --     2 C    1.124     4 C    0.940     1 O    0.174
     4   6 C    3.929 --     5 C    1.020     9 H    0.968     8 H    0.968
                             3 O    0.940
     5   6 C    3.991 --     4 C    1.020    10 H    0.985    12 H    0.985
                            11 H    0.984
     6   6 C    3.988 --     7 C    1.933     2 C    1.010    13 H    0.965
     7   6 C    3.982 --     6 C    1.933    14 H    0.975    15 H    0.970
     8   1 H    0.997 --     4 C    0.968
     9   1 H    0.997 --     4 C    0.968
    10   1 H    0.997 --     5 C    0.985
    11   1 H    0.997 --     5 C    0.984
    12   1 H    0.997 --     5 C    0.985
    13   1 H    0.996 --     6 C    0.965
    14   1 H    0.995 --     7 C    0.975
    15   1 H    0.994 --     7 C    0.970
 ---------------------------------------------------------------------------

Topologies differ in total number of bonds
Writing topology from bond orders to xtbtopo.mol

molecular dipole:
                 x           y           z       tot (Debye)
 q only:        0.204      -0.516      -0.553
   full:        0.201      -0.560      -0.598       2.145
molecular quadrupole (traceless):
                xx          xy          yy          xz          yz          zz
 q only:        9.300       1.489      -4.298       1.592      -2.189      -5.002
  q+dip:        8.585       2.123      -3.877       2.279      -2.642      -4.709
   full:        8.391       2.166      -3.705       2.343      -3.682      -4.686

           -------------------------------------------------
          |                Geometry Summary                 |
           -------------------------------------------------

      molecular mass/u    :      100.1160153
   center of mass at/Å    :       -0.2952072       0.1333172       0.2785351
  moments of inertia/u·Å² :        0.6135728E+02   0.3708044E+03   0.4258433E+03
rotational constants/cm⁻¹ :        0.2747454E+00   0.4546233E-01   0.3958647E-01

 * 13 selected distances

     #   Z          #   Z                                           value/Å
     1   8 O        2   6 C                                       1.2064532
     2   6 C        3   8 O                                       1.3388164
     3   8 O        4   6 C                                       1.4271735
     4   6 C        5   6 C                                       1.5168804 (max)
     6   6 C        7   6 C                                       1.3245907
     4   6 C        8   1 H                                       1.0959892
     4   6 C        9   1 H                                       1.0961187
     5   6 C       10   1 H                                       1.0870780
     5   6 C       11   1 H                                       1.0867568
     5   6 C       12   1 H                                       1.0874312
     6   6 C       13   1 H                                       1.0793092
     7   6 C       14   1 H                                       1.0765290 (min)
     7   6 C       15   1 H                                       1.0780396

 * 3 distinct bonds (by element types)

   Z      Z             #   av. dist./Å        max./Å        min./Å
   1 H    6 C           8     1.0859065     1.0961187     1.0765290
   6 C    6 C           2     1.4207356     1.5168804     1.3245907
   6 C    8 O           3     1.3241477     1.4271735     1.2064532


optimized geometry written to: xtbopt.xyz


           -------------------------------------------------
          | TOTAL ENERGY              -22.891433695554 Eh   |
          | GRADIENT NORM               0.000914796195 Eh/α |
          | HOMO-LUMO GAP               3.776577378058 eV   |
           -------------------------------------------------

------------------------------------------------------------------------
 * finished run on 2025/12/01 at 14:22:16.543     
------------------------------------------------------------------------
 total:
 * wall-time:     0 d,  0 h,  0 min,  0.079 sec
 *  cpu-time:     0 d,  0 h,  0 min,  1.781 sec
 * ratio c/w:    22.458 speedup
 SCF:
 * wall-time:     0 d,  0 h,  0 min,  0.011 sec
 *  cpu-time:     0 d,  0 h,  0 min,  0.248 sec
 * ratio c/w:    22.677 speedup
 ANC optimizer:
 * wall-time:     0 d,  0 h,  0 min,  0.060 sec
 *  cpu-time:     0 d,  0 h,  0 min,  1.379 sec
 * ratio c/w:    22.910 speedup

normal termination of xtb
