      -----------------------------------------------------------      
     |                   =====================                   |     
     |                           x T B                           |     
     |                   =====================                   |     
     |                         S. Grimme                         |     
     |          Mulliken Center for Theoretical Chemistry        |     
     |                    University of Bonn                     |     
      -----------------------------------------------------------      

   * xtb version 6.7.1 (edcfbbe) compiled by 'albert@albert-system' on 2024-07-22

   xtb is free software: you can redistribute it and/or modify it under
   the terms of the GNU Lesser General Public License as published by
   the Free Software Foundation, either version 3 of the License, or
   (at your option) any later version.
   
   xtb is distributed in the hope that it will be useful,
   but WITHOUT ANY WARRANTY; without even the implied warranty of
   MERCHANTABILITY or FITNESS FOR A PARTICULAR PURPOSE.  See the
   GNU Lesser General Public License for more details.
   
   Cite this work as:
   * C. Bannwarth, E. Caldeweyher, S. Ehlert, A. Hansen, P. Pracht,
     J. Seibert, S. Spicher, S. Grimme, WIREs Comput. Mol. Sci., 2020, 11,
     e01493. DOI: 10.1002/wcms.1493
   
   for GFN2-xTB:
   * C. Bannwarth, S. Ehlert and S. Grimme., J. Chem. Theory Comput., 2019,
     15, 1652-1671. DOI: 10.1021/acs.jctc.8b01176
   for GFN1-xTB:
   * S. Grimme, C. Bannwarth, P. Shushkov, J. Chem. Theory Comput., 2017,
     13, 1989-2009. DOI: 10.1021/acs.jctc.7b00118
   for GFN0-xTB:
   * P. Pracht, E. Caldeweyher, S. Ehlert, S. Grimme, ChemRxiv, 2019, preprint.
     DOI: 10.26434/chemrxiv.8326202.v1
   for GFN-FF:
   * S. Spicher and S. Grimme, Angew. Chem. Int. Ed., 2020, 59, 15665-15673.
     DOI: 10.1002/anie.202004239
   
   for ALPB and GBSA implicit solvation:
   * S. Ehlert, M. Stahn, S. Spicher, S. Grimme, J. Chem. Theory Comput.,
     2021, 17, 4250-4261. DOI: 10.1021/acs.jctc.1c00471
   
   for ddCOSMO and CPCM-X implicit solvation:
   * M. Stahn, S. Ehlert, S. Grimme, J. Phys. Chem. A,
     2023, XX, XXXX-XXXX. DOI: 10.1021/acs.jpca.3c04382
   
   for DFT-D4:
   * E. Caldeweyher, C. Bannwarth and S. Grimme, J. Chem. Phys., 2017,
     147, 034112. DOI: 10.1063/1.4993215
   * E. Caldeweyher, S. Ehlert, A. Hansen, H. Neugebauer, S. Spicher,
     C. Bannwarth and S. Grimme, J. Chem. Phys., 2019, 150, 154122.
     DOI: 10.1063/1.5090222
   * E. Caldeweyher, J.-M. Mewes, S. Ehlert and S. Grimme, Phys. Chem. Chem. Phys.
     2020, 22, 8499-8512. DOI: 10.1039/D0CP00502A
   
   for sTDA-xTB:
   * S. Grimme and C. Bannwarth, J. Chem. Phys., 2016, 145, 054103.
     DOI: 10.1063/1.4959605
   
   in the mass-spec context:
   * V. Asgeirsson, C. Bauer and S. Grimme, Chem. Sci., 2017, 8, 4879.
     DOI: 10.1039/c7sc00601b
   * J. Koopman and S. Grimme, ACS Omega 2019, 4, 12, 15120-15133.
     DOI: 10.1021/acsomega.9b02011
   
   for metadynamics refer to:
   * S. Grimme, J. Chem. Theory Comput., 2019, 155, 2847-2862
     DOI: 10.1021/acs.jctc.9b00143
   
   for SPH calculations refer to:
   * S. Spicher and S. Grimme, J. Chem. Theory Comput., 2021, 17, 1701-1714
     DOI: 10.1021/acs.jctc.0c01306
   
   for ONIOM refer to:
   * C. Plett, A. Katbashev, S. Ehlert, S. Grimme, M. Bursch,
     Phys. Chem. Chem. Phys., 2023, 25, 17860-17868. DOI: 10.1039/D3CP02178E
   
   for DIPRO refer to:
   * J. Kohn, N. Gildemeister, S. Grimme, D. Fazzi, A. Hansen,
     J. Chem. Phys., 2023, just accepted.
   
   for PTB refer to:
   * S. Grimme, M. Mueller, A. Hansen, J. Chem. Phys., 2023, 158, 124111.
     DOI: 10.1063/5.0137838
   
   with help from (in alphabetical order)
   P. Atkinson, C. Bannwarth, F. Bohle, G. Brandenburg, E. Caldeweyher
   M. Checinski, S. Dohm, S. Ehlert, S. Ehrlich, I. Gerasimov, C. Hölzer
   A. Katbashev, J. Kohn, J. Koopman, C. Lavigne, S. Lehtola, F. März, M. Müller,
   F. Musil, H. Neugebauer, J. Pisarek, C. Plett, P. Pracht, F. Pultar,
   J. Seibert, P. Shushkov, S. Spicher, M. Stahn, M. Steiner, T. Strunk,
   J. Stückrath, T. Rose, and J. Unsleber
   
 * started run on 2025/12/01 at 14:22:16.360     
   ID    Z sym.   atoms
    1    8 O      1, 3
    2    6 C      2, 4-7
    3    1 H      8-15

           -------------------------------------------------
          |                Calculation Setup                |
           -------------------------------------------------

          program call               : xtb pipeline_data/3_conformer_xyz/acrylates/rdkit/JIGUQPWFLRLWPJ-UHFFFAOYSA-N_conf59.xyz --opt --gfn 2-xTB --iterations 250
          coordinate file            : pipeline_data/3_conformer_xyz/acrylates/rdkit/JIGUQPWFLRLWPJ-UHFFFAOYSA-N_conf59.xyz
          omp threads                :                    24

########################################################################
[WARNING] Please study the warnings concerning your input carefully
-1- readin_getIntValue: could not parse '2-xTB'
########################################################################

           -------------------------------------------------
          |                 G F N 2 - x T B                 |
           -------------------------------------------------

        Reference                      10.1021/acs.jctc.8b01176
      * Hamiltonian:
        H0-scaling (s, p, d)           1.850000    2.230000    2.230000
        zeta-weighting                 0.500000
      * Dispersion:
        s8                             2.700000
        a1                             0.520000
        a2                             5.000000
        s9                             5.000000
      * Repulsion:
        kExp                           1.500000    1.000000
        rExp                           1.000000
      * Coulomb:
        alpha                          2.000000
        third order                    shell-resolved
        anisotropic                    true
        a3                             3.000000
        a5                             4.000000
        cn-shift                       1.200000
        cn-exp                         4.000000
        max-rad                        5.000000

q/qsh data taken from xtbrestart
CAMM data taken from xtbrestart

          ...................................................
          :                      SETUP                      :
          :.................................................:
          :  # basis functions                  36          :
          :  # atomic orbitals                  36          :
          :  # shells                           22          :
          :  # electrons                        40          :
          :  max. iterations                   250          :
          :  Hamiltonian                  GFN2-xTB          :
          :  restarted?                       true          :
          :  GBSA solvation                  false          :
          :  PC potential                    false          :
          :  electronic temp.          300.0000000     K    :
          :  accuracy                    1.0000000          :
          :  -> integral cutoff          0.2500000E+02      :
          :  -> integral neglect         0.1000000E-07      :
          :  -> SCF convergence          0.1000000E-05 Eh   :
          :  -> wf. convergence          0.1000000E-03 e    :
          :  Broyden damping             0.4000000          :
          :  net charge                          0          :
          :  unpaired electrons                  0          :
          ...................................................

 iter      E             dE          RMSdq      gap      omega  full diag
   1    -23.1259140 -0.231259E+02  0.248E+00    3.51       0.0  T
   2    -23.1279941 -0.208007E-02  0.148E+00    3.48       1.0  T
   3    -23.1253227  0.267136E-02  0.525E-01    3.47       1.0  T
   4    -23.1287695 -0.344678E-02  0.143E-01    3.45       1.0  T
   5    -23.1288470 -0.775185E-04  0.744E-02    3.47       1.0  T
   6    -23.1288503 -0.324700E-05  0.277E-02    3.46       1.0  T
   7    -23.1288551 -0.479620E-05  0.582E-03    3.47       4.4  T
   8    -23.1288551 -0.446085E-07  0.191E-03    3.47      13.5  T
   9    -23.1288551 -0.557549E-08  0.717E-04    3.47      36.0  T
  10    -23.1288551 -0.736343E-09  0.221E-04    3.47     117.1  T

   *** convergence criteria satisfied after 10 iterations ***

         #    Occupation            Energy/Eh            Energy/eV
      -------------------------------------------------------------
         1        2.0000           -0.7299897             -19.8640
       ...           ...                  ...                  ...
        14        2.0000           -0.4791689             -13.0388
        15        2.0000           -0.4736454             -12.8885
        16        2.0000           -0.4648915             -12.6503
        17        2.0000           -0.4562303             -12.4147
        18        2.0000           -0.4400390             -11.9741
        19        2.0000           -0.4348528             -11.8329
        20        2.0000           -0.4131983             -11.2437 (HOMO)
        21                         -0.2857343              -7.7752 (LUMO)
        22                         -0.1748909              -4.7590
        23                         -0.0223185              -0.6073
        24                          0.0879471               2.3932
        25                          0.0915861               2.4922
       ...                                ...                  ...
        36                          0.6251285              17.0106
      -------------------------------------------------------------
                  HL-Gap            0.1274641 Eh            3.4685 eV
             Fermi-level           -0.3494663 Eh           -9.5095 eV

 SCC (total)                   0 d,  0 h,  0 min,  0.014 sec
 SCC setup                      ...        0 min,  0.000 sec (  1.247%)
 Dispersion                     ...        0 min,  0.000 sec (  1.394%)
 classical contributions        ...        0 min,  0.000 sec (  0.379%)
 integral evaluation            ...        0 min,  0.000 sec (  3.342%)
 iterations                     ...        0 min,  0.011 sec ( 82.530%)
 molecular gradient             ...        0 min,  0.001 sec ( 10.194%)
 printout                       ...        0 min,  0.000 sec (  0.722%)

         :::::::::::::::::::::::::::::::::::::::::::::::::::::
         ::                     SUMMARY                     ::
         :::::::::::::::::::::::::::::::::::::::::::::::::::::
         :: total energy             -22.876304822724 Eh    ::
         :: gradient norm              0.111941211347 Eh/a0 ::
         :: HOMO-LUMO gap              3.468473414722 eV    ::
         ::.................................................::
         :: SCC energy               -23.128873523234 Eh    ::
         :: -> isotropic ES            0.048234465122 Eh    ::
         :: -> anisotropic ES          0.000417031793 Eh    ::
         :: -> anisotropic XC          0.008589974618 Eh    ::
         :: -> dispersion             -0.007936203267 Eh    ::
         :: repulsion energy           0.252568700511 Eh    ::
         :: add. restraining           0.000000000000 Eh    ::
         :: total charge               0.000000000000 e     ::
         :::::::::::::::::::::::::::::::::::::::::::::::::::::

      ----------------------------------------------------------- 
     |                   =====================                   |
     |                        A N C O P T                        |
     |                   =====================                   |
     |               Approximate Normal Coordinate               |
     |                Rational Function Optimizer                |
      ----------------------------------------------------------- 
      ----------------------------------------------------------- 
     |                   =====================                   |
     |                        A N C O P T                        |
     |                   =====================                   |
     |               Approximate Normal Coordinate               |
     |                Rational Function Optimizer                |
      ----------------------------------------------------------- 

          ...................................................
          :                      SETUP                      :
          :.................................................:
          :   optimization level            normal          :
          :   max. optcycles                   200          :
          :   ANC micro-cycles                  20          :
          :   degrees of freedom                39          :
          :.................................................:
          :   RF solver                   davidson          :
          :   write xtbopt.log                true          :
          :   linear?                        false          :
          :   energy convergence         0.5000000E-05 Eh   :
          :   grad. convergence          0.1000000E-02 Eh/α :
          :   maxmium RF displ.          1.0000000          :
          :   Hlow (freq-cutoff)         0.1000000E-01      :
          :   Hmax (freq-cutoff)         5.0000000          :
          :   S6 in model hess.         20.0000000          :
          ...................................................

generating ANC from exact Hessian ...
Using Lindh-Hessian (1995)
 Shifting diagonal of input Hessian by   7.743803896235824E-003
 Lowest  eigenvalues of input Hessian
    0.000000    0.000000    0.000000    0.000000    0.000000    0.000000
    0.010000    0.010409    0.012838    0.017050    0.021005    0.025086
    0.029285    0.038815    0.047423    0.054007    0.055351    0.059816
 Highest eigenvalues
    1.173089    1.230362    1.447243    1.705927    1.993005    2.102744
 

........................................................................
.............................. CYCLE    1 ..............................
........................................................................

 iter      E             dE          RMSdq      gap      omega  full diag
   1    -23.1288551 -0.231289E+02  0.752E-05    3.47       0.0  T
   2    -23.1288551 -0.786216E-11  0.410E-05    3.47     629.3  T
   3    -23.1288551  0.991207E-12  0.248E-05    3.47    1042.3  T
     SCC iter.                  ...        0 min,  0.002 sec
     gradient                   ...        0 min,  0.001 sec
 * total energy  :   -22.8763048 Eh     change       -0.9876899E-10 Eh
   gradient norm :     0.1119411 Eh/α   predicted     0.0000000E+00 (-100.00%)
   displ. norm   :     0.3281607 α      lambda       -0.1786041E-01
   maximum displ.:     0.1831249 α      in ANC's #8, #10, #12, ...

........................................................................
.............................. CYCLE    2 ..............................
........................................................................

 iter      E             dE          RMSdq      gap      omega  full diag
   1    -23.1581001 -0.231581E+02  0.353E-01    3.61       0.0  T
   2    -23.1583429 -0.242727E-03  0.221E-01    3.66       1.0  T
   3    -23.1582845  0.583825E-04  0.119E-01    3.67       1.0  T
   4    -23.1583779 -0.933772E-04  0.460E-02    3.68       1.0  T
   5    -23.1584000 -0.221101E-04  0.851E-03    3.67       3.0  T
   6    -23.1584004 -0.377606E-06  0.464E-03    3.67       5.6  T
   7    -23.1584004 -0.323801E-07  0.115E-03    3.67      22.4  T
   8    -23.1584004 -0.111721E-08  0.457E-04    3.67      56.5  T
   9    -23.1584004 -0.299192E-09  0.126E-04    3.67     205.4  T
     SCC iter.                  ...        0 min,  0.004 sec
     gradient                   ...        0 min,  0.001 sec
 * total energy  :   -22.8880390 Eh     change       -0.1173418E-01 Eh
   gradient norm :     0.0383095 Eh/α   predicted    -0.9891880E-02 ( -15.70%)
   displ. norm   :     0.2733880 α      lambda       -0.4088549E-02
   maximum displ.:     0.2208909 α      in ANC's #8, #3, #21, ...

........................................................................
.............................. CYCLE    3 ..............................
........................................................................

 iter      E             dE          RMSdq      gap      omega  full diag
   1    -23.1706631 -0.231707E+02  0.151E-01    3.74       0.0  T
   2    -23.1707315 -0.683415E-04  0.101E-01    3.77       1.0  T
   3    -23.1707301  0.132991E-05  0.597E-02    3.77       1.0  T
   4    -23.1707482 -0.180598E-04  0.242E-02    3.78       1.1  T
   5    -23.1707528 -0.465151E-05  0.471E-03    3.78       5.5  T
   6    -23.1707529 -0.108836E-06  0.207E-03    3.78      12.5  T
   7    -23.1707530 -0.986117E-08  0.453E-04    3.78      57.0  T
   8    -23.1707530 -0.112610E-09  0.194E-04    3.78     133.4  T
     SCC iter.                  ...        0 min,  0.004 sec
     gradient                   ...        0 min,  0.001 sec
 * total energy  :   -22.8904427 Eh     change       -0.2403738E-02 Eh
   gradient norm :     0.0116769 Eh/α   predicted    -0.2197061E-02 (  -8.60%)
   displ. norm   :     0.1702577 α      lambda       -0.6634411E-03
   maximum displ.:     0.1057829 α      in ANC's #3, #8, #4, ...

........................................................................
.............................. CYCLE    4 ..............................
........................................................................

 iter      E             dE          RMSdq      gap      omega  full diag
   1    -23.1706805 -0.231707E+02  0.625E-02    3.78       0.0  T
   2    -23.1706829 -0.242409E-05  0.390E-02    3.79       1.0  T
   3    -23.1706785  0.440310E-05  0.246E-02    3.78       1.0  T
   4    -23.1706843 -0.578050E-05  0.412E-03    3.79       6.3  T
   5    -23.1706844 -0.153849E-06  0.123E-03    3.79      21.0  T
   6    -23.1706844 -0.371398E-08  0.635E-04    3.79      40.7  T
   7    -23.1706844 -0.870877E-09  0.188E-04    3.79     137.2  T
     SCC iter.                  ...        0 min,  0.003 sec
     gradient                   ...        0 min,  0.001 sec
 * total energy  :   -22.8909049 Eh     change       -0.4621438E-03 Eh
   gradient norm :     0.0067447 Eh/α   predicted    -0.3413332E-03 ( -26.14%)
   displ. norm   :     0.1974657 α      lambda       -0.3730996E-03
   maximum displ.:     0.1451811 α      in ANC's #3, #4, #8, ...

........................................................................
.............................. CYCLE    5 ..............................
........................................................................

 iter      E             dE          RMSdq      gap      omega  full diag
   1    -23.1702618 -0.231703E+02  0.734E-02    3.78       0.0  T
   2    -23.1702629 -0.104975E-05  0.435E-02    3.79       1.0  T
   3    -23.1702592  0.364852E-05  0.193E-02    3.78       1.3  T
   4    -23.1702633 -0.413252E-05  0.336E-03    3.78       7.7  T
   5    -23.1702635 -0.116670E-06  0.107E-03    3.78      24.1  T
   6    -23.1702635 -0.108207E-08  0.530E-04    3.78      48.7  T
   7    -23.1702635 -0.632834E-09  0.110E-04    3.78     234.8  T
     SCC iter.                  ...        0 min,  0.003 sec
     gradient                   ...        0 min,  0.002 sec
 * total energy  :   -22.8911516 Eh     change       -0.2466950E-03 Eh
   gradient norm :     0.0045483 Eh/α   predicted    -0.1938226E-03 ( -21.43%)
   displ. norm   :     0.1479763 α      lambda       -0.1593637E-03
   maximum displ.:     0.1105254 α      in ANC's #3, #4, #2, ...

........................................................................
.............................. CYCLE    6 ..............................
........................................................................

 iter      E             dE          RMSdq      gap      omega  full diag
   1    -23.1705139 -0.231705E+02  0.552E-02    3.78       0.0  T
   2    -23.1705145 -0.645792E-06  0.328E-02    3.78       1.0  T
   3    -23.1705143  0.276184E-06  0.629E-03    3.78       4.1  T
   4    -23.1705146 -0.299274E-06  0.248E-03    3.78      10.4  T
   5    -23.1705146 -0.658361E-07  0.684E-04    3.78      37.8  T
   6    -23.1705146 -0.175776E-08  0.397E-04    3.78      65.1  T
     SCC iter.                  ...        0 min,  0.003 sec
     gradient                   ...        0 min,  0.001 sec
 * total energy  :   -22.8912592 Eh     change       -0.1076143E-03 Eh
   gradient norm :     0.0044994 Eh/α   predicted    -0.8142906E-04 ( -24.33%)
   displ. norm   :     0.1255755 α      lambda       -0.1096916E-03
   maximum displ.:     0.0883197 α      in ANC's #3, #4, #2, ...

........................................................................
.............................. CYCLE    7 ..............................
........................................................................

 iter      E             dE          RMSdq      gap      omega  full diag
   1    -23.1711688 -0.231712E+02  0.465E-02    3.78       0.0  T
   2    -23.1711692 -0.450828E-06  0.278E-02    3.78       1.0  T
   3    -23.1711692  0.235658E-07  0.324E-03    3.78       8.0  T
   4    -23.1711693 -0.675912E-07  0.978E-04    3.78      26.4  T
   5    -23.1711693 -0.515298E-08  0.644E-04    3.78      40.1  T
     SCC iter.                  ...        0 min,  0.002 sec
     gradient                   ...        0 min,  0.001 sec
 * total energy  :   -22.8913244 Eh     change       -0.6525606E-04 Eh
   gradient norm :     0.0041360 Eh/α   predicted    -0.5570826E-04 ( -14.63%)
   displ. norm   :     0.1026813 α      lambda       -0.7146647E-04
   maximum displ.:     0.0619201 α      in ANC's #4, #3, #2, ...

........................................................................
.............................. CYCLE    8 ..............................
........................................................................

 iter      E             dE          RMSdq      gap      omega  full diag
   1    -23.1718313 -0.231718E+02  0.399E-02    3.77       0.0  T
   2    -23.1718317 -0.366094E-06  0.237E-02    3.78       1.1  T
   3    -23.1718317 -0.831085E-08  0.241E-03    3.77      10.7  T
   4    -23.1718317 -0.124563E-07  0.901E-04    3.78      28.7  T
   5    -23.1718317 -0.508238E-08  0.455E-04    3.78      56.7  T
     SCC iter.                  ...        0 min,  0.002 sec
     gradient                   ...        0 min,  0.001 sec
 * total energy  :   -22.8913678 Eh     change       -0.4334241E-04 Eh
   gradient norm :     0.0028424 Eh/α   predicted    -0.3611028E-04 ( -16.69%)
   displ. norm   :     0.0689962 α      lambda       -0.3552375E-04
   maximum displ.:     0.0427548 α      in ANC's #4, #2, #3, ...

........................................................................
.............................. CYCLE    9 ..............................
........................................................................

 iter      E             dE          RMSdq      gap      omega  full diag
   1    -23.1719484 -0.231719E+02  0.322E-02    3.77       0.0  T
   2    -23.1719485 -0.599451E-07  0.191E-02    3.78       1.4  T
   3    -23.1719484  0.613045E-07  0.248E-03    3.77      10.4  T
   4    -23.1719485 -0.724414E-07  0.774E-04    3.78      33.4  T
   5    -23.1719485 -0.568701E-08  0.289E-04    3.78      89.3  T
     SCC iter.                  ...        0 min,  0.002 sec
     gradient                   ...        0 min,  0.001 sec
 * total energy  :   -22.8913939 Eh     change       -0.2608817E-04 Eh
   gradient norm :     0.0016019 Eh/α   predicted    -0.1784536E-04 ( -31.60%)
   displ. norm   :     0.1058379 α      lambda       -0.2918841E-04
   maximum displ.:     0.0704952 α      in ANC's #2, #4, #1, ...

........................................................................
.............................. CYCLE   10 ..............................
........................................................................

 iter      E             dE          RMSdq      gap      omega  full diag
   1    -23.1719148 -0.231719E+02  0.573E-02    3.77       0.0  T
   2    -23.1719149 -0.140440E-06  0.341E-02    3.77       1.0  T
   3    -23.1719147  0.222324E-06  0.449E-03    3.77       5.7  T
   4    -23.1719149 -0.259525E-06  0.116E-03    3.78      22.3  T
   5    -23.1719150 -0.113515E-07  0.506E-04    3.77      51.0  T
   6    -23.1719150 -0.598924E-09  0.175E-04    3.77     147.7  T
     SCC iter.                  ...        0 min,  0.003 sec
     gradient                   ...        0 min,  0.002 sec
 * total energy  :   -22.8914141 Eh     change       -0.2020568E-04 Eh
   gradient norm :     0.0019133 Eh/α   predicted    -0.1466659E-04 ( -27.41%)
   displ. norm   :     0.0373449 α      lambda       -0.9823514E-05
   maximum displ.:     0.0226208 α      in ANC's #2, #3, #4, ...

........................................................................
.............................. CYCLE   11 ..............................
........................................................................

 iter      E             dE          RMSdq      gap      omega  full diag
   1    -23.1719197 -0.231719E+02  0.197E-02    3.78       0.0  T
   2    -23.1719197 -0.131769E-07  0.117E-02    3.77       2.2  T
   3    -23.1719197  0.674094E-08  0.107E-03    3.77      24.1  T
   4    -23.1719197 -0.110896E-07  0.400E-04    3.77      64.5  T
   5    -23.1719198 -0.103011E-08  0.203E-04    3.77     127.3  T
     SCC iter.                  ...        0 min,  0.002 sec
     gradient                   ...        0 min,  0.002 sec
 * total energy  :   -22.8914241 Eh     change       -0.1001969E-04 Eh
   gradient norm :     0.0014252 Eh/α   predicted    -0.4914525E-05 ( -50.95%)
   displ. norm   :     0.0607792 α      lambda       -0.1147219E-04
   maximum displ.:     0.0359925 α      in ANC's #2, #4, #3, ...

........................................................................
.............................. CYCLE   12 ..............................
........................................................................

 iter      E             dE          RMSdq      gap      omega  full diag
   1    -23.1717845 -0.231718E+02  0.296E-02    3.77       0.0  T
   2    -23.1717846 -0.571118E-07  0.175E-02    3.77       1.5  T
   3    -23.1717845  0.980227E-07  0.304E-03    3.77       8.5  T
   4    -23.1717846 -0.111371E-06  0.715E-04    3.77      36.1  T
   5    -23.1717846 -0.484223E-08  0.288E-04    3.77      89.7  T
     SCC iter.                  ...        0 min,  0.002 sec
     gradient                   ...        0 min,  0.001 sec
 * total energy  :   -22.8914334 Eh     change       -0.9306925E-05 Eh
   gradient norm :     0.0008101 Eh/α   predicted    -0.5746042E-05 ( -38.26%)
   displ. norm   :     0.0243294 α      lambda       -0.2956232E-05
   maximum displ.:     0.0194218 α      in ANC's #3, #2, #1, ...

........................................................................
.............................. CYCLE   13 ..............................
........................................................................

 iter      E             dE          RMSdq      gap      omega  full diag
   1    -23.1722683 -0.231723E+02  0.104E-02    3.78       0.0  T
   2    -23.1722684 -0.604282E-07  0.603E-03    3.77       4.3  T
   3    -23.1722684  0.125377E-07  0.163E-03    3.78      15.8  T
   4    -23.1722684 -0.115157E-07  0.785E-04    3.77      32.9  T
   5    -23.1722684 -0.703741E-08  0.194E-04    3.77     132.8  T
     SCC iter.                  ...        0 min,  0.003 sec
     gradient                   ...        0 min,  0.001 sec
 * total energy  :   -22.8914349 Eh     change       -0.1453258E-05 Eh
   gradient norm :     0.0009219 Eh/α   predicted    -0.1477223E-05 (   1.65%)
   displ. norm   :     0.0368317 α      lambda       -0.2459725E-05
   maximum displ.:     0.0235465 α      in ANC's #2, #4, #1, ...

   *** GEOMETRY OPTIMIZATION CONVERGED AFTER 13 ITERATIONS ***

------------------------------------------------------------------------
 total energy gain   :        -0.0151300 Eh       -9.4942 kcal/mol
 total RMSD          :         0.3103445 a0        0.1642 Å
 total power (kW/mol):        -3.0556856 (step) -590.5854 (real)
------------------------------------------------------------------------

 ANCopt (total)                0 d,  0 h,  0 min,  0.067 sec
 optimizer setup                ...        0 min,  0.000 sec (  0.146%)
 model hessian                  ...        0 min,  0.002 sec (  2.239%)
 ANC generation                 ...        0 min,  0.000 sec (  0.436%)
 coordinate transformation      ...        0 min,  0.000 sec (  0.137%)
 single point calculation       ...        0 min,  0.060 sec ( 89.324%)
 optimization log               ...        0 min,  0.003 sec (  4.154%)
 hessian update                 ...        0 min,  0.001 sec (  0.762%)
 rational function              ...        0 min,  0.001 sec (  2.044%)

================
 final structure:
================
15
 xtb: 6.7.1 (edcfbbe)
O            1.12564025575671       -1.06079641103644        0.98231599547815
C            0.89921688246910       -0.16261112568162        0.20925589827418
O           -0.33114569182740        0.17163455717737       -0.19896776715343
C           -1.40796229196920       -0.60069631455700        0.33278143626732
C           -2.70826349008774       -0.07476883714132       -0.24440326199133
C            1.91607932775453        0.71268998031353       -0.41386143725901
C            3.20523537146282        0.56757199478710       -0.14697970368696
H           -1.24994829990549       -1.65316981246793        0.07066840647043
H           -1.39354702774709       -0.51939043147674        1.42574984122169
H           -2.70105080658344       -0.16380369157416       -1.32662774642869
H           -3.54106312025258       -0.64570647199707        0.15392620761362
H           -2.83781304671584        0.97165514064756        0.01671675119727
H            1.53181168517017        1.46296856100922       -1.08798642294426
H            3.96013489215814        1.19426675344905       -0.58962641296606
H            3.53267436031729       -0.19984389145152        0.53562721590707
 
 Bond Distances (Angstroems)
 ---------------------------
O1-C2=1.2065         C2-O1=1.2065         C2-O3=1.3387         C2-C6=1.4793         O3-C2=1.3387         O3-C4=1.4279         
C4-O3=1.4279         C4-C5=1.5167         C4-H8=1.0961         C4-H9=1.0961         C5-C4=1.5167         C5-H10=1.0859        
C5-H11=1.0854        C5-H12=1.0863        C6-C2=1.4793         C6-C7=1.3245         C6-H13=1.0794        C7-C6=1.3245         
C7-H14=1.0764        C7-H15=1.0780        H8-C4=1.0961         H9-C4=1.0961         H10-C5=1.0859        H11-C5=1.0854        
H12-C5=1.0863        H13-C6=1.0794        H14-C7=1.0764        H15-C7=1.0780        
 C  H  Rav=1.0854 sigma=0.0071  Rmin=1.0764  Rmax=1.0961     8
 C  C  Rav=1.4402 sigma=0.0832  Rmin=1.3245  Rmax=1.5167     3
 O  C  Rav=1.3244 sigma=0.0909  Rmin=1.2065  Rmax=1.4279     3
 
 selected bond angles (degree)
 --------------------
O3-C2-O1=123.62                C6-C2-O1=125.55                C6-C2-O3=110.83                C4-O3-C2=116.39                
C5-C4-O3=108.50                H8-C4-O3=108.76                H8-C4-C5=111.44                H9-C4-O3=108.74                
H9-C4-C5=111.41                H9-C4-H8=107.93                H10-C5-C4=110.19               H11-C5-C4=109.62               
H11-C5-H10=109.13              H12-C5-C4=110.17               H12-C5-H10=108.62              H12-C5-H11=109.09              
C7-C6-C2=121.29                H13-C6-C2=115.45               H13-C6-C7=123.27               H14-C7-C6=122.41               
H15-C7-C6=120.08               H15-C7-H14=117.51              
 
 selected dihedral angles (degree)
 ---------------------------------
C4-O3-C2-O1=  0.03            C4-O3-C2-C6=180.03            C5-C4-O3-C2=180.05            H8-C4-O3-C2=301.43            
H9-C4-O3-C2= 58.72            H10-C5-C4-O3= 60.28           H10-C5-C4-H8=300.56           H10-C5-C4-H9=179.95           
H11-C5-C4-O3=180.39           H11-C5-C4-H8= 60.67           H11-C5-C4-H9=300.07           H12-C5-C4-O3=300.44           
H12-C5-C4-H8=180.72           H12-C5-C4-H9= 60.11           C7-C6-C2-O1=359.61            C7-C6-C2-O3=179.60            
H13-C6-C2-O1=179.65           H13-C6-C2-O3=359.64           H14-C7-C6-C2=180.02           H14-C7-C6-H13=  0.00          
H15-C7-C6-C2=  0.00           H15-C7-C6-H13=179.98          
           -------------------------------------------------
          |                Final Singlepoint                |
           -------------------------------------------------

          ...................................................
          :                      SETUP                      :
          :.................................................:
          :  # basis functions                  36          :
          :  # atomic orbitals                  36          :
          :  # shells                           22          :
          :  # electrons                        40          :
          :  max. iterations                   250          :
          :  Hamiltonian                  GFN2-xTB          :
          :  restarted?                      false          :
          :  GBSA solvation                  false          :
          :  PC potential                    false          :
          :  electronic temp.          300.0000000     K    :
          :  accuracy                    1.0000000          :
          :  -> integral cutoff          0.2500000E+02      :
          :  -> integral neglect         0.1000000E-07      :
          :  -> SCF convergence          0.1000000E-05 Eh   :
          :  -> wf. convergence          0.1000000E-03 e    :
          :  Broyden damping             0.4000000          :
          :  net charge                          0          :
          :  unpaired electrons                  0          :
          ...................................................

 iter      E             dE          RMSdq      gap      omega  full diag
   1    -23.1722684 -0.231723E+02  0.883E-05    3.77       0.0  T
   2    -23.1722684 -0.170708E-10  0.516E-05    3.77     500.3  T
   3    -23.1722684 -0.542855E-11  0.368E-05    3.77     702.5  T

   *** convergence criteria satisfied after 3 iterations ***

         #    Occupation            Energy/Eh            Energy/eV
      -------------------------------------------------------------
         1        2.0000           -0.7402764             -20.1439
       ...           ...                  ...                  ...
        14        2.0000           -0.4829456             -13.1416
        15        2.0000           -0.4754383             -12.9373
        16        2.0000           -0.4692904             -12.7700
        17        2.0000           -0.4607148             -12.5367
        18        2.0000           -0.4401815             -11.9779
        19        2.0000           -0.4362938             -11.8722
        20        2.0000           -0.4136441             -11.2558 (HOMO)
        21                         -0.2749225              -7.4810 (LUMO)
        22                         -0.1647257              -4.4824
        23                          0.0089828               0.2444
        24                          0.1032104               2.8085
        25                          0.1283924               3.4937
       ...                                ...                  ...
        36                          0.7071149              19.2416
      -------------------------------------------------------------
                  HL-Gap            0.1387216 Eh            3.7748 eV
             Fermi-level           -0.3442833 Eh           -9.3684 eV

 SCC (total)                   0 d,  0 h,  0 min,  0.003 sec
 SCC setup                      ...        0 min,  0.000 sec (  3.915%)
 Dispersion                     ...        0 min,  0.000 sec (  2.395%)
 classical contributions        ...        0 min,  0.000 sec (  1.178%)
 integral evaluation            ...        0 min,  0.000 sec (  9.572%)
 iterations                     ...        0 min,  0.001 sec ( 46.210%)
 molecular gradient             ...        0 min,  0.001 sec ( 33.962%)
 printout                       ...        0 min,  0.000 sec (  2.106%)

         :::::::::::::::::::::::::::::::::::::::::::::::::::::
         ::                     SUMMARY                     ::
         :::::::::::::::::::::::::::::::::::::::::::::::::::::
         :: total energy             -22.891434862192 Eh    ::
         :: gradient norm              0.000922100240 Eh/a0 ::
         :: HOMO-LUMO gap              3.774807910798 eV    ::
         ::.................................................::
         :: SCC energy               -23.172285227416 Eh    ::
         :: -> isotropic ES            0.045737639591 Eh    ::
         :: -> anisotropic ES          0.000657424288 Eh    ::
         :: -> anisotropic XC          0.007175323909 Eh    ::
         :: -> dispersion             -0.008053162822 Eh    ::
         :: repulsion energy           0.280850365224 Eh    ::
         :: add. restraining           0.000000000000 Eh    ::
         :: total charge              -0.000000000000 e     ::
         :::::::::::::::::::::::::::::::::::::::::::::::::::::

           -------------------------------------------------
          |                Property Printout                |
           -------------------------------------------------

    * Orbital Energies and Occupations

         #    Occupation            Energy/Eh            Energy/eV
      -------------------------------------------------------------
         1        2.0000           -0.7402764             -20.1439
       ...           ...                  ...                  ...
         8        2.0000           -0.5820595             -15.8386
         9        2.0000           -0.5610712             -15.2675
        10        2.0000           -0.5442933             -14.8110
        11        2.0000           -0.5236331             -14.2488
        12        2.0000           -0.5108862             -13.9019
        13        2.0000           -0.4935919             -13.4313
        14        2.0000           -0.4829456             -13.1416
        15        2.0000           -0.4754383             -12.9373
        16        2.0000           -0.4692904             -12.7700
        17        2.0000           -0.4607148             -12.5367
        18        2.0000           -0.4401815             -11.9779
        19        2.0000           -0.4362938             -11.8722
        20        2.0000           -0.4136441             -11.2558 (HOMO)
        21                         -0.2749225              -7.4810 (LUMO)
        22                         -0.1647257              -4.4824
        23                          0.0089828               0.2444
        24                          0.1032104               2.8085
        25                          0.1283924               3.4937
        26                          0.1360919               3.7032
        27                          0.1436656               3.9093
        28                          0.1523064               4.1445
        29                          0.1724080               4.6915
        30                          0.1816633               4.9433
        31                          0.2337312               6.3601
       ...                                ...                  ...
        36                          0.7071149              19.2416
      -------------------------------------------------------------
                  HL-Gap            0.1387216 Eh            3.7748 eV
             Fermi-level           -0.3442833 Eh           -9.3684 eV

     #   Z          covCN         q      C6AA      α(0)
     1   8 O        0.856    -0.415    21.983     6.286
     2   6 C        2.727     0.355    20.978     7.498
     3   8 O        1.705    -0.267    18.430     5.796
     4   6 C        3.702     0.085    19.311     6.284
     5   6 C        3.751    -0.116    22.776     6.806
     6   6 C        2.887    -0.059    29.454     8.898
     7   6 C        2.841    -0.060    29.473     8.897
     8   1 H        0.924     0.051     2.310     2.377
     9   1 H        0.924     0.051     2.311     2.378
    10   1 H        0.925     0.058     2.220     2.330
    11   1 H        0.925     0.052     2.289     2.366
    12   1 H        0.925     0.058     2.219     2.329
    13   1 H        0.926     0.064     2.150     2.293
    14   1 H        0.926     0.063     2.166     2.302
    15   1 H        0.926     0.079     1.993     2.208

 Mol. C6AA /au·bohr⁶  :       2055.438765
 Mol. C8AA /au·bohr⁸  :      45535.549461
 Mol. α(0) /au        :         69.047322


Wiberg/Mayer (AO) data.
largest (>0.10) Wiberg bond orders for each atom

 ---------------------------------------------------------------------------
     #   Z sym  total        # sym  WBO       # sym  WBO       # sym  WBO
 ---------------------------------------------------------------------------
     1   8 O    2.031 --     2 C    1.724     3 O    0.174
     2   6 C    3.920 --     1 O    1.724     3 O    1.124     6 C    1.010
     3   8 O    2.305 --     2 C    1.124     4 C    0.940     1 O    0.174
     4   6 C    3.929 --     5 C    1.020     9 H    0.968     8 H    0.968
                             3 O    0.940
     5   6 C    3.991 --     4 C    1.020    10 H    0.985    12 H    0.985
                            11 H    0.984
     6   6 C    3.988 --     7 C    1.933     2 C    1.010    13 H    0.965
     7   6 C    3.982 --     6 C    1.933    14 H    0.975    15 H    0.970
     8   1 H    0.997 --     4 C    0.968
     9   1 H    0.997 --     4 C    0.968
    10   1 H    0.997 --     5 C    0.985
    11   1 H    0.996 --     5 C    0.984
    12   1 H    0.997 --     5 C    0.985
    13   1 H    0.996 --     6 C    0.965
    14   1 H    0.995 --     7 C    0.975
    15   1 H    0.994 --     7 C    0.970
 ---------------------------------------------------------------------------

Topologies differ in total number of bonds
Writing topology from bond orders to xtbtopo.mol

molecular dipole:
                 x           y           z       tot (Debye)
 q only:       -0.355       0.519      -0.468
   full:       -0.364       0.566      -0.508       2.145
molecular quadrupole (traceless):
                xx          xy          yy          xz          yz          zz
 q only:        7.574       4.452      -3.643      -2.596       1.299      -3.931
  q+dip:        6.518       4.915      -3.117      -3.164       1.563      -3.401
   full:        6.267       5.006      -3.148      -3.398       2.556      -3.119

           -------------------------------------------------
          |                Geometry Summary                 |
           -------------------------------------------------

      molecular mass/u    :      100.1160153
   center of mass at/Å    :        0.3282524      -0.0845475       0.0855395
  moments of inertia/u·Å² :        0.6129891E+02   0.3710137E+03   0.4260069E+03
rotational constants/cm⁻¹ :        0.2750071E+00   0.4543668E-01   0.3957126E-01

 * 13 selected distances

     #   Z          #   Z                                           value/Å
     1   8 O        2   6 C                                       1.2064935
     2   6 C        3   8 O                                       1.3387155
     3   8 O        4   6 C                                       1.4278608
     4   6 C        5   6 C                                       1.5167483 (max)
     6   6 C        7   6 C                                       1.3244654
     4   6 C        8   1 H                                       1.0960713
     4   6 C        9   1 H                                       1.0960833
     5   6 C       10   1 H                                       1.0859048
     5   6 C       11   1 H                                       1.0854453
     5   6 C       12   1 H                                       1.0862643
     6   6 C       13   1 H                                       1.0793629
     7   6 C       14   1 H                                       1.0763624 (min)
     7   6 C       15   1 H                                       1.0780055

 * 3 distinct bonds (by element types)

   Z      Z             #   av. dist./Å        max./Å        min./Å
   1 H    6 C           8     1.0854375     1.0960833     1.0763624
   6 C    6 C           2     1.4206069     1.5167483     1.3244654
   6 C    8 O           3     1.3243566     1.4278608     1.2064935


optimized geometry written to: xtbopt.xyz


           -------------------------------------------------
          | TOTAL ENERGY              -22.891434862192 Eh   |
          | GRADIENT NORM               0.000922100240 Eh/α |
          | HOMO-LUMO GAP               3.774807910798 eV   |
           -------------------------------------------------

------------------------------------------------------------------------
 * finished run on 2025/12/01 at 14:22:16.456     
------------------------------------------------------------------------
 total:
 * wall-time:     0 d,  0 h,  0 min,  0.096 sec
 *  cpu-time:     0 d,  0 h,  0 min,  2.072 sec
 * ratio c/w:    21.605 speedup
 SCF:
 * wall-time:     0 d,  0 h,  0 min,  0.014 sec
 *  cpu-time:     0 d,  0 h,  0 min,  0.311 sec
 * ratio c/w:    22.524 speedup
 ANC optimizer:
 * wall-time:     0 d,  0 h,  0 min,  0.071 sec
 *  cpu-time:     0 d,  0 h,  0 min,  1.630 sec
 * ratio c/w:    22.897 speedup

normal termination of xtb
