      -----------------------------------------------------------      
     |                   =====================                   |     
     |                           x T B                           |     
     |                   =====================                   |     
     |                         S. Grimme                         |     
     |          Mulliken Center for Theoretical Chemistry        |     
     |                    University of Bonn                     |     
      -----------------------------------------------------------      

   * xtb version 6.7.1 (edcfbbe) compiled by 'albert@albert-system' on 2024-07-22

   xtb is free software: you can redistribute it and/or modify it under
   the terms of the GNU Lesser General Public License as published by
   the Free Software Foundation, either version 3 of the License, or
   (at your option) any later version.
   
   xtb is distributed in the hope that it will be useful,
   but WITHOUT ANY WARRANTY; without even the implied warranty of
   MERCHANTABILITY or FITNESS FOR A PARTICULAR PURPOSE.  See the
   GNU Lesser General Public License for more details.
   
   Cite this work as:
   * C. Bannwarth, E. Caldeweyher, S. Ehlert, A. Hansen, P. Pracht,
     J. Seibert, S. Spicher, S. Grimme, WIREs Comput. Mol. Sci., 2020, 11,
     e01493. DOI: 10.1002/wcms.1493
   
   for GFN2-xTB:
   * C. Bannwarth, S. Ehlert and S. Grimme., J. Chem. Theory Comput., 2019,
     15, 1652-1671. DOI: 10.1021/acs.jctc.8b01176
   for GFN1-xTB:
   * S. Grimme, C. Bannwarth, P. Shushkov, J. Chem. Theory Comput., 2017,
     13, 1989-2009. DOI: 10.1021/acs.jctc.7b00118
   for GFN0-xTB:
   * P. Pracht, E. Caldeweyher, S. Ehlert, S. Grimme, ChemRxiv, 2019, preprint.
     DOI: 10.26434/chemrxiv.8326202.v1
   for GFN-FF:
   * S. Spicher and S. Grimme, Angew. Chem. Int. Ed., 2020, 59, 15665-15673.
     DOI: 10.1002/anie.202004239
   
   for ALPB and GBSA implicit solvation:
   * S. Ehlert, M. Stahn, S. Spicher, S. Grimme, J. Chem. Theory Comput.,
     2021, 17, 4250-4261. DOI: 10.1021/acs.jctc.1c00471
   
   for ddCOSMO and CPCM-X implicit solvation:
   * M. Stahn, S. Ehlert, S. Grimme, J. Phys. Chem. A,
     2023, XX, XXXX-XXXX. DOI: 10.1021/acs.jpca.3c04382
   
   for DFT-D4:
   * E. Caldeweyher, C. Bannwarth and S. Grimme, J. Chem. Phys., 2017,
     147, 034112. DOI: 10.1063/1.4993215
   * E. Caldeweyher, S. Ehlert, A. Hansen, H. Neugebauer, S. Spicher,
     C. Bannwarth and S. Grimme, J. Chem. Phys., 2019, 150, 154122.
     DOI: 10.1063/1.5090222
   * E. Caldeweyher, J.-M. Mewes, S. Ehlert and S. Grimme, Phys. Chem. Chem. Phys.
     2020, 22, 8499-8512. DOI: 10.1039/D0CP00502A
   
   for sTDA-xTB:
   * S. Grimme and C. Bannwarth, J. Chem. Phys., 2016, 145, 054103.
     DOI: 10.1063/1.4959605
   
   in the mass-spec context:
   * V. Asgeirsson, C. Bauer and S. Grimme, Chem. Sci., 2017, 8, 4879.
     DOI: 10.1039/c7sc00601b
   * J. Koopman and S. Grimme, ACS Omega 2019, 4, 12, 15120-15133.
     DOI: 10.1021/acsomega.9b02011
   
   for metadynamics refer to:
   * S. Grimme, J. Chem. Theory Comput., 2019, 155, 2847-2862
     DOI: 10.1021/acs.jctc.9b00143
   
   for SPH calculations refer to:
   * S. Spicher and S. Grimme, J. Chem. Theory Comput., 2021, 17, 1701-1714
     DOI: 10.1021/acs.jctc.0c01306
   
   for ONIOM refer to:
   * C. Plett, A. Katbashev, S. Ehlert, S. Grimme, M. Bursch,
     Phys. Chem. Chem. Phys., 2023, 25, 17860-17868. DOI: 10.1039/D3CP02178E
   
   for DIPRO refer to:
   * J. Kohn, N. Gildemeister, S. Grimme, D. Fazzi, A. Hansen,
     J. Chem. Phys., 2023, just accepted.
   
   for PTB refer to:
   * S. Grimme, M. Mueller, A. Hansen, J. Chem. Phys., 2023, 158, 124111.
     DOI: 10.1063/5.0137838
   
   with help from (in alphabetical order)
   P. Atkinson, C. Bannwarth, F. Bohle, G. Brandenburg, E. Caldeweyher
   M. Checinski, S. Dohm, S. Ehlert, S. Ehrlich, I. Gerasimov, C. Hölzer
   A. Katbashev, J. Kohn, J. Koopman, C. Lavigne, S. Lehtola, F. März, M. Müller,
   F. Musil, H. Neugebauer, J. Pisarek, C. Plett, P. Pracht, F. Pultar,
   J. Seibert, P. Shushkov, S. Spicher, M. Stahn, M. Steiner, T. Strunk,
   J. Stückrath, T. Rose, and J. Unsleber
   
 * started run on 2025/12/01 at 14:22:16.830     
   ID    Z sym.   atoms
    1    6 C      1, 2, 4, 6-13
    2    8 O      3, 5
    3    1 H      14-25

           -------------------------------------------------
          |                Calculation Setup                |
           -------------------------------------------------

          program call               : xtb pipeline_data/3_conformer_xyz/acrylates/rdkit/KBEBGUQPQBELIU-CMDGGOBGSA-N_conf38.xyz --opt --gfn 2-xTB --iterations 250
          coordinate file            : pipeline_data/3_conformer_xyz/acrylates/rdkit/KBEBGUQPQBELIU-CMDGGOBGSA-N_conf38.xyz
          omp threads                :                    24

########################################################################
[WARNING] Please study the warnings concerning your input carefully
-1- readin_getIntValue: could not parse '2-xTB'
########################################################################

           -------------------------------------------------
          |                 G F N 2 - x T B                 |
           -------------------------------------------------

        Reference                      10.1021/acs.jctc.8b01176
      * Hamiltonian:
        H0-scaling (s, p, d)           1.850000    2.230000    2.230000
        zeta-weighting                 0.500000
      * Dispersion:
        s8                             2.700000
        a1                             0.520000
        a2                             5.000000
        s9                             5.000000
      * Repulsion:
        kExp                           1.500000    1.000000
        rExp                           1.000000
      * Coulomb:
        alpha                          2.000000
        third order                    shell-resolved
        anisotropic                    true
        a3                             3.000000
        a5                             4.000000
        cn-shift                       1.200000
        cn-exp                         4.000000
        max-rad                        5.000000

q/qsh data taken from xtbrestart
CAMM data taken from xtbrestart

          ...................................................
          :                      SETUP                      :
          :.................................................:
          :  # basis functions                  64          :
          :  # atomic orbitals                  64          :
          :  # shells                           38          :
          :  # electrons                        68          :
          :  max. iterations                   250          :
          :  Hamiltonian                  GFN2-xTB          :
          :  restarted?                       true          :
          :  GBSA solvation                  false          :
          :  PC potential                    false          :
          :  electronic temp.          300.0000000     K    :
          :  accuracy                    1.0000000          :
          :  -> integral cutoff          0.2500000E+02      :
          :  -> integral neglect         0.1000000E-07      :
          :  -> SCF convergence          0.1000000E-05 Eh   :
          :  -> wf. convergence          0.1000000E-03 e    :
          :  Broyden damping             0.4000000          :
          :  net charge                          0          :
          :  unpaired electrons                  0          :
          ...................................................

 iter      E             dE          RMSdq      gap      omega  full diag
   1    -38.3226653 -0.383227E+02  0.524E+00    3.19       0.0  T
   2    -38.3272680 -0.460273E-02  0.313E+00    3.11       1.0  T
   3    -38.3261619  0.110612E-02  0.340E-01    3.11       1.0  T
   4    -38.3282480 -0.208608E-02  0.138E-01    3.07       1.0  T
   5    -38.3284108 -0.162770E-03  0.778E-02    3.07       1.0  T
   6    -38.3284426 -0.318433E-04  0.316E-02    3.07       1.0  T
   7    -38.3284520 -0.944976E-05  0.913E-03    3.07       2.2  T
   8    -38.3284530 -0.967333E-06  0.387E-03    3.07       5.2  T
   9    -38.3284531 -0.103825E-06  0.184E-03    3.07      10.9  T
  10    -38.3284531 -0.331358E-07  0.544E-04    3.07      36.7  T
  11    -38.3284531 -0.630216E-09  0.186E-04    3.07     107.5  T

   *** convergence criteria satisfied after 11 iterations ***

         #    Occupation            Energy/Eh            Energy/eV
      -------------------------------------------------------------
         1        2.0000           -0.7230970             -19.6765
       ...           ...                  ...                  ...
        28        2.0000           -0.4490782             -12.2200
        29        2.0000           -0.4359478             -11.8627
        30        2.0000           -0.4288418             -11.6694
        31        2.0000           -0.4272913             -11.6272
        32        2.0000           -0.4164193             -11.3313
        33        2.0000           -0.4082923             -11.1102
        34        2.0000           -0.4023789             -10.9493 (HOMO)
        35                         -0.2894920              -7.8775 (LUMO)
        36                         -0.2326142              -6.3298
        37                         -0.2194492              -5.9715
        38                         -0.1599118              -4.3514
        39                         -0.0827361              -2.2514
       ...                                ...                  ...
        64                          0.7132219              19.4078
      -------------------------------------------------------------
                  HL-Gap            0.1128869 Eh            3.0718 eV
             Fermi-level           -0.3459354 Eh           -9.4134 eV

 SCC (total)                   0 d,  0 h,  0 min,  0.052 sec
 SCC setup                      ...        0 min,  0.000 sec (  0.424%)
 Dispersion                     ...        0 min,  0.000 sec (  0.542%)
 classical contributions        ...        0 min,  0.000 sec (  0.108%)
 integral evaluation            ...        0 min,  0.001 sec (  2.827%)
 iterations                     ...        0 min,  0.044 sec ( 85.535%)
 molecular gradient             ...        0 min,  0.005 sec ( 10.143%)
 printout                       ...        0 min,  0.000 sec (  0.354%)

         :::::::::::::::::::::::::::::::::::::::::::::::::::::
         ::                     SUMMARY                     ::
         :::::::::::::::::::::::::::::::::::::::::::::::::::::
         :: total energy             -37.764405618994 Eh    ::
         :: gradient norm              0.118227882182 Eh/a0 ::
         :: HOMO-LUMO gap              3.071809850381 eV    ::
         ::.................................................::
         :: SCC energy               -38.328638372539 Eh    ::
         :: -> isotropic ES            0.050018467694 Eh    ::
         :: -> anisotropic ES          0.000637299473 Eh    ::
         :: -> anisotropic XC          0.016566478842 Eh    ::
         :: -> dispersion             -0.019428558847 Eh    ::
         :: repulsion energy           0.564232753545 Eh    ::
         :: add. restraining           0.000000000000 Eh    ::
         :: total charge              -0.000000000000 e     ::
         :::::::::::::::::::::::::::::::::::::::::::::::::::::

      ----------------------------------------------------------- 
     |                   =====================                   |
     |                        A N C O P T                        |
     |                   =====================                   |
     |               Approximate Normal Coordinate               |
     |                Rational Function Optimizer                |
      ----------------------------------------------------------- 
      ----------------------------------------------------------- 
     |                   =====================                   |
     |                        A N C O P T                        |
     |                   =====================                   |
     |               Approximate Normal Coordinate               |
     |                Rational Function Optimizer                |
      ----------------------------------------------------------- 

          ...................................................
          :                      SETUP                      :
          :.................................................:
          :   optimization level            normal          :
          :   max. optcycles                   200          :
          :   ANC micro-cycles                  20          :
          :   degrees of freedom                69          :
          :.................................................:
          :   RF solver                   davidson          :
          :   write xtbopt.log                true          :
          :   linear?                        false          :
          :   energy convergence         0.5000000E-05 Eh   :
          :   grad. convergence          0.1000000E-02 Eh/α :
          :   maxmium RF displ.          1.0000000          :
          :   Hlow (freq-cutoff)         0.1000000E-01      :
          :   Hmax (freq-cutoff)         5.0000000          :
          :   S6 in model hess.         20.0000000          :
          ...................................................

generating ANC from exact Hessian ...
Using Lindh-Hessian (1995)
 Shifting diagonal of input Hessian by   9.291169811263683E-003
 Lowest  eigenvalues of input Hessian
    0.000000    0.000000    0.000000    0.000000    0.000000    0.000000
    0.010000    0.010535    0.010581    0.013220    0.013858    0.016308
    0.018638    0.021360    0.022499    0.025372    0.030413    0.033063
 Highest eigenvalues
    1.724968    1.917659    1.979646    2.070434    2.136146    2.141145
 

........................................................................
.............................. CYCLE    1 ..............................
........................................................................

 iter      E             dE          RMSdq      gap      omega  full diag
   1    -38.3284531 -0.383285E+02  0.647E-05    3.07       0.0  T
   2    -38.3284531 -0.219416E-10  0.411E-05    3.07     486.1  T
   3    -38.3284531 -0.135500E-10  0.244E-05    3.07     818.3  T
     SCC iter.                  ...        0 min,  0.007 sec
     gradient                   ...        0 min,  0.003 sec
 * total energy  :   -37.7644056 Eh     change       -0.1279687E-09 Eh
   gradient norm :     0.1182293 Eh/α   predicted     0.0000000E+00 (-100.00%)
   displ. norm   :     0.3447674 α      lambda       -0.2086702E-01
   maximum displ.:     0.1632527 α      in ANC's #18, #29, #16, ...

........................................................................
.............................. CYCLE    2 ..............................
........................................................................

 iter      E             dE          RMSdq      gap      omega  full diag
   1    -38.3446027 -0.383446E+02  0.316E-01    3.05       0.0  T
   2    -38.3447699 -0.167199E-03  0.199E-01    3.03       1.0  T
   3    -38.3446201  0.149824E-03  0.909E-02    3.03       1.0  T
   4    -38.3448035 -0.183428E-03  0.295E-02    3.03       1.0  T
   5    -38.3448210 -0.175267E-04  0.674E-03    3.03       3.0  T
   6    -38.3448215 -0.436183E-06  0.316E-03    3.03       6.3  T
   7    -38.3448215 -0.693643E-07  0.148E-03    3.03      13.5  T
   8    -38.3448216 -0.236428E-07  0.497E-04    3.03      40.2  T
   9    -38.3448216 -0.130506E-08  0.197E-04    3.03     101.3  T
     SCC iter.                  ...        0 min,  0.020 sec
     gradient                   ...        0 min,  0.004 sec
 * total energy  :   -37.7785132 Eh     change       -0.1410760E-01 Eh
   gradient norm :     0.0436660 Eh/α   predicted    -0.1168060E-01 ( -17.20%)
   displ. norm   :     0.2953302 α      lambda       -0.5826353E-02
   maximum displ.:     0.1438721 α      in ANC's #13, #16, #9, ...

........................................................................
.............................. CYCLE    3 ..............................
........................................................................

 iter      E             dE          RMSdq      gap      omega  full diag
   1    -38.3530288 -0.383530E+02  0.178E-01    3.03       0.0  T
   2    -38.3530962 -0.674113E-04  0.114E-01    3.02       1.0  T
   3    -38.3530385  0.576560E-04  0.630E-02    3.02       1.0  T
   4    -38.3531153 -0.767856E-04  0.197E-02    3.02       1.0  T
   5    -38.3531221 -0.681114E-05  0.459E-03    3.02       4.4  T
   6    -38.3531224 -0.225388E-06  0.207E-03    3.02       9.7  T
   7    -38.3531224 -0.441748E-07  0.945E-04    3.02      21.2  T
   8    -38.3531224 -0.857077E-08  0.333E-04    3.02      60.1  T
     SCC iter.                  ...        0 min,  0.017 sec
     gradient                   ...        0 min,  0.003 sec
 * total energy  :   -37.7818940 Eh     change       -0.3380743E-02 Eh
   gradient norm :     0.0136190 Eh/α   predicted    -0.3169273E-02 (  -6.26%)
   displ. norm   :     0.1382780 α      lambda       -0.7065677E-03
   maximum displ.:     0.0793155 α      in ANC's #13, #9, #14, ...

........................................................................
.............................. CYCLE    4 ..............................
........................................................................

 iter      E             dE          RMSdq      gap      omega  full diag
   1    -38.3549990 -0.383550E+02  0.671E-02    3.03       0.0  T
   2    -38.3550049 -0.589961E-05  0.409E-02    3.03       1.0  T
   3    -38.3549999  0.505676E-05  0.179E-02    3.03       1.1  T
   4    -38.3550049 -0.504229E-05  0.659E-03    3.03       3.0  T
   5    -38.3550059 -0.100274E-05  0.874E-04    3.03      22.9  T
   6    -38.3550059 -0.251258E-08  0.472E-04    3.03      42.3  T
   7    -38.3550059 -0.173078E-08  0.182E-04    3.03     109.7  T
     SCC iter.                  ...        0 min,  0.015 sec
     gradient                   ...        0 min,  0.003 sec
 * total energy  :   -37.7823129 Eh     change       -0.4189113E-03 Eh
   gradient norm :     0.0077367 Eh/α   predicted    -0.3600505E-03 ( -14.05%)
   displ. norm   :     0.0787227 α      lambda       -0.2024101E-03
   maximum displ.:     0.0383359 α      in ANC's #13, #4, #14, ...

........................................................................
.............................. CYCLE    5 ..............................
........................................................................

 iter      E             dE          RMSdq      gap      omega  full diag
   1    -38.3567207 -0.383567E+02  0.441E-02    3.04       0.0  T
   2    -38.3567218 -0.112815E-05  0.263E-02    3.04       1.0  T
   3    -38.3567214  0.475143E-06  0.553E-03    3.04       3.6  T
   4    -38.3567218 -0.412045E-06  0.271E-03    3.04       7.4  T
   5    -38.3567219 -0.169811E-06  0.529E-04    3.04      37.8  T
   6    -38.3567219 -0.559204E-09  0.340E-04    3.04      58.9  T
     SCC iter.                  ...        0 min,  0.013 sec
     gradient                   ...        0 min,  0.004 sec
 * total energy  :   -37.7824072 Eh     change       -0.9429459E-04 Eh
   gradient norm :     0.0031844 Eh/α   predicted    -0.1018638E-03 (   8.03%)
   displ. norm   :     0.0226472 α      lambda       -0.3801290E-04
   maximum displ.:     0.0099260 α      in ANC's #3, #8, #4, ...

........................................................................
.............................. CYCLE    6 ..............................
........................................................................

 iter      E             dE          RMSdq      gap      omega  full diag
   1    -38.3572816 -0.383573E+02  0.177E-02    3.05       0.0  T
   2    -38.3572817 -0.616300E-07  0.107E-02    3.05       1.9  T
   3    -38.3572814  0.250295E-06  0.316E-03    3.05       6.3  T
   4    -38.3572817 -0.280732E-06  0.543E-04    3.05      36.8  T
   5    -38.3572817 -0.303667E-08  0.296E-04    3.05      67.6  T
     SCC iter.                  ...        0 min,  0.009 sec
     gradient                   ...        0 min,  0.002 sec
 * total energy  :   -37.7824290 Eh     change       -0.2186644E-04 Eh
   gradient norm :     0.0011848 Eh/α   predicted    -0.1902046E-04 ( -13.02%)
   displ. norm   :     0.0333424 α      lambda       -0.8298429E-05
   maximum displ.:     0.0168723 α      in ANC's #3, #4, #2, ...

........................................................................
.............................. CYCLE    7 ..............................
........................................................................

 iter      E             dE          RMSdq      gap      omega  full diag
   1    -38.3571055 -0.383571E+02  0.126E-02    3.05       0.0  T
   2    -38.3571056 -0.597037E-07  0.761E-03    3.05       2.6  T
   3    -38.3571055  0.128377E-06  0.247E-03    3.05       8.1  T
   4    -38.3571056 -0.139219E-06  0.614E-04    3.05      32.6  T
   5    -38.3571056 -0.741662E-08  0.180E-04    3.05     111.1  T
     SCC iter.                  ...        0 min,  0.006 sec
     gradient                   ...        0 min,  0.005 sec
 * total energy  :   -37.7824372 Eh     change       -0.8161778E-05 Eh
   gradient norm :     0.0008835 Eh/α   predicted    -0.4163022E-05 ( -48.99%)
   displ. norm   :     0.0447921 α      lambda       -0.5907272E-05
   maximum displ.:     0.0247813 α      in ANC's #3, #4, #7, ...

........................................................................
.............................. CYCLE    8 ..............................
........................................................................

 iter      E             dE          RMSdq      gap      omega  full diag
   1    -38.3568125 -0.383568E+02  0.129E-02    3.05       0.0  T
   2    -38.3568125 -0.197775E-07  0.769E-03    3.05       2.6  T
   3    -38.3568125  0.163876E-07  0.101E-03    3.05      19.8  T
   4    -38.3568125 -0.218036E-07  0.317E-04    3.05      63.0  T
   5    -38.3568125 -0.112298E-08  0.161E-04    3.05     123.8  T
     SCC iter.                  ...        0 min,  0.007 sec
     gradient                   ...        0 min,  0.003 sec
 * total energy  :   -37.7824438 Eh     change       -0.6602560E-05 Eh
   gradient norm :     0.0007949 Eh/α   predicted    -0.2962404E-05 ( -55.13%)
   displ. norm   :     0.0635421 α      lambda       -0.5900656E-05
   maximum displ.:     0.0354301 α      in ANC's #3, #7, #4, ...

........................................................................
.............................. CYCLE    9 ..............................
........................................................................

 iter      E             dE          RMSdq      gap      omega  full diag
   1    -38.3567614 -0.383568E+02  0.153E-02    3.05       0.0  T
   2    -38.3567615 -0.153520E-07  0.914E-03    3.05       2.2  T
   3    -38.3567614  0.203799E-07  0.107E-03    3.05      18.6  T
   4    -38.3567615 -0.282352E-07  0.338E-04    3.05      59.1  T
   5    -38.3567615 -0.505885E-09  0.190E-04    3.05     105.5  T
     SCC iter.                  ...        0 min,  0.013 sec
     gradient                   ...        0 min,  0.003 sec
 * total energy  :   -37.7824503 Eh     change       -0.6464962E-05 Eh
   gradient norm :     0.0008000 Eh/α   predicted    -0.2957400E-05 ( -54.25%)
   displ. norm   :     0.0597900 α      lambda       -0.4206529E-05
   maximum displ.:     0.0341695 α      in ANC's #3, #7, #2, ...

........................................................................
.............................. CYCLE   10 ..............................
........................................................................

 iter      E             dE          RMSdq      gap      omega  full diag
   1    -38.3568360 -0.383568E+02  0.137E-02    3.04       0.0  T
   2    -38.3568361 -0.343622E-07  0.820E-03    3.04       2.4  T
   3    -38.3568361  0.837264E-08  0.873E-04    3.04      22.9  T
   4    -38.3568361 -0.124402E-07  0.405E-04    3.04      49.4  T
     SCC iter.                  ...        0 min,  0.010 sec
     gradient                   ...        0 min,  0.006 sec
 * total energy  :   -37.7824547 Eh     change       -0.4428153E-05 Eh
   gradient norm :     0.0005631 Eh/α   predicted    -0.2106951E-05 ( -52.42%)
   displ. norm   :     0.0401300 α      lambda       -0.2137705E-05
   maximum displ.:     0.0231152 α      in ANC's #3, #2, #7, ...

   *** GEOMETRY OPTIMIZATION CONVERGED AFTER 10 ITERATIONS ***

------------------------------------------------------------------------
 total energy gain   :        -0.0180491 Eh      -11.3260 kcal/mol
 total RMSD          :         0.1646093 a0        0.0871 Å
 total power (kW/mol):        -4.7387834 (step) -260.4069 (real)
------------------------------------------------------------------------

 ANCopt (total)                0 d,  0 h,  0 min,  0.182 sec
 optimizer setup                ...        0 min,  0.000 sec (  0.065%)
 model hessian                  ...        0 min,  0.004 sec (  2.227%)
 ANC generation                 ...        0 min,  0.001 sec (  0.459%)
 coordinate transformation      ...        0 min,  0.000 sec (  0.070%)
 single point calculation       ...        0 min,  0.169 sec ( 92.898%)
 optimization log               ...        0 min,  0.002 sec (  0.997%)
 hessian update                 ...        0 min,  0.005 sec (  2.613%)
 rational function              ...        0 min,  0.001 sec (  0.411%)

================
 final structure:
================
25
 xtb: 6.7.1 (edcfbbe)
C            5.08395372169034        0.12536861759707        0.49138902964283
C            4.04412734687863       -0.56716845361950       -0.36927106162995
O            2.75311682507203       -0.10511961448849        0.02338598067472
C            1.70629583924186       -0.64429806225267       -0.62183557816961
O            1.81858097465992       -1.47801697190146       -1.48988574057411
C            0.44138927126818       -0.08374999325969       -0.12902465039666
C           -0.72526048293316       -0.48228997605722       -0.65137431218577
C           -2.05364327846514       -0.02945499544864       -0.29015577816031
C           -2.28383609007976        0.93800885536291        0.69218132232529
C           -3.56918868671986        1.34061498563354        0.99540655524845
C           -4.65185717224436        0.78864173669118        0.32815693410233
C           -4.44069890825945       -0.17303163722317       -0.64654766647828
C           -3.15600572637458       -0.57759987119641       -0.95252971243312
H            5.01706937641873        1.20272834522312        0.36390035648871
H            4.91978742077829       -0.11075783779701        1.53944424089861
H            6.07737781819043       -0.20631861195515        0.20295021595926
H            4.08267613751282       -1.65586481562838       -0.24668299184881
H            4.19162869065285       -0.34273562157280       -1.43213851711062
H            0.53458719052185        0.64870937884800        0.65636524016823
H           -0.67679765305528       -1.22798134208148       -1.43688821689185
H           -1.45063223741852        1.37643859325960        1.21863417618590
H           -3.73186960485246        2.09011101560774        1.75613108692150
H           -5.65535828843866        1.10775522643232        0.56769478078175
H           -5.28116575381077       -0.60653118400231       -1.16844350141380
H           -2.99427573023393       -1.32745776617108       -1.71351519210469
 
 Bond Distances (Angstroems)
 ---------------------------
C1-C2=1.5171         C1-H14=1.0869        C1-H15=1.0868        C1-H16=1.0863        C2-C1=1.5171         C2-O3=1.4263         
C2-H17=1.0963        C2-H18=1.0963        O3-C2=1.4263         O3-C4=1.3427         C4-O3=1.3427         C4-O5=1.2088         
C4-C6=1.4687         O5-C4=1.2088         C6-C4=1.4687         C6-C7=1.3389         C6-H19=1.0780        C7-C6=1.3389         
C7-C8=1.4492         C7-H20=1.0842        C8-C7=1.4492         C8-C9=1.3978         C8-C13=1.3980        C9-C8=1.3978         
C9-C10=1.3806        C9-H21=1.0787        C10-C9=1.3806        C10-C11=1.3864       C10-H22=1.0802       C11-C10=1.3864       
C11-C12=1.3854       C11-H23=1.0799       C12-C11=1.3854       C12-C13=1.3812       C12-H24=1.0801       C13-C8=1.3980        
C13-C12=1.3812       C13-H25=1.0805       H14-C1=1.0869        H15-C1=1.0868        H16-C1=1.0863        H17-C2=1.0963        
H18-C2=1.0963        H19-C6=1.0780        H20-C7=1.0842        H21-C9=1.0787        H22-C10=1.0802       H23-C11=1.0799       
H24-C12=1.0801       H25-C13=1.0805       
 C  H  Rav=1.0845 sigma=0.0061  Rmin=1.0780  Rmax=1.0963    12
 C  C  Rav=1.4103 sigma=0.0496  Rmin=1.3389  Rmax=1.5171    10
 O  C  Rav=1.3259 sigma=0.0896  Rmin=1.2088  Rmax=1.4263     3
 
 selected bond angles (degree)
 --------------------
H14-C1-C2=110.11               H15-C1-C2=110.14               H15-C1-H14=108.61              H16-C1-C2=109.68               
H16-C1-H14=109.13              H16-C1-H15=109.14              O3-C2-C1=108.44                H17-C2-C1=111.46               
H17-C2-O3=108.83               H18-C2-C1=111.37               H18-C2-O3=108.81               H18-C2-H17=107.88              
C4-O3-C2=116.31                O5-C4-O3=123.34                C6-C4-O3=110.91                C6-C4-O5=125.75                
C7-C6-C4=120.39                H19-C6-C4=115.43               H19-C6-C7=124.18               C8-C7-C6=127.48                
H20-C7-C6=116.64               H20-C7-C8=115.88               C9-C8-C7=122.85                C13-C8-C7=118.83               
C13-C8-C9=118.33               C10-C9-C8=120.63               H21-C9-C8=119.81               H21-C9-C10=119.56              
C11-C10-C9=120.35              H22-C10-C9=119.81              H22-C10-C11=119.84             
 
 selected dihedral angles (degree)
 ---------------------------------
O3-C2-C1-H14=300.58           O3-C2-C1-H15= 60.34           O3-C2-C1-H16=180.47           H17-C2-C1-H14=180.81          
H17-C2-C1-H15=300.56          H17-C2-C1-H16= 60.70          H18-C2-C1-H14= 60.28          H18-C2-C1-H15=180.03          
H18-C2-C1-H16=300.17          C4-O3-C2-C1=181.48            C4-O3-C2-H17=302.89           C4-O3-C2-H18= 60.20           
O5-C4-O3-C2=  0.11            C6-C4-O3-C2=180.16            C7-C6-C4-O3=179.46            C7-C6-C4-O5=359.51            
H19-C6-C4-O3=359.62           H19-C6-C4-O5=179.67           C8-C7-C6-C4=180.39            C8-C7-C6-H19=  0.22           
H20-C7-C6-C4=  0.25           H20-C7-C6-H19=180.08          C9-C8-C7-C6=  0.59            C9-C8-C7-H20=180.73           
C13-C8-C7-C6=180.39           C13-C8-C7-H20=  0.53          C10-C9-C8-C7=179.68           C10-C9-C8-C13=359.88          
H21-C9-C8-C7=359.76           H21-C9-C8-C13=179.97          C11-C10-C9-C8=  0.03          C11-C10-C9-H21=179.95         
H22-C10-C9-C8=180.07          H22-C10-C9-H21=  0.00         
           -------------------------------------------------
          |                Final Singlepoint                |
           -------------------------------------------------

          ...................................................
          :                      SETUP                      :
          :.................................................:
          :  # basis functions                  64          :
          :  # atomic orbitals                  64          :
          :  # shells                           38          :
          :  # electrons                        68          :
          :  max. iterations                   250          :
          :  Hamiltonian                  GFN2-xTB          :
          :  restarted?                      false          :
          :  GBSA solvation                  false          :
          :  PC potential                    false          :
          :  electronic temp.          300.0000000     K    :
          :  accuracy                    1.0000000          :
          :  -> integral cutoff          0.2500000E+02      :
          :  -> integral neglect         0.1000000E-07      :
          :  -> SCF convergence          0.1000000E-05 Eh   :
          :  -> wf. convergence          0.1000000E-03 e    :
          :  Broyden damping             0.4000000          :
          :  net charge                          0          :
          :  unpaired electrons                  0          :
          ...................................................

 iter      E             dE          RMSdq      gap      omega  full diag
   1    -38.3568361 -0.383568E+02  0.184E-04    3.04       0.0  T
   2    -38.3568361 -0.330473E-10  0.137E-04    3.04     146.1  T
   3    -38.3568361 -0.158437E-09  0.823E-05    3.04     243.1  T

   *** convergence criteria satisfied after 3 iterations ***

         #    Occupation            Energy/Eh            Energy/eV
      -------------------------------------------------------------
         1        2.0000           -0.7334553             -19.9583
       ...           ...                  ...                  ...
        28        2.0000           -0.4474590             -12.1760
        29        2.0000           -0.4365570             -11.8793
        30        2.0000           -0.4328783             -11.7792
        31        2.0000           -0.4281906             -11.6517
        32        2.0000           -0.4149055             -11.2902
        33        2.0000           -0.4079587             -11.1011
        34        2.0000           -0.3981507             -10.8342 (HOMO)
        35                         -0.2862549              -7.7894 (LUMO)
        36                         -0.2319048              -6.3105
        37                         -0.2132690              -5.8033
        38                         -0.1535660              -4.1787
        39                         -0.0861158              -2.3433
       ...                                ...                  ...
        64                          0.7194256              19.5766
      -------------------------------------------------------------
                  HL-Gap            0.1118958 Eh            3.0448 eV
             Fermi-level           -0.3422028 Eh           -9.3118 eV

 SCC (total)                   0 d,  0 h,  0 min,  0.010 sec
 SCC setup                      ...        0 min,  0.000 sec (  0.928%)
 Dispersion                     ...        0 min,  0.000 sec (  1.203%)
 classical contributions        ...        0 min,  0.000 sec (  0.533%)
 integral evaluation            ...        0 min,  0.001 sec (  6.857%)
 iterations                     ...        0 min,  0.007 sec ( 64.321%)
 molecular gradient             ...        0 min,  0.003 sec ( 24.751%)
 printout                       ...        0 min,  0.000 sec (  1.172%)

         :::::::::::::::::::::::::::::::::::::::::::::::::::::
         ::                     SUMMARY                     ::
         :::::::::::::::::::::::::::::::::::::::::::::::::::::
         :: total energy             -37.782454694614 Eh    ::
         :: gradient norm              0.000562307570 Eh/a0 ::
         :: HOMO-LUMO gap              3.044838341995 eV    ::
         ::.................................................::
         :: SCC energy               -38.357023147377 Eh    ::
         :: -> isotropic ES            0.047827711354 Eh    ::
         :: -> anisotropic ES          0.001185492691 Eh    ::
         :: -> anisotropic XC          0.016138057294 Eh    ::
         :: -> dispersion             -0.019509463695 Eh    ::
         :: repulsion energy           0.574568452763 Eh    ::
         :: add. restraining           0.000000000000 Eh    ::
         :: total charge               0.000000000000 e     ::
         :::::::::::::::::::::::::::::::::::::::::::::::::::::

           -------------------------------------------------
          |                Property Printout                |
           -------------------------------------------------

    * Orbital Energies and Occupations

         #    Occupation            Energy/Eh            Energy/eV
      -------------------------------------------------------------
         1        2.0000           -0.7334553             -19.9583
       ...           ...                  ...                  ...
        22        2.0000           -0.4866014             -13.2411
        23        2.0000           -0.4842181             -13.1762
        24        2.0000           -0.4790991             -13.0370
        25        2.0000           -0.4709015             -12.8139
        26        2.0000           -0.4642132             -12.6319
        27        2.0000           -0.4560988             -12.4111
        28        2.0000           -0.4474590             -12.1760
        29        2.0000           -0.4365570             -11.8793
        30        2.0000           -0.4328783             -11.7792
        31        2.0000           -0.4281906             -11.6517
        32        2.0000           -0.4149055             -11.2902
        33        2.0000           -0.4079587             -11.1011
        34        2.0000           -0.3981507             -10.8342 (HOMO)
        35                         -0.2862549              -7.7894 (LUMO)
        36                         -0.2319048              -6.3105
        37                         -0.2132690              -5.8033
        38                         -0.1535660              -4.1787
        39                         -0.0861158              -2.3433
        40                          0.0146505               0.3987
        41                          0.1017801               2.7696
        42                          0.1089706               2.9652
        43                          0.1149266               3.1273
        44                          0.1213788               3.3029
        45                          0.1435831               3.9071
       ...                                ...                  ...
        64                          0.7194256              19.5766
      -------------------------------------------------------------
                  HL-Gap            0.1118958 Eh            3.0448 eV
             Fermi-level           -0.3422028 Eh           -9.3118 eV

     #   Z          covCN         q      C6AA      α(0)
     1   6 C        3.751    -0.115    22.761     6.804
     2   6 C        3.702     0.087    19.287     6.280
     3   8 O        1.706    -0.273    18.524     5.811
     4   6 C        2.728     0.351    21.032     7.508
     5   8 O        0.856    -0.427    22.227     6.321
     6   6 C        2.892    -0.072    29.802     8.950
     7   6 C        2.907    -0.012    28.320     8.726
     8   6 C        2.970     0.017    27.622     8.621
     9   6 C        2.923    -0.029    28.715     8.788
    10   6 C        2.917    -0.028    28.689     8.783
    11   6 C        2.920    -0.025    28.636     8.775
    12   6 C        2.917    -0.027    28.684     8.783
    13   6 C        2.928    -0.029    28.723     8.789
    14   1 H        0.925     0.057     2.231     2.336
    15   1 H        0.925     0.057     2.234     2.338
    16   1 H        0.925     0.051     2.309     2.376
    17   1 H        0.924     0.049     2.327     2.385
    18   1 H        0.924     0.049     2.339     2.392
    19   1 H        0.926     0.059     2.207     2.323
    20   1 H        0.925     0.069     2.096     2.264
    21   1 H        0.926     0.040     2.447     2.446
    22   1 H        0.926     0.036     2.503     2.474
    23   1 H        0.926     0.036     2.498     2.472
    24   1 H        0.926     0.037     2.495     2.470
    25   1 H        0.926     0.041     2.437     2.441

 Mol. C6AA /au·bohr⁶  :       7019.097328
 Mol. C8AA /au·bohr⁸  :     166300.782679
 Mol. α(0) /au        :        131.655209


Wiberg/Mayer (AO) data.
largest (>0.10) Wiberg bond orders for each atom

 ---------------------------------------------------------------------------
     #   Z sym  total        # sym  WBO       # sym  WBO       # sym  WBO
 ---------------------------------------------------------------------------
     1   6 C    3.992 --     2 C    1.019    15 H    0.986    14 H    0.985
                            16 H    0.984
     2   6 C    3.931 --     1 C    1.019    18 H    0.968    17 H    0.968
                             3 O    0.943
     3   8 O    2.291 --     4 C    1.112     2 C    0.943     5 O    0.168
     4   6 C    3.919 --     5 O    1.706     3 O    1.112     6 C    1.036
     5   8 O    2.015 --     4 C    1.706     3 O    0.168
     6   6 C    3.987 --     7 C    1.777     4 C    1.036    19 H    0.961
     7   6 C    3.982 --     6 C    1.777     8 C    1.116    20 H    0.957
     8   6 C    3.990 --    13 C    1.365     9 C    1.362     7 C    1.116
     9   6 C    3.992 --    10 C    1.466     8 C    1.362    21 H    0.966
                            12 C    0.105
    10   6 C    3.992 --     9 C    1.466    11 C    1.425    22 H    0.971
                            13 C    0.103
    11   6 C    3.983 --    12 C    1.431    10 C    1.425    23 H    0.971
    12   6 C    3.992 --    13 C    1.460    11 C    1.431    24 H    0.970
                             9 C    0.105
    13   6 C    3.989 --    12 C    1.460     8 C    1.365    25 H    0.968
                            10 C    0.103
    14   1 H    0.997 --     1 C    0.985
    15   1 H    0.997 --     1 C    0.986
    16   1 H    0.997 --     1 C    0.984
    17   1 H    0.997 --     2 C    0.968
    18   1 H    0.997 --     2 C    0.968
    19   1 H    0.996 --     6 C    0.961
    20   1 H    0.995 --     7 C    0.957
    21   1 H    0.998 --     9 C    0.966
    22   1 H    0.998 --    10 C    0.971
    23   1 H    0.998 --    11 C    0.971
    24   1 H    0.998 --    12 C    0.970
    25   1 H    0.998 --    13 C    0.968
 ---------------------------------------------------------------------------

Topologies differ in total number of bonds
Writing topology from bond orders to xtbtopo.mol

molecular dipole:
                 x           y           z       tot (Debye)
 q only:       -0.324       0.605       0.608
   full:       -0.300       0.640       0.643       2.429
molecular quadrupole (traceless):
                xx          xy          yy          xz          yz          zz
 q only:       13.852       2.117      -6.931       3.925      -1.754      -6.921
  q+dip:       14.657       1.832      -7.369       3.906       0.484      -7.289
   full:       13.317       1.982      -6.582       3.633      -2.493      -6.736

           -------------------------------------------------
          |                Geometry Summary                 |
           -------------------------------------------------

      molecular mass/u    :      176.2121937
   center of mass at/Å    :       -0.2107821      -0.0950349      -0.2100245
  moments of inertia/u·Å² :        0.1780023E+03   0.1832587E+04   0.2004253E+04
rotational constants/cm⁻¹ :        0.9470460E-01   0.9198816E-02   0.8410930E-02

 * 23 selected distances

     #   Z          #   Z                                           value/Å
     1   6 C        2   6 C                                       1.5170968 (max)
     2   6 C        3   8 O                                       1.4263160
     3   8 O        4   6 C                                       1.3427058
     4   6 C        5   8 O                                       1.2088038
     6   6 C        7   6 C                                       1.3389381
     8   6 C        9   6 C                                       1.3978418
     9   6 C       10   6 C                                       1.3806408
    10   6 C       11   6 C                                       1.3863866
    11   6 C       12   6 C                                       1.3854432
     8   6 C       13   6 C                                       1.3980005
    12   6 C       13   6 C                                       1.3812087
     1   6 C       14   1 H                                       1.0869366
     1   6 C       15   1 H                                       1.0867963
     1   6 C       16   1 H                                       1.0863264
     2   6 C       17   1 H                                       1.0962545
     2   6 C       18   1 H                                       1.0962729
     6   6 C       19   1 H                                       1.0779704 (min)
     7   6 C       20   1 H                                       1.0841755
     9   6 C       21   1 H                                       1.0787039
    10   6 C       22   1 H                                       1.0802367
    11   6 C       23   1 H                                       1.0799197
    12   6 C       24   1 H                                       1.0801305
    13   6 C       25   1 H                                       1.0805288

 * 3 distinct bonds (by element types)

   Z      Z             #   av. dist./Å        max./Å        min./Å
   1 H    6 C          12     1.0845210     1.0962729     1.0779704
   6 C    6 C           8     1.3981946     1.5170968     1.3389381
   6 C    8 O           3     1.3259418     1.4263160     1.2088038


optimized geometry written to: xtbopt.xyz


           -------------------------------------------------
          | TOTAL ENERGY              -37.782454694614 Eh   |
          | GRADIENT NORM               0.000562307570 Eh/α |
          | HOMO-LUMO GAP               3.044838341995 eV   |
           -------------------------------------------------

------------------------------------------------------------------------
 * finished run on 2025/12/01 at 14:22:17.087     
------------------------------------------------------------------------
 total:
 * wall-time:     0 d,  0 h,  0 min,  0.256 sec
 *  cpu-time:     0 d,  0 h,  0 min,  4.942 sec
 * ratio c/w:    19.281 speedup
 SCF:
 * wall-time:     0 d,  0 h,  0 min,  0.052 sec
 *  cpu-time:     0 d,  0 h,  0 min,  1.024 sec
 * ratio c/w:    19.772 speedup
 ANC optimizer:
 * wall-time:     0 d,  0 h,  0 min,  0.193 sec
 *  cpu-time:     0 d,  0 h,  0 min,  3.781 sec
 * ratio c/w:    19.570 speedup

normal termination of xtb
