      -----------------------------------------------------------      
     |                   =====================                   |     
     |                           x T B                           |     
     |                   =====================                   |     
     |                         S. Grimme                         |     
     |          Mulliken Center for Theoretical Chemistry        |     
     |                    University of Bonn                     |     
      -----------------------------------------------------------      

   * xtb version 6.7.1 (edcfbbe) compiled by 'albert@albert-system' on 2024-07-22

   xtb is free software: you can redistribute it and/or modify it under
   the terms of the GNU Lesser General Public License as published by
   the Free Software Foundation, either version 3 of the License, or
   (at your option) any later version.
   
   xtb is distributed in the hope that it will be useful,
   but WITHOUT ANY WARRANTY; without even the implied warranty of
   MERCHANTABILITY or FITNESS FOR A PARTICULAR PURPOSE.  See the
   GNU Lesser General Public License for more details.
   
   Cite this work as:
   * C. Bannwarth, E. Caldeweyher, S. Ehlert, A. Hansen, P. Pracht,
     J. Seibert, S. Spicher, S. Grimme, WIREs Comput. Mol. Sci., 2020, 11,
     e01493. DOI: 10.1002/wcms.1493
   
   for GFN2-xTB:
   * C. Bannwarth, S. Ehlert and S. Grimme., J. Chem. Theory Comput., 2019,
     15, 1652-1671. DOI: 10.1021/acs.jctc.8b01176
   for GFN1-xTB:
   * S. Grimme, C. Bannwarth, P. Shushkov, J. Chem. Theory Comput., 2017,
     13, 1989-2009. DOI: 10.1021/acs.jctc.7b00118
   for GFN0-xTB:
   * P. Pracht, E. Caldeweyher, S. Ehlert, S. Grimme, ChemRxiv, 2019, preprint.
     DOI: 10.26434/chemrxiv.8326202.v1
   for GFN-FF:
   * S. Spicher and S. Grimme, Angew. Chem. Int. Ed., 2020, 59, 15665-15673.
     DOI: 10.1002/anie.202004239
   
   for ALPB and GBSA implicit solvation:
   * S. Ehlert, M. Stahn, S. Spicher, S. Grimme, J. Chem. Theory Comput.,
     2021, 17, 4250-4261. DOI: 10.1021/acs.jctc.1c00471
   
   for ddCOSMO and CPCM-X implicit solvation:
   * M. Stahn, S. Ehlert, S. Grimme, J. Phys. Chem. A,
     2023, XX, XXXX-XXXX. DOI: 10.1021/acs.jpca.3c04382
   
   for DFT-D4:
   * E. Caldeweyher, C. Bannwarth and S. Grimme, J. Chem. Phys., 2017,
     147, 034112. DOI: 10.1063/1.4993215
   * E. Caldeweyher, S. Ehlert, A. Hansen, H. Neugebauer, S. Spicher,
     C. Bannwarth and S. Grimme, J. Chem. Phys., 2019, 150, 154122.
     DOI: 10.1063/1.5090222
   * E. Caldeweyher, J.-M. Mewes, S. Ehlert and S. Grimme, Phys. Chem. Chem. Phys.
     2020, 22, 8499-8512. DOI: 10.1039/D0CP00502A
   
   for sTDA-xTB:
   * S. Grimme and C. Bannwarth, J. Chem. Phys., 2016, 145, 054103.
     DOI: 10.1063/1.4959605
   
   in the mass-spec context:
   * V. Asgeirsson, C. Bauer and S. Grimme, Chem. Sci., 2017, 8, 4879.
     DOI: 10.1039/c7sc00601b
   * J. Koopman and S. Grimme, ACS Omega 2019, 4, 12, 15120-15133.
     DOI: 10.1021/acsomega.9b02011
   
   for metadynamics refer to:
   * S. Grimme, J. Chem. Theory Comput., 2019, 155, 2847-2862
     DOI: 10.1021/acs.jctc.9b00143
   
   for SPH calculations refer to:
   * S. Spicher and S. Grimme, J. Chem. Theory Comput., 2021, 17, 1701-1714
     DOI: 10.1021/acs.jctc.0c01306
   
   for ONIOM refer to:
   * C. Plett, A. Katbashev, S. Ehlert, S. Grimme, M. Bursch,
     Phys. Chem. Chem. Phys., 2023, 25, 17860-17868. DOI: 10.1039/D3CP02178E
   
   for DIPRO refer to:
   * J. Kohn, N. Gildemeister, S. Grimme, D. Fazzi, A. Hansen,
     J. Chem. Phys., 2023, just accepted.
   
   for PTB refer to:
   * S. Grimme, M. Mueller, A. Hansen, J. Chem. Phys., 2023, 158, 124111.
     DOI: 10.1063/5.0137838
   
   with help from (in alphabetical order)
   P. Atkinson, C. Bannwarth, F. Bohle, G. Brandenburg, E. Caldeweyher
   M. Checinski, S. Dohm, S. Ehlert, S. Ehrlich, I. Gerasimov, C. Hölzer
   A. Katbashev, J. Kohn, J. Koopman, C. Lavigne, S. Lehtola, F. März, M. Müller,
   F. Musil, H. Neugebauer, J. Pisarek, C. Plett, P. Pracht, F. Pultar,
   J. Seibert, P. Shushkov, S. Spicher, M. Stahn, M. Steiner, T. Strunk,
   J. Stückrath, T. Rose, and J. Unsleber
   
 * started run on 2025/12/01 at 14:22:17.094     
   ID    Z sym.   atoms
    1    6 C      1-5, 7, 9, 10
    2    8 O      6, 8
    3    1 H      11-24

           -------------------------------------------------
          |                Calculation Setup                |
           -------------------------------------------------

          program call               : xtb pipeline_data/3_conformer_xyz/acrylates/rdkit/NCTBYWFEJFTVEL-ZETCQYMHSA-N_conf90.xyz --opt --gfn 2-xTB --iterations 250
          coordinate file            : pipeline_data/3_conformer_xyz/acrylates/rdkit/NCTBYWFEJFTVEL-ZETCQYMHSA-N_conf90.xyz
          omp threads                :                    24

########################################################################
[WARNING] Please study the warnings concerning your input carefully
-1- readin_getIntValue: could not parse '2-xTB'
########################################################################

           -------------------------------------------------
          |                 G F N 2 - x T B                 |
           -------------------------------------------------

        Reference                      10.1021/acs.jctc.8b01176
      * Hamiltonian:
        H0-scaling (s, p, d)           1.850000    2.230000    2.230000
        zeta-weighting                 0.500000
      * Dispersion:
        s8                             2.700000
        a1                             0.520000
        a2                             5.000000
        s9                             5.000000
      * Repulsion:
        kExp                           1.500000    1.000000
        rExp                           1.000000
      * Coulomb:
        alpha                          2.000000
        third order                    shell-resolved
        anisotropic                    true
        a3                             3.000000
        a5                             4.000000
        cn-shift                       1.200000
        cn-exp                         4.000000
        max-rad                        5.000000


          ...................................................
          :                      SETUP                      :
          :.................................................:
          :  # basis functions                  54          :
          :  # atomic orbitals                  54          :
          :  # shells                           34          :
          :  # electrons                        58          :
          :  max. iterations                   250          :
          :  Hamiltonian                  GFN2-xTB          :
          :  restarted?                      false          :
          :  GBSA solvation                  false          :
          :  PC potential                    false          :
          :  electronic temp.          300.0000000     K    :
          :  accuracy                    1.0000000          :
          :  -> integral cutoff          0.2500000E+02      :
          :  -> integral neglect         0.1000000E-07      :
          :  -> SCF convergence          0.1000000E-05 Eh   :
          :  -> wf. convergence          0.1000000E-03 e    :
          :  Broyden damping             0.4000000          :
          :  net charge                          0          :
          :  unpaired electrons                  0          :
          ...................................................

 iter      E             dE          RMSdq      gap      omega  full diag
   1    -32.6721482 -0.326721E+02  0.412E+00    4.21       0.0  T
   2    -32.7527386 -0.805904E-01  0.218E+00    3.10       1.0  T
   3    -32.7552910 -0.255238E-02  0.120E+00    3.49       1.0  T
   4    -32.7589986 -0.370762E-02  0.234E-01    3.24       1.0  T
   5    -32.7596041 -0.605498E-03  0.104E-01    3.33       1.0  T
   6    -32.7596823 -0.781352E-04  0.587E-02    3.32       1.0  T
   7    -32.7597106 -0.283003E-04  0.156E-02    3.32       1.3  T
   8    -32.7597114 -0.867227E-06  0.550E-03    3.32       3.7  T
   9    -32.7597115 -0.950851E-07  0.179E-03    3.32      11.4  T
  10    -32.7597115 -0.596461E-08  0.842E-04    3.32      24.2  T
  11    -32.7597115 -0.211848E-08  0.133E-04    3.32     153.1  T

   *** convergence criteria satisfied after 11 iterations ***

         #    Occupation            Energy/Eh            Energy/eV
      -------------------------------------------------------------
         1        2.0000           -0.7314530             -19.9038
       ...           ...                  ...                  ...
        23        2.0000           -0.4545606             -12.3692
        24        2.0000           -0.4398707             -11.9695
        25        2.0000           -0.4363770             -11.8744
        26        2.0000           -0.4291617             -11.6781
        27        2.0000           -0.4255463             -11.5797
        28        2.0000           -0.4210929             -11.4585
        29        2.0000           -0.4033361             -10.9753 (HOMO)
        30                         -0.2813846              -7.6569 (LUMO)
        31                         -0.1687905              -4.5930
        32                         -0.0188212              -0.5122
        33                          0.0674375               1.8351
        34                          0.0779909               2.1222
       ...                                ...                  ...
        54                          0.6427237              17.4894
      -------------------------------------------------------------
                  HL-Gap            0.1219515 Eh            3.3185 eV
             Fermi-level           -0.3423604 Eh           -9.3161 eV

 SCC (total)                   0 d,  0 h,  0 min,  0.026 sec
 SCC setup                      ...        0 min,  0.000 sec (  0.753%)
 Dispersion                     ...        0 min,  0.000 sec (  0.769%)
 classical contributions        ...        0 min,  0.000 sec (  0.198%)
 integral evaluation            ...        0 min,  0.001 sec (  2.091%)
 iterations                     ...        0 min,  0.022 sec ( 85.751%)
 molecular gradient             ...        0 min,  0.003 sec (  9.826%)
 printout                       ...        0 min,  0.000 sec (  0.510%)

         :::::::::::::::::::::::::::::::::::::::::::::::::::::
         ::                     SUMMARY                     ::
         :::::::::::::::::::::::::::::::::::::::::::::::::::::
         :: total energy             -32.359439340576 Eh    ::
         :: gradient norm              0.130013170710 Eh/a0 ::
         :: HOMO-LUMO gap              3.318469295223 eV    ::
         ::.................................................::
         :: SCC energy               -32.759704902484 Eh    ::
         :: -> isotropic ES            0.049571492737 Eh    ::
         :: -> anisotropic ES          0.003011186074 Eh    ::
         :: -> anisotropic XC          0.013188450328 Eh    ::
         :: -> dispersion             -0.016963737246 Eh    ::
         :: repulsion energy           0.400265561907 Eh    ::
         :: add. restraining           0.000000000000 Eh    ::
         :: total charge              -0.000000000000 e     ::
         :::::::::::::::::::::::::::::::::::::::::::::::::::::

      ----------------------------------------------------------- 
     |                   =====================                   |
     |                        A N C O P T                        |
     |                   =====================                   |
     |               Approximate Normal Coordinate               |
     |                Rational Function Optimizer                |
      ----------------------------------------------------------- 
      ----------------------------------------------------------- 
     |                   =====================                   |
     |                        A N C O P T                        |
     |                   =====================                   |
     |               Approximate Normal Coordinate               |
     |                Rational Function Optimizer                |
      ----------------------------------------------------------- 

          ...................................................
          :                      SETUP                      :
          :.................................................:
          :   optimization level            normal          :
          :   max. optcycles                   200          :
          :   ANC micro-cycles                  20          :
          :   degrees of freedom                66          :
          :.................................................:
          :   RF solver                   davidson          :
          :   write xtbopt.log                true          :
          :   linear?                        false          :
          :   energy convergence         0.5000000E-05 Eh   :
          :   grad. convergence          0.1000000E-02 Eh/α :
          :   maxmium RF displ.          1.0000000          :
          :   Hlow (freq-cutoff)         0.1000000E-01      :
          :   Hmax (freq-cutoff)         5.0000000          :
          :   S6 in model hess.         20.0000000          :
          ...................................................

generating ANC from exact Hessian ...
Using Lindh-Hessian (1995)
 Shifting diagonal of input Hessian by   9.178160264924620E-003
 Lowest  eigenvalues of input Hessian
    0.000000    0.000000    0.000000    0.000000    0.000000    0.000000
    0.010000    0.010395    0.011114    0.012726    0.015525    0.016324
    0.016485    0.018456    0.022324    0.022826    0.025409    0.026993
 Highest eigenvalues
    1.340117    1.381886    1.467004    1.783014    2.018399    2.188463
 

........................................................................
.............................. CYCLE    1 ..............................
........................................................................

 iter      E             dE          RMSdq      gap      omega  full diag
   1    -32.7597115 -0.327597E+02  0.676E-05    3.32       0.0  T
   2    -32.7597115 -0.598988E-11  0.417E-05    3.32     489.3  T
   3    -32.7597115 -0.136424E-11  0.119E-05    3.32    1714.0  T
     SCC iter.                  ...        0 min,  0.003 sec
     gradient                   ...        0 min,  0.002 sec
 * total energy  :   -32.3594393 Eh     change       -0.4611422E-10 Eh
   gradient norm :     0.1300132 Eh/α   predicted     0.0000000E+00 (-100.00%)
   displ. norm   :     0.3628540 α      lambda       -0.2451965E-01
   maximum displ.:     0.1324007 α      in ANC's #18, #19, #13, ...

........................................................................
.............................. CYCLE    2 ..............................
........................................................................

 iter      E             dE          RMSdq      gap      omega  full diag
   1    -32.7881398 -0.327881E+02  0.311E-01    3.42       0.0  T
   2    -32.7883251 -0.185309E-03  0.188E-01    3.45       1.0  T
   3    -32.7882447  0.803997E-04  0.839E-02    3.44       1.0  T
   4    -32.7883306 -0.859400E-04  0.321E-02    3.45       1.0  T
   5    -32.7883506 -0.199498E-04  0.665E-03    3.45       3.1  T
   6    -32.7883509 -0.281878E-06  0.359E-03    3.45       5.7  T
   7    -32.7883509 -0.419558E-07  0.974E-04    3.45      21.0  T
   8    -32.7883509 -0.216582E-08  0.409E-04    3.45      49.9  T
     SCC iter.                  ...        0 min,  0.007 sec
     gradient                   ...        0 min,  0.002 sec
 * total energy  :   -32.3760598 Eh     change       -0.1662044E-01 Eh
   gradient norm :     0.0517425 Eh/α   predicted    -0.1388184E-01 ( -16.48%)
   displ. norm   :     0.2923112 α      lambda       -0.6466091E-02
   maximum displ.:     0.1288584 α      in ANC's #13, #11, #5, ...

........................................................................
.............................. CYCLE    3 ..............................
........................................................................

 iter      E             dE          RMSdq      gap      omega  full diag
   1    -32.8000408 -0.328000E+02  0.174E-01    3.53       0.0  T
   2    -32.8001201 -0.792292E-04  0.105E-01    3.56       1.0  T
   3    -32.8000906  0.294268E-04  0.570E-02    3.55       1.0  T
   4    -32.8001246 -0.339511E-04  0.210E-02    3.56       1.0  T
   5    -32.8001324 -0.775845E-05  0.376E-03    3.55       5.4  T
   6    -32.8001324 -0.463639E-07  0.187E-03    3.55      10.9  T
   7    -32.8001324 -0.144128E-07  0.598E-04    3.55      34.1  T
   8    -32.8001324 -0.912976E-09  0.253E-04    3.55      80.8  T
     SCC iter.                  ...        0 min,  0.007 sec
     gradient                   ...        0 min,  0.002 sec
 * total energy  :   -32.3798465 Eh     change       -0.3786707E-02 Eh
   gradient norm :     0.0120981 Eh/α   predicted    -0.3511322E-02 (  -7.27%)
   displ. norm   :     0.2205900 α      lambda       -0.1098405E-02
   maximum displ.:     0.1011368 α      in ANC's #3, #11, #5, ...

........................................................................
.............................. CYCLE    4 ..............................
........................................................................

 iter      E             dE          RMSdq      gap      omega  full diag
   1    -32.8001716 -0.328002E+02  0.940E-02    3.58       0.0  T
   2    -32.8001751 -0.352641E-05  0.554E-02    3.59       1.0  T
   3    -32.8001660  0.915289E-05  0.244E-02    3.59       1.0  T
   4    -32.8001764 -0.104842E-04  0.461E-03    3.59       4.4  T
   5    -32.8001768 -0.328135E-06  0.164E-03    3.59      12.5  T
   6    -32.8001768 -0.611838E-08  0.725E-04    3.59      28.2  T
   7    -32.8001768 -0.195361E-08  0.221E-04    3.59      92.5  T
     SCC iter.                  ...        0 min,  0.006 sec
     gradient                   ...        0 min,  0.002 sec
 * total energy  :   -32.3806577 Eh     change       -0.8112363E-03 Eh
   gradient norm :     0.0091084 Eh/α   predicted    -0.5759494E-03 ( -29.00%)
   displ. norm   :     0.3965301 α      lambda       -0.1273785E-02
   maximum displ.:     0.1993037 α      in ANC's #3, #11, #8, ...

........................................................................
.............................. CYCLE    5 ..............................
........................................................................

 iter      E             dE          RMSdq      gap      omega  full diag
   1    -32.7973916 -0.327974E+02  0.166E-01    3.63       0.0  T
   2    -32.7973989 -0.734890E-05  0.984E-02    3.63       1.0  T
   3    -32.7973889  0.100526E-04  0.266E-02    3.62       1.0  T
   4    -32.7974009 -0.120092E-04  0.728E-03    3.63       2.8  T
   5    -32.7974016 -0.747884E-06  0.303E-03    3.63       6.7  T
   6    -32.7974016 -0.221805E-07  0.136E-03    3.63      15.0  T
   7    -32.7974016 -0.689909E-08  0.258E-04    3.63      79.0  T
   8    -32.7974016 -0.181103E-09  0.108E-04    3.63     188.9  T
     SCC iter.                  ...        0 min,  0.007 sec
     gradient                   ...        0 min,  0.002 sec
 * total energy  :   -32.3814342 Eh     change       -0.7764674E-03 Eh
   gradient norm :     0.0123281 Eh/α   predicted    -0.7370987E-03 (  -5.07%)
   displ. norm   :     0.2864229 α      lambda       -0.7325992E-03
   maximum displ.:     0.1337046 α      in ANC's #3, #11, #8, ...

........................................................................
.............................. CYCLE    6 ..............................
........................................................................

 iter      E             dE          RMSdq      gap      omega  full diag
   1    -32.7983032 -0.327983E+02  0.110E-01    3.66       0.0  T
   2    -32.7983070 -0.374671E-05  0.652E-02    3.67       1.0  T
   3    -32.7983058  0.110857E-05  0.108E-02    3.66       1.9  T
   4    -32.7983073 -0.144858E-05  0.515E-03    3.66       4.0  T
   5    -32.7983077 -0.413619E-06  0.183E-03    3.66      11.1  T
   6    -32.7983077 -0.509997E-08  0.809E-04    3.66      25.2  T
   7    -32.7983077 -0.454734E-08  0.174E-04    3.66     117.4  T
     SCC iter.                  ...        0 min,  0.006 sec
     gradient                   ...        0 min,  0.002 sec
 * total energy  :   -32.3819433 Eh     change       -0.5091316E-03 Eh
   gradient norm :     0.0103572 Eh/α   predicted    -0.3963615E-03 ( -22.15%)
   displ. norm   :     0.3197601 α      lambda       -0.6798526E-03
   maximum displ.:     0.1443809 α      in ANC's #7, #3, #8, ...

........................................................................
.............................. CYCLE    7 ..............................
........................................................................

 iter      E             dE          RMSdq      gap      omega  full diag
   1    -32.8006980 -0.328007E+02  0.103E-01    3.68       0.0  T
   2    -32.8006999 -0.193212E-05  0.607E-02    3.68       1.0  T
   3    -32.8007005 -0.546574E-06  0.441E-03    3.68       4.6  T
   4    -32.8007005 -0.704901E-07  0.247E-03    3.68       8.3  T
   5    -32.8007005 -0.592910E-08  0.112E-03    3.68      18.2  T
   6    -32.8007005 -0.451303E-08  0.362E-04    3.68      56.4  T
   7    -32.8007006 -0.179868E-08  0.160E-04    3.68     127.8  T
     SCC iter.                  ...        0 min,  0.006 sec
     gradient                   ...        0 min,  0.002 sec
 * total energy  :   -32.3824741 Eh     change       -0.5308030E-03 Eh
   gradient norm :     0.0100133 Eh/α   predicted    -0.3746880E-03 ( -29.41%)
   displ. norm   :     0.4211597 α      lambda       -0.7932094E-03
   maximum displ.:     0.1954689 α      in ANC's #7, #3, #12, ...

........................................................................
.............................. CYCLE    8 ..............................
........................................................................

 iter      E             dE          RMSdq      gap      omega  full diag
   1    -32.8021434 -0.328021E+02  0.134E-01    3.70       0.0  T
   2    -32.8021471 -0.368911E-05  0.795E-02    3.69       1.0  T
   3    -32.8021477 -0.611610E-06  0.666E-03    3.69       3.1  T
   4    -32.8021479 -0.209216E-06  0.424E-03    3.69       4.8  T
   5    -32.8021481 -0.171380E-06  0.242E-03    3.69       8.4  T
   6    -32.8021481 -0.274336E-07  0.479E-04    3.69      42.6  T
   7    -32.8021481 -0.172226E-08  0.193E-04    3.69     105.7  T
     SCC iter.                  ...        0 min,  0.006 sec
     gradient                   ...        0 min,  0.002 sec
 * total energy  :   -32.3830742 Eh     change       -0.6000793E-03 Eh
   gradient norm :     0.0124724 Eh/α   predicted    -0.4669538E-03 ( -22.18%)
   displ. norm   :     0.3909472 α      lambda       -0.7703441E-03
   maximum displ.:     0.1693051 α      in ANC's #7, #12, #3, ...

........................................................................
.............................. CYCLE    9 ..............................
........................................................................

 iter      E             dE          RMSdq      gap      omega  full diag
   1    -32.8051394 -0.328051E+02  0.125E-01    3.71       0.0  T
   2    -32.8051427 -0.329401E-05  0.743E-02    3.71       1.0  T
   3    -32.8051429 -0.167863E-06  0.736E-03    3.71       2.8  T
   4    -32.8051435 -0.573373E-06  0.320E-03    3.71       6.4  T
   5    -32.8051435 -0.298358E-07  0.200E-03    3.71      10.2  T
   6    -32.8051435 -0.176221E-07  0.939E-04    3.71      21.7  T
   7    -32.8051435 -0.113060E-07  0.181E-04    3.71     113.1  T
     SCC iter.                  ...        0 min,  0.006 sec
     gradient                   ...        0 min,  0.002 sec
 * total energy  :   -32.3836159 Eh     change       -0.5416872E-03 Eh
   gradient norm :     0.0118158 Eh/α   predicted    -0.4440452E-03 ( -18.03%)
   displ. norm   :     0.4914179 α      lambda       -0.7310166E-03
   maximum displ.:     0.2405455 α      in ANC's #3, #7, #12, ...

........................................................................
.............................. CYCLE   10 ..............................
........................................................................

 iter      E             dE          RMSdq      gap      omega  full diag
   1    -32.7967570 -0.327968E+02  0.210E-01    3.70       0.0  T
   2    -32.7967827 -0.256273E-04  0.125E-01    3.69       1.0  T
   3    -32.7967797  0.296173E-05  0.199E-02    3.69       1.0  T
   4    -32.7967844 -0.467169E-05  0.822E-03    3.69       2.5  T
   5    -32.7967855 -0.108745E-05  0.377E-03    3.69       5.4  T
   6    -32.7967855 -0.883564E-07  0.207E-03    3.69       9.9  T
   7    -32.7967856 -0.157789E-07  0.332E-04    3.69      61.5  T
   8    -32.7967856 -0.337437E-09  0.113E-04    3.69     181.4  T
     SCC iter.                  ...        0 min,  0.007 sec
     gradient                   ...        0 min,  0.002 sec
 * total energy  :   -32.3838151 Eh     change       -0.1992287E-03 Eh
   gradient norm :     0.0248119 Eh/α   predicted    -0.4537764E-03 ( 127.77%)
   displ. norm   :     0.1650967 α      lambda       -0.1006466E-02
   maximum displ.:     0.0785125 α      in ANC's #5, #4, #1, ...

........................................................................
.............................. CYCLE   11 ..............................
........................................................................

 iter      E             dE          RMSdq      gap      omega  full diag
   1    -32.8074002 -0.328074E+02  0.966E-02    3.72       0.0  T
   2    -32.8074263 -0.260857E-04  0.554E-02    3.72       1.0  T
   3    -32.8074246  0.166504E-05  0.257E-02    3.73       1.0  T
   4    -32.8074283 -0.371758E-05  0.952E-03    3.73       2.1  T
   5    -32.8074298 -0.151210E-05  0.327E-03    3.73       6.2  T
   6    -32.8074299 -0.881416E-07  0.162E-03    3.73      12.6  T
   7    -32.8074299 -0.384509E-08  0.274E-04    3.73      74.6  T
   8    -32.8074299 -0.199783E-09  0.134E-04    3.73     152.5  T
     SCC iter.                  ...        0 min,  0.014 sec
     gradient                   ...        0 min,  0.003 sec
 * total energy  :   -32.3841226 Eh     change       -0.3074852E-03 Eh
   gradient norm :     0.0120779 Eh/α   predicted    -0.5169566E-03 (  68.12%)
   displ. norm   :     0.2361570 α      lambda       -0.8088715E-03
   maximum displ.:     0.1250485 α      in ANC's #5, #7, #6, ...

........................................................................
.............................. CYCLE   12 ..............................
........................................................................

 iter      E             dE          RMSdq      gap      omega  full diag
   1    -32.8053903 -0.328054E+02  0.108E-01    3.77       0.0  T
   2    -32.8054418 -0.514978E-04  0.618E-02    3.79       1.0  T
   3    -32.8054426 -0.757853E-06  0.262E-02    3.79       1.0  T
   4    -32.8054423  0.310954E-06  0.688E-03    3.79       3.0  T
   5    -32.8054431 -0.849185E-06  0.273E-03    3.79       7.5  T
   6    -32.8054432 -0.564656E-07  0.110E-03    3.79      18.5  T
   7    -32.8054432 -0.493028E-08  0.308E-04    3.79      66.3  T
   8    -32.8054432 -0.256250E-09  0.894E-05    3.79     228.3  T
     SCC iter.                  ...        0 min,  0.007 sec
     gradient                   ...        0 min,  0.002 sec
 * total energy  :   -32.3841301 Eh     change       -0.7499863E-05 Eh
   gradient norm :     0.0281177 Eh/α   predicted    -0.4269927E-03 (5593.34%)
   displ. norm   :     0.0974447 α      lambda       -0.7508348E-03
   maximum displ.:     0.0494073 α      in ANC's #2, #5, #9, ...

........................................................................
.............................. CYCLE   13 ..............................
........................................................................

 iter      E             dE          RMSdq      gap      omega  full diag
   1    -32.8046406 -0.328046E+02  0.639E-02    3.76       0.0  T
   2    -32.8046606 -0.199354E-04  0.389E-02    3.75       1.0  T
   3    -32.8046606 -0.374002E-07  0.186E-02    3.75       1.1  T
   4    -32.8046611 -0.503521E-06  0.782E-03    3.75       2.6  T
   5    -32.8046622 -0.110305E-05  0.235E-03    3.75       8.7  T
   6    -32.8046623 -0.652932E-07  0.112E-03    3.75      18.1  T
   7    -32.8046623 -0.346033E-08  0.285E-04    3.75      71.5  T
   8    -32.8046623 -0.148979E-09  0.613E-05    3.75     332.9  T
     SCC iter.                  ...        0 min,  0.007 sec
     gradient                   ...        0 min,  0.002 sec
 * total energy  :   -32.3845435 Eh     change       -0.4133768E-03 Eh
   gradient norm :     0.0062149 Eh/α   predicted    -0.3789846E-03 (  -8.32%)
   displ. norm   :     0.1614929 α      lambda       -0.2398300E-03
   maximum displ.:     0.0881336 α      in ANC's #5, #1, #2, ...

........................................................................
.............................. CYCLE   14 ..............................
........................................................................

 iter      E             dE          RMSdq      gap      omega  full diag
   1    -32.8043724 -0.328044E+02  0.736E-02    3.74       0.0  T
   2    -32.8043791 -0.673258E-05  0.431E-02    3.73       1.0  T
   3    -32.8043789  0.214354E-06  0.104E-02    3.74       2.0  T
   4    -32.8043791 -0.238433E-06  0.338E-03    3.74       6.0  T
   5    -32.8043794 -0.216324E-06  0.959E-04    3.74      21.3  T
   6    -32.8043794 -0.834120E-08  0.438E-04    3.74      46.6  T
     SCC iter.                  ...        0 min,  0.005 sec
     gradient                   ...        0 min,  0.002 sec
 * total energy  :   -32.3847139 Eh     change       -0.1703970E-03 Eh
   gradient norm :     0.0067549 Eh/α   predicted    -0.1230480E-03 ( -27.79%)
   displ. norm   :     0.3533168 α      lambda       -0.4484192E-03
   maximum displ.:     0.1900200 α      in ANC's #2, #1, #5, ...

........................................................................
.............................. CYCLE   15 ..............................
........................................................................

 iter      E             dE          RMSdq      gap      omega  full diag
   1    -32.8037992 -0.328038E+02  0.122E-01    3.73       0.0  T
   2    -32.8038006 -0.139420E-05  0.721E-02    3.73       1.0  T
   3    -32.8037984  0.216895E-05  0.113E-02    3.73       1.8  T
   4    -32.8038009 -0.245921E-05  0.288E-03    3.73       7.1  T
   5    -32.8038010 -0.136969E-06  0.989E-04    3.73      20.6  T
   6    -32.8038010 -0.913751E-09  0.294E-04    3.73      69.5  T
     SCC iter.                  ...        0 min,  0.005 sec
     gradient                   ...        0 min,  0.002 sec
 * total energy  :   -32.3850716 Eh     change       -0.3577431E-03 Eh
   gradient norm :     0.0083786 Eh/α   predicted    -0.2522008E-03 ( -29.50%)
   displ. norm   :     0.4858543 α      lambda       -0.5382651E-03
   maximum displ.:     0.2966572 α      in ANC's #2, #1, #5, ...

........................................................................
.............................. CYCLE   16 ..............................
........................................................................

 iter      E             dE          RMSdq      gap      omega  full diag
   1    -32.8052414 -0.328052E+02  0.139E-01    3.74       0.0  T
   2    -32.8052434 -0.205310E-05  0.825E-02    3.74       1.0  T
   3    -32.8052418  0.164024E-05  0.106E-02    3.74       1.9  T
   4    -32.8052438 -0.198131E-05  0.370E-03    3.74       5.5  T
   5    -32.8052440 -0.211731E-06  0.140E-03    3.74      14.6  T
   6    -32.8052440 -0.256578E-08  0.456E-04    3.74      44.8  T
   7    -32.8052440 -0.145447E-08  0.150E-04    3.74     136.4  T
     SCC iter.                  ...        0 min,  0.006 sec
     gradient                   ...        0 min,  0.002 sec
 * total energy  :   -32.3854332 Eh     change       -0.3615436E-03 Eh
   gradient norm :     0.0084535 Eh/α   predicted    -0.3326633E-03 (  -7.99%)
   displ. norm   :     0.3435523 α      lambda       -0.3170714E-03
   maximum displ.:     0.2240411 α      in ANC's #2, #1, #5, ...

........................................................................
.............................. CYCLE   17 ..............................
........................................................................

 iter      E             dE          RMSdq      gap      omega  full diag
   1    -32.8055693 -0.328056E+02  0.106E-01    3.74       0.0  T
   2    -32.8055723 -0.297722E-05  0.625E-02    3.74       1.0  T
   3    -32.8055712  0.113972E-05  0.953E-03    3.74       2.1  T
   4    -32.8055723 -0.117097E-05  0.470E-03    3.74       4.3  T
   5    -32.8055728 -0.407829E-06  0.130E-03    3.74      15.8  T
   6    -32.8055728 -0.138503E-08  0.422E-04    3.74      48.3  T
   7    -32.8055728 -0.727567E-09  0.135E-04    3.74     151.3  T
     SCC iter.                  ...        0 min,  0.006 sec
     gradient                   ...        0 min,  0.002 sec
 * total energy  :   -32.3856084 Eh     change       -0.1752290E-03 Eh
   gradient norm :     0.0087368 Eh/α   predicted    -0.1772482E-03 (   1.15%)
   displ. norm   :     0.4262729 α      lambda       -0.2841002E-03
   maximum displ.:     0.2370883 α      in ANC's #1, #2, #5, ...

........................................................................
.............................. CYCLE   18 ..............................
........................................................................

 iter      E             dE          RMSdq      gap      omega  full diag
   1    -32.7996427 -0.327996E+02  0.151E-01    3.72       0.0  T
   2    -32.7996479 -0.526474E-05  0.892E-02    3.72       1.0  T
   3    -32.7996439  0.406892E-05  0.156E-02    3.72       1.3  T
   4    -32.7996483 -0.439969E-05  0.640E-03    3.72       3.2  T
   5    -32.7996489 -0.678856E-06  0.185E-03    3.72      11.0  T
   6    -32.7996489 -0.250819E-08  0.889E-04    3.72      23.0  T
   7    -32.7996489 -0.332172E-08  0.168E-04    3.72     121.3  T
     SCC iter.                  ...        0 min,  0.006 sec
     gradient                   ...        0 min,  0.002 sec
 * total energy  :   -32.3855966 Eh     change        0.1184705E-04 Eh
   gradient norm :     0.0120050 Eh/α   predicted    -0.1678639E-03 (*******%)
   displ. norm   :     0.1326325 α      lambda       -0.4611771E-03
   maximum displ.:     0.0721513 α      in ANC's #5, #3, #12, ...

........................................................................
.............................. CYCLE   19 ..............................
........................................................................

 iter      E             dE          RMSdq      gap      omega  full diag
   1    -32.8079729 -0.328080E+02  0.712E-02    3.72       0.0  T
   2    -32.8079774 -0.457399E-05  0.408E-02    3.71       1.0  T
   3    -32.8079771  0.301965E-06  0.946E-03    3.71       2.2  T
   4    -32.8079774 -0.306701E-06  0.453E-03    3.71       4.5  T
   5    -32.8079778 -0.372156E-06  0.145E-03    3.71      14.0  T
   6    -32.8079778 -0.518268E-08  0.488E-04    3.71      41.8  T
   7    -32.8079778 -0.917289E-09  0.107E-04    3.71     190.3  T
     SCC iter.                  ...        0 min,  0.006 sec
     gradient                   ...        0 min,  0.002 sec
 * total energy  :   -32.3857769 Eh     change       -0.1803204E-03 Eh
   gradient norm :     0.0050543 Eh/α   predicted    -0.2346478E-03 (  30.13%)
   displ. norm   :     0.0768459 α      lambda       -0.1215855E-03
   maximum displ.:     0.0439364 α      in ANC's #1, #3, #4, ...

........................................................................
.............................. CYCLE   20 ..............................
........................................................................

 iter      E             dE          RMSdq      gap      omega  full diag
   1    -32.8068565 -0.328069E+02  0.478E-02    3.72       0.0  T
   2    -32.8068568 -0.307892E-06  0.281E-02    3.72       1.0  T
   3    -32.8068561  0.716131E-06  0.678E-03    3.72       3.0  T
   4    -32.8068569 -0.826841E-06  0.103E-03    3.72      19.7  T
   5    -32.8068569 -0.892853E-08  0.571E-04    3.72      35.8  T
   6    -32.8068569 -0.143637E-08  0.177E-04    3.72     115.5  T
     SCC iter.                  ...        0 min,  0.005 sec
     gradient                   ...        0 min,  0.002 sec
 * total energy  :   -32.3858313 Eh     change       -0.5440187E-04 Eh
   gradient norm :     0.0043405 Eh/α   predicted    -0.6115286E-04 (  12.41%)
   displ. norm   :     0.1192548 α      lambda       -0.5968228E-04
   maximum displ.:     0.0812530 α      in ANC's #1, #4, #2, ...
 * RMSD in coord.:     0.7187566 α      energy gain  -0.2639193E-01 Eh

generating ANC from exact Hessian ...
Using Lindh-Hessian (1995)
 Shifting diagonal of input Hessian by   9.214814955848848E-003
 Lowest  eigenvalues of input Hessian
    0.000000    0.000000    0.000000    0.000000    0.000000    0.000000
    0.010000    0.010341    0.011581    0.012119    0.014976    0.016206
    0.016709    0.018389    0.021608    0.022966    0.024011    0.025127
 Highest eigenvalues
    1.265552    1.300801    1.451124    1.754597    2.024464    2.391153
 

........................................................................
.............................. CYCLE   21 ..............................
........................................................................

 iter      E             dE          RMSdq      gap      omega  full diag
   1    -32.8059094 -0.328059E+02  0.353E-02    3.71       0.0  T
   2    -32.8059096 -0.187700E-06  0.209E-02    3.71       1.0  T
   3    -32.8059096  0.320561E-07  0.196E-03    3.71      10.4  T
   4    -32.8059096 -0.469122E-07  0.122E-03    3.71      16.7  T
   5    -32.8059096 -0.227696E-07  0.408E-04    3.71      50.0  T
   6    -32.8059096 -0.175490E-09  0.980E-05    3.71     208.4  T
     SCC iter.                  ...        0 min,  0.008 sec
     gradient                   ...        0 min,  0.005 sec
 * total energy  :   -32.3858765 Eh     change       -0.4524673E-04 Eh
   gradient norm :     0.0032157 Eh/α   predicted     0.0000000E+00 (-100.00%)
   displ. norm   :     0.0466946 α      lambda       -0.4109679E-04
   maximum displ.:     0.0271437 α      in ANC's #3, #4, #1, ...

........................................................................
.............................. CYCLE   22 ..............................
........................................................................

 iter      E             dE          RMSdq      gap      omega  full diag
   1    -32.8067521 -0.328068E+02  0.185E-02    3.71       0.0  T
   2    -32.8067522 -0.994286E-07  0.108E-02    3.71       1.9  T
   3    -32.8067520  0.169272E-06  0.321E-03    3.71       6.4  T
   4    -32.8067522 -0.197507E-06  0.792E-04    3.71      25.8  T
   5    -32.8067522 -0.873176E-08  0.321E-04    3.71      63.5  T
     SCC iter.                  ...        0 min,  0.008 sec
     gradient                   ...        0 min,  0.005 sec
 * total energy  :   -32.3859107 Eh     change       -0.3422303E-04 Eh
   gradient norm :     0.0013539 Eh/α   predicted    -0.2081455E-04 ( -39.18%)
   displ. norm   :     0.2214248 α      lambda       -0.8576309E-04
   maximum displ.:     0.1331983 α      in ANC's #3, #4, #1, ...

........................................................................
.............................. CYCLE   23 ..............................
........................................................................

 iter      E             dE          RMSdq      gap      omega  full diag
   1    -32.8080071 -0.328080E+02  0.696E-02    3.73       0.0  T
   2    -32.8080078 -0.742961E-06  0.410E-02    3.73       1.0  T
   3    -32.8080064  0.143717E-05  0.931E-03    3.73       2.2  T
   4    -32.8080081 -0.178294E-05  0.233E-03    3.73       8.8  T
   5    -32.8080082 -0.465373E-07  0.120E-03    3.73      17.1  T
   6    -32.8080082 -0.233536E-08  0.377E-04    3.73      54.1  T
   7    -32.8080082 -0.648100E-09  0.104E-04    3.73     195.6  T
     SCC iter.                  ...        0 min,  0.013 sec
     gradient                   ...        0 min,  0.002 sec
 * total energy  :   -32.3859942 Eh     change       -0.8345879E-04 Eh
   gradient norm :     0.0038929 Eh/α   predicted    -0.4382615E-04 ( -47.49%)
   displ. norm   :     0.1328540 α      lambda       -0.5781756E-04
   maximum displ.:     0.0787512 α      in ANC's #3, #4, #1, ...

........................................................................
.............................. CYCLE   24 ..............................
........................................................................

 iter      E             dE          RMSdq      gap      omega  full diag
   1    -32.8075597 -0.328076E+02  0.373E-02    3.73       0.0  T
   2    -32.8075598 -0.127696E-06  0.221E-02    3.73       1.0  T
   3    -32.8075598 -0.495366E-07  0.153E-03    3.73      13.4  T
   4    -32.8075599 -0.129088E-07  0.973E-04    3.73      21.0  T
   5    -32.8075599 -0.362493E-08  0.508E-04    3.73      40.1  T
     SCC iter.                  ...        0 min,  0.008 sec
     gradient                   ...        0 min,  0.003 sec
 * total energy  :   -32.3860456 Eh     change       -0.5144273E-04 Eh
   gradient norm :     0.0035143 Eh/α   predicted    -0.2942134E-04 ( -42.81%)
   displ. norm   :     0.2897699 α      lambda       -0.1191237E-03
   maximum displ.:     0.1667290 α      in ANC's #3, #4, #1, ...

........................................................................
.............................. CYCLE   25 ..............................
........................................................................

 iter      E             dE          RMSdq      gap      omega  full diag
   1    -32.8058364 -0.328058E+02  0.825E-02    3.73       0.0  T
   2    -32.8058372 -0.760001E-06  0.487E-02    3.73       1.0  T
   3    -32.8058373 -0.113494E-06  0.397E-03    3.73       5.1  T
   4    -32.8058374 -0.170008E-06  0.221E-03    3.73       9.3  T
   5    -32.8058375 -0.255683E-07  0.135E-03    3.73      15.1  T
   6    -32.8058375 -0.123966E-07  0.365E-04    3.73      55.9  T
   7    -32.8058375 -0.864539E-09  0.110E-04    3.73     184.9  T
     SCC iter.                  ...        0 min,  0.006 sec
     gradient                   ...        0 min,  0.002 sec
 * total energy  :   -32.3861249 Eh     change       -0.7927635E-04 Eh
   gradient norm :     0.0031814 Eh/α   predicted    -0.6456280E-04 ( -18.56%)
   displ. norm   :     0.1715933 α      lambda       -0.5093554E-04
   maximum displ.:     0.0945665 α      in ANC's #3, #4, #1, ...

........................................................................
.............................. CYCLE   26 ..............................
........................................................................

 iter      E             dE          RMSdq      gap      omega  full diag
   1    -32.8055876 -0.328056E+02  0.486E-02    3.74       0.0  T
   2    -32.8055878 -0.197071E-06  0.287E-02    3.74       1.0  T
   3    -32.8055878 -0.430495E-07  0.191E-03    3.74      10.7  T
   4    -32.8055878 -0.313115E-07  0.119E-03    3.74      17.2  T
   5    -32.8055879 -0.108749E-07  0.654E-04    3.74      31.2  T
   6    -32.8055879 -0.256117E-08  0.170E-04    3.74     120.3  T
     SCC iter.                  ...        0 min,  0.005 sec
     gradient                   ...        0 min,  0.002 sec
 * total energy  :   -32.3861562 Eh     change       -0.3129220E-04 Eh
   gradient norm :     0.0034332 Eh/α   predicted    -0.2621871E-04 ( -16.21%)
   displ. norm   :     0.0854962 α      lambda       -0.3602580E-04
   maximum displ.:     0.0549686 α      in ANC's #1, #4, #3, ...

........................................................................
.............................. CYCLE   27 ..............................
........................................................................

 iter      E             dE          RMSdq      gap      omega  full diag
   1    -32.8065621 -0.328066E+02  0.236E-02    3.74       0.0  T
   2    -32.8065622 -0.146526E-06  0.139E-02    3.74       1.5  T
   3    -32.8065622  0.123327E-08  0.147E-03    3.74      13.9  T
   4    -32.8065622 -0.149560E-07  0.751E-04    3.74      27.2  T
   5    -32.8065623 -0.733485E-08  0.345E-04    3.74      59.2  T
     SCC iter.                  ...        0 min,  0.004 sec
     gradient                   ...        0 min,  0.002 sec
 * total energy  :   -32.3861821 Eh     change       -0.2592350E-04 Eh
   gradient norm :     0.0023315 Eh/α   predicted    -0.1814746E-04 ( -30.00%)
   displ. norm   :     0.1728823 α      lambda       -0.3744830E-04
   maximum displ.:     0.1092928 α      in ANC's #1, #4, #3, ...

........................................................................
.............................. CYCLE   28 ..............................
........................................................................

 iter      E             dE          RMSdq      gap      omega  full diag
   1    -32.8068204 -0.328068E+02  0.471E-02    3.74       0.0  T
   2    -32.8068205 -0.169940E-06  0.278E-02    3.74       1.0  T
   3    -32.8068206 -0.449635E-07  0.153E-03    3.74      13.3  T
   4    -32.8068206 -0.137354E-07  0.102E-03    3.74      20.0  T
   5    -32.8068206 -0.753554E-08  0.553E-04    3.74      36.9  T
   6    -32.8068206 -0.200042E-08  0.136E-04    3.74     150.2  T
     SCC iter.                  ...        0 min,  0.005 sec
     gradient                   ...        0 min,  0.002 sec
 * total energy  :   -32.3862117 Eh     change       -0.2960054E-04 Eh
   gradient norm :     0.0024983 Eh/α   predicted    -0.1928484E-04 ( -34.85%)
   displ. norm   :     0.1745682 α      lambda       -0.4209680E-04
   maximum displ.:     0.1227630 α      in ANC's #1, #4, #3, ...

........................................................................
.............................. CYCLE   29 ..............................
........................................................................

 iter      E             dE          RMSdq      gap      omega  full diag
   1    -32.8075397 -0.328075E+02  0.503E-02    3.74       0.0  T
   2    -32.8075399 -0.188564E-06  0.297E-02    3.74       1.0  T
   3    -32.8075399 -0.314561E-07  0.153E-03    3.74      13.4  T
   4    -32.8075399 -0.190917E-07  0.859E-04    3.74      23.8  T
   5    -32.8075399 -0.367735E-08  0.502E-04    3.74      40.7  T
     SCC iter.                  ...        0 min,  0.004 sec
     gradient                   ...        0 min,  0.002 sec
 * total energy  :   -32.3862453 Eh     change       -0.3351824E-04 Eh
   gradient norm :     0.0021592 Eh/α   predicted    -0.2168998E-04 ( -35.29%)
   displ. norm   :     0.2436920 α      lambda       -0.4340037E-04
   maximum displ.:     0.1664824 α      in ANC's #1, #4, #3, ...

........................................................................
.............................. CYCLE   30 ..............................
........................................................................

 iter      E             dE          RMSdq      gap      omega  full diag
   1    -32.8067815 -0.328068E+02  0.693E-02    3.74       0.0  T
   2    -32.8067817 -0.280620E-06  0.409E-02    3.74       1.0  T
   3    -32.8067816  0.124480E-06  0.360E-03    3.74       5.7  T
   4    -32.8067819 -0.235374E-06  0.149E-03    3.74      13.7  T
   5    -32.8067819 -0.180581E-07  0.705E-04    3.74      28.9  T
   6    -32.8067819 -0.113251E-08  0.182E-04    3.74     112.2  T
     SCC iter.                  ...        0 min,  0.005 sec
     gradient                   ...        0 min,  0.002 sec
 * total energy  :   -32.3862779 Eh     change       -0.3261583E-04 Eh
   gradient norm :     0.0023627 Eh/α   predicted    -0.2298959E-04 ( -29.51%)
   displ. norm   :     0.1799898 α      lambda       -0.4086716E-04
   maximum displ.:     0.1367151 α      in ANC's #1, #2, #4, ...

........................................................................
.............................. CYCLE   31 ..............................
........................................................................

 iter      E             dE          RMSdq      gap      omega  full diag
   1    -32.8073518 -0.328074E+02  0.582E-02    3.74       0.0  T
   2    -32.8073520 -0.202181E-06  0.343E-02    3.74       1.0  T
   3    -32.8073518  0.193073E-06  0.360E-03    3.75       5.7  T
   4    -32.8073521 -0.244719E-06  0.116E-03    3.74      17.6  T
   5    -32.8073521 -0.182721E-07  0.452E-04    3.75      45.2  T
   6    -32.8073521 -0.243254E-09  0.131E-04    3.75     155.4  T
     SCC iter.                  ...        0 min,  0.005 sec
     gradient                   ...        0 min,  0.002 sec
 * total energy  :   -32.3863071 Eh     change       -0.2927027E-04 Eh
   gradient norm :     0.0017517 Eh/α   predicted    -0.2109741E-04 ( -27.92%)
   displ. norm   :     0.3007421 α      lambda       -0.2421967E-04
   maximum displ.:     0.2225403 α      in ANC's #1, #4, #2, ...

........................................................................
.............................. CYCLE   32 ..............................
........................................................................

 iter      E             dE          RMSdq      gap      omega  full diag
   1    -32.8063607 -0.328064E+02  0.937E-02    3.75       0.0  T
   2    -32.8063611 -0.394545E-06  0.553E-02    3.74       1.0  T
   3    -32.8063602  0.851811E-06  0.700E-03    3.75       2.9  T
   4    -32.8063613 -0.105612E-05  0.153E-03    3.75      13.3  T
   5    -32.8063613 -0.138337E-07  0.742E-04    3.75      27.5  T
   6    -32.8063613 -0.910823E-09  0.206E-04    3.75      99.1  T
     SCC iter.                  ...        0 min,  0.005 sec
     gradient                   ...        0 min,  0.002 sec
 * total energy  :   -32.3863249 Eh     change       -0.1780638E-04 Eh
   gradient norm :     0.0017979 Eh/α   predicted    -0.1259723E-04 ( -29.25%)
   displ. norm   :     0.0676492 α      lambda       -0.1546020E-04
   maximum displ.:     0.0494794 α      in ANC's #1, #2, #7, ...

........................................................................
.............................. CYCLE   33 ..............................
........................................................................

 iter      E             dE          RMSdq      gap      omega  full diag
   1    -32.8081035 -0.328081E+02  0.288E-02    3.75       0.0  T
   2    -32.8081038 -0.261400E-06  0.167E-02    3.75       1.2  T
   3    -32.8081038 -0.455940E-08  0.177E-03    3.75      11.5  T
   4    -32.8081038 -0.177248E-07  0.813E-04    3.75      25.1  T
   5    -32.8081038 -0.709431E-08  0.402E-04    3.75      50.8  T
     SCC iter.                  ...        0 min,  0.004 sec
     gradient                   ...        0 min,  0.002 sec
 * total energy  :   -32.3863323 Eh     change       -0.7375907E-05 Eh
   gradient norm :     0.0020988 Eh/α   predicted    -0.7748609E-05 (   5.05%)
   displ. norm   :     0.0312105 α      lambda       -0.5213722E-05
   maximum displ.:     0.0238416 α      in ANC's #1, #3, #4, ...

........................................................................
.............................. CYCLE   34 ..............................
........................................................................

 iter      E             dE          RMSdq      gap      omega  full diag
   1    -32.8078272 -0.328078E+02  0.102E-02    3.75       0.0  T
   2    -32.8078272 -0.222836E-07  0.598E-03    3.74       3.4  T
   3    -32.8078272 -0.787672E-09  0.463E-04    3.75      44.1  T
   4    -32.8078272 -0.117594E-08  0.227E-04    3.75      89.8  T
     SCC iter.                  ...        0 min,  0.004 sec
     gradient                   ...        0 min,  0.002 sec
 * total energy  :   -32.3863365 Eh     change       -0.4167246E-05 Eh
   gradient norm :     0.0012175 Eh/α   predicted    -0.2618914E-05 ( -37.15%)
   displ. norm   :     0.0295481 α      lambda       -0.4772698E-05
   maximum displ.:     0.0217356 α      in ANC's #1, #3, #5, ...

........................................................................
.............................. CYCLE   35 ..............................
........................................................................

 iter      E             dE          RMSdq      gap      omega  full diag
   1    -32.8074200 -0.328074E+02  0.119E-02    3.75       0.0  T
   2    -32.8074201 -0.734227E-07  0.693E-03    3.74       2.9  T
   3    -32.8074201  0.258051E-08  0.987E-04    3.74      20.7  T
   4    -32.8074201 -0.470371E-08  0.414E-04    3.74      49.3  T
     SCC iter.                  ...        0 min,  0.004 sec
     gradient                   ...        0 min,  0.002 sec
 * total energy  :   -32.3863402 Eh     change       -0.3711825E-05 Eh
   gradient norm :     0.0005393 Eh/α   predicted    -0.2389049E-05 ( -35.64%)
   displ. norm   :     0.0189265 α      lambda       -0.1777253E-05
   maximum displ.:     0.0146021 α      in ANC's #1, #4, #6, ...

   *** GEOMETRY OPTIMIZATION CONVERGED AFTER 35 ITERATIONS ***

------------------------------------------------------------------------
 total energy gain   :        -0.0269009 Eh      -16.8805 kcal/mol
 total RMSD          :         1.0235395 a0        0.5416 Å
 total power (kW/mol):        -2.0179487 (step) -184.6943 (real)
------------------------------------------------------------------------

 ANCopt (total)                0 d,  0 h,  0 min,  0.382 sec
 optimizer setup                ...        0 min,  0.000 sec (  0.028%)
 model hessian                  ...        0 min,  0.030 sec (  7.756%)
 ANC generation                 ...        0 min,  0.001 sec (  0.301%)
 coordinate transformation      ...        0 min,  0.000 sec (  0.072%)
 single point calculation       ...        0 min,  0.332 sec ( 86.826%)
 optimization log               ...        0 min,  0.013 sec (  3.281%)
 hessian update                 ...        0 min,  0.002 sec (  0.569%)
 rational function              ...        0 min,  0.003 sec (  0.803%)

================
 final structure:
================
24
 xtb: 6.7.1 (edcfbbe)
C           -1.86845627203948        2.15993304860631        1.84413429666543
C           -1.78147733525261        0.67901837675915        1.49057586887470
C           -0.95118511874736        0.35738683289985        0.24129836970090
C           -1.56567037861061        0.92363033677599       -1.03634308395414
C            0.49593980193042        0.83838454960610        0.39600823907802
O            1.32508252068426        0.33741230966343       -0.64943400640555
C            1.81280889968413       -0.90083541913472       -0.50264631206592
O            1.61886381566045       -1.59624971674848        0.46415167223196
C            2.62318202819501       -1.28249652480397       -1.68107145196127
C            3.18335278806447       -2.47943928556057       -1.76983561500945
H           -0.89027885317109        2.56068194637799        2.09791754368675
H           -2.27938461937913        2.73766725612552        1.02063825853434
H           -2.52053702265536        2.29194797938926        2.70435126154593
H           -2.79117561324875        0.29386044683032        1.33128171437239
H           -1.35426199582980        0.13793166467490        2.33776951408234
H           -0.91582916849841       -0.73456897748551        0.15043124581125
H           -0.97896315657473        0.61726290488950       -1.89921206842120
H           -1.58617771632720        2.01009068951172       -1.01036906870883
H           -2.58195519957311        0.55790830728233       -1.16190086160579
H            0.56205597432259        1.92434027093278        0.31247834095407
H            0.89879221810605        0.50634238557985        1.35897385203038
H            2.71466554151552       -0.52749921758975       -2.44703906102542
H            3.05708253923633       -3.19516404004114       -0.97351066962175
H            3.77352732250988       -2.77946012454180       -2.61864497878653
 
 Bond Distances (Angstroems)
 ---------------------------
C1-C2=1.5250         C1-H11=1.0871        C1-H12=1.0866        C1-H13=1.0875        C2-C1=1.5250         C2-C3=1.5341         
C2-H14=1.0923        C2-H15=1.0923        C3-C2=1.5341         C3-C4=1.5266         C3-C5=1.5328         C3-H16=1.0963        
C4-C3=1.5266         C4-H17=1.0875        C4-H18=1.0870        C4-H19=1.0874        C5-C3=1.5328         C5-O6=1.4253         
C5-H20=1.0912        C5-H21=1.0954        O6-C5=1.4253         O6-C7=1.3389         C7-O6=1.3389         C7-O8=1.2066         
C7-C9=1.4802         O8-C7=1.2066         C9-C7=1.4802         C9-C10=1.3245        C9-H22=1.0794        C10-C9=1.3245        
C10-H23=1.0781       C10-H24=1.0765       H11-C1=1.0871        H12-C1=1.0866        H13-C1=1.0875        H14-C2=1.0923        
H15-C2=1.0923        H16-C3=1.0963        H17-C4=1.0875        H18-C4=1.0870        H19-C4=1.0874        H20-C5=1.0912        
H21-C5=1.0954        H22-C9=1.0794        H23-C10=1.0781       H24-C10=1.0765       
 C  H  Rav=1.0875 sigma=0.0058  Rmin=1.0765  Rmax=1.0963    14
 C  C  Rav=1.4872 sigma=0.0750  Rmin=1.3245  Rmax=1.5341     6
 O  C  Rav=1.3236 sigma=0.0899  Rmin=1.2066  Rmax=1.4253     3
 
 selected bond angles (degree)
 --------------------
H11-C1-C2=111.15               H12-C1-C2=111.23               H12-C1-H11=108.73              H13-C1-C2=109.60               
H13-C1-H11=108.07              H13-C1-H12=107.95              C3-C2-C1=115.04                H14-C2-C1=108.87               
H14-C2-C3=107.91               H15-C2-C1=108.88               H15-C2-C3=108.43               H15-C2-H14=107.46              
C4-C3-C2=112.70                C5-C3-C2=111.28                C5-C3-C4=110.37                H16-C3-C2=107.08               
H16-C3-C4=108.24               H16-C3-C5=106.89               H17-C4-C3=110.02               H18-C4-C3=111.00               
H18-C4-H17=108.10              H19-C4-C3=110.37               H19-C4-H17=108.53              H19-C4-H18=108.74              
O6-C5-C3=111.40                H20-C5-C3=111.21               H20-C5-O6=104.98               H21-C5-C3=109.93               
H21-C5-O6=108.93               H21-C5-H20=110.29              C7-O6-C5=117.17                O8-C7-O6=124.21                
C9-C7-O6=110.52                C9-C7-O8=125.26                C10-C9-C7=121.19               H22-C9-C7=115.53               
H22-C9-C10=123.28              H23-C10-C9=120.06              H24-C10-C9=122.45              H24-C10-H23=117.49             
 
 selected dihedral angles (degree)
 ---------------------------------
C3-C2-C1-H11=296.14           C3-C2-C1-H12= 57.46           C3-C2-C1-H13=176.75           H14-C2-C1-H11=174.91          
H14-C2-C1-H12=296.23          H14-C2-C1-H13= 55.52          H15-C2-C1-H11= 58.04          H15-C2-C1-H12=179.36          
H15-C2-C1-H13=298.65          C4-C3-C2-C1=294.94            C4-C3-C2-H14= 56.69           C4-C3-C2-H15=172.80           
C5-C3-C2-C1= 59.54            C5-C3-C2-H14=181.30           C5-C3-C2-H15=297.40           H16-C3-C2-C1=176.02           
H16-C3-C2-H14=297.77          H16-C3-C2-H15= 53.88          H17-C4-C3-C2=183.62           H17-C4-C3-C5= 58.51           
H17-C4-C3-H16=301.86          H18-C4-C3-C2= 64.00           H18-C4-C3-C5=298.90           H18-C4-C3-H16=182.24          
H19-C4-C3-C2=303.36           H19-C4-C3-C5=178.26           H19-C4-C3-H16= 61.60          O6-C5-C3-C2=169.64            
O6-C5-C3-C4=295.54            O6-C5-C3-H16= 53.04           H20-C5-C3-C2=286.37           H20-C5-C3-C4= 52.28           
H20-C5-C3-H16=169.77          H21-C5-C3-C2= 48.80           H21-C5-C3-C4=174.70           H21-C5-C3-H16=292.20          
C7-O6-C5-C3=277.06            C7-O6-C5-H20=156.59           C7-O6-C5-H21= 38.49           O8-C7-O6-C5=358.25            
C9-C7-O6-C5=178.68            C10-C9-C7-O6=181.47           C10-C9-C7-O8=  1.91           H22-C9-C7-O6=  1.15           
H22-C9-C7-O8=181.59           H23-C10-C9-C7=359.73          H23-C10-C9-H22=180.08         H24-C10-C9-C7=179.78          
H24-C10-C9-H22=  0.13         
           -------------------------------------------------
          |                Final Singlepoint                |
           -------------------------------------------------

          ...................................................
          :                      SETUP                      :
          :.................................................:
          :  # basis functions                  54          :
          :  # atomic orbitals                  54          :
          :  # shells                           34          :
          :  # electrons                        58          :
          :  max. iterations                   250          :
          :  Hamiltonian                  GFN2-xTB          :
          :  restarted?                      false          :
          :  GBSA solvation                  false          :
          :  PC potential                    false          :
          :  electronic temp.          300.0000000     K    :
          :  accuracy                    1.0000000          :
          :  -> integral cutoff          0.2500000E+02      :
          :  -> integral neglect         0.1000000E-07      :
          :  -> SCF convergence          0.1000000E-05 Eh   :
          :  -> wf. convergence          0.1000000E-03 e    :
          :  Broyden damping             0.4000000          :
          :  net charge                          0          :
          :  unpaired electrons                  0          :
          ...................................................

 iter      E             dE          RMSdq      gap      omega  full diag
   1    -32.8074201 -0.328074E+02  0.153E-04    3.74       0.0  T
   2    -32.8074201 -0.190639E-10  0.105E-04    3.74     194.9  T
   3    -32.8074201 -0.585061E-10  0.684E-05    3.74     298.6  T

   *** convergence criteria satisfied after 3 iterations ***

         #    Occupation            Energy/Eh            Energy/eV
      -------------------------------------------------------------
         1        2.0000           -0.7381642             -20.0865
       ...           ...                  ...                  ...
        23        2.0000           -0.4600777             -12.5194
        24        2.0000           -0.4445310             -12.0963
        25        2.0000           -0.4380582             -11.9202
        26        2.0000           -0.4334570             -11.7950
        27        2.0000           -0.4291886             -11.6788
        28        2.0000           -0.4240597             -11.5393
        29        2.0000           -0.4113330             -11.1929 (HOMO)
        30                         -0.2737289              -7.4485 (LUMO)
        31                         -0.1637906              -4.4570
        32                          0.0067742               0.1843
        33                          0.0769131               2.0929
        34                          0.0887735               2.4156
       ...                                ...                  ...
        54                          0.7095453              19.3077
      -------------------------------------------------------------
                  HL-Gap            0.1376041 Eh            3.7444 eV
             Fermi-level           -0.3425309 Eh           -9.3207 eV

 SCC (total)                   0 d,  0 h,  0 min,  0.006 sec
 SCC setup                      ...        0 min,  0.000 sec (  1.309%)
 Dispersion                     ...        0 min,  0.000 sec (  1.769%)
 classical contributions        ...        0 min,  0.000 sec (  0.621%)
 integral evaluation            ...        0 min,  0.001 sec ( 10.958%)
 iterations                     ...        0 min,  0.003 sec ( 45.838%)
 molecular gradient             ...        0 min,  0.002 sec ( 37.235%)
 printout                       ...        0 min,  0.000 sec (  1.840%)

         :::::::::::::::::::::::::::::::::::::::::::::::::::::
         ::                     SUMMARY                     ::
         :::::::::::::::::::::::::::::::::::::::::::::::::::::
         :: total energy             -32.386340206078 Eh    ::
         :: gradient norm              0.000539805697 Eh/a0 ::
         :: HOMO-LUMO gap              3.744397673694 eV    ::
         ::.................................................::
         :: SCC energy               -32.807409525390 Eh    ::
         :: -> isotropic ES            0.046952659852 Eh    ::
         :: -> anisotropic ES          0.003172306679 Eh    ::
         :: -> anisotropic XC          0.012578866963 Eh    ::
         :: -> dispersion             -0.016530296289 Eh    ::
         :: repulsion energy           0.421069319313 Eh    ::
         :: add. restraining           0.000000000000 Eh    ::
         :: total charge              -0.000000000000 e     ::
         :::::::::::::::::::::::::::::::::::::::::::::::::::::

           -------------------------------------------------
          |                Property Printout                |
           -------------------------------------------------

    * Orbital Energies and Occupations

         #    Occupation            Energy/Eh            Energy/eV
      -------------------------------------------------------------
         1        2.0000           -0.7381642             -20.0865
       ...           ...                  ...                  ...
        17        2.0000           -0.5006580             -13.6236
        18        2.0000           -0.4885615             -13.2944
        19        2.0000           -0.4813077             -13.0970
        20        2.0000           -0.4701024             -12.7921
        21        2.0000           -0.4676394             -12.7251
        22        2.0000           -0.4663818             -12.6909
        23        2.0000           -0.4600777             -12.5194
        24        2.0000           -0.4445310             -12.0963
        25        2.0000           -0.4380582             -11.9202
        26        2.0000           -0.4334570             -11.7950
        27        2.0000           -0.4291886             -11.6788
        28        2.0000           -0.4240597             -11.5393
        29        2.0000           -0.4113330             -11.1929 (HOMO)
        30                         -0.2737289              -7.4485 (LUMO)
        31                         -0.1637906              -4.4570
        32                          0.0067742               0.1843
        33                          0.0769131               2.0929
        34                          0.0887735               2.4156
        35                          0.1055412               2.8719
        36                          0.1178738               3.2075
        37                          0.1307638               3.5583
        38                          0.1348158               3.6685
        39                          0.1451313               3.9492
        40                          0.1538824               4.1874
       ...                                ...                  ...
        54                          0.7095453              19.3077
      -------------------------------------------------------------
                  HL-Gap            0.1376041 Eh            3.7444 eV
             Fermi-level           -0.3425309 Eh           -9.3207 eV

     #   Z          covCN         q      C6AA      α(0)
     1   6 C        3.751    -0.106    22.598     6.779
     2   6 C        3.802    -0.062    21.688     6.630
     3   6 C        3.849    -0.019    20.882     6.500
     4   6 C        3.755    -0.107    22.600     6.779
     5   6 C        3.704     0.074    19.482     6.310
     6   8 O        1.705    -0.266    18.413     5.794
     7   6 C        2.724     0.356    20.955     7.494
     8   8 O        0.856    -0.415    21.987     6.287
     9   6 C        2.888    -0.059    29.469     8.900
    10   6 C        2.841    -0.060    29.481     8.898
    11   1 H        0.925     0.032     2.553     2.499
    12   1 H        0.925     0.040     2.452     2.449
    13   1 H        0.925     0.038     2.470     2.458
    14   1 H        0.924     0.040     2.449     2.447
    15   1 H        0.924     0.037     2.492     2.469
    16   1 H        0.924     0.045     2.388     2.417
    17   1 H        0.925     0.041     2.432     2.439
    18   1 H        0.925     0.040     2.444     2.445
    19   1 H        0.925     0.039     2.465     2.455
    20   1 H        0.924     0.056     2.245     2.343
    21   1 H        0.924     0.053     2.277     2.360
    22   1 H        0.926     0.063     2.166     2.302
    23   1 H        0.926     0.078     1.999     2.211
    24   1 H        0.926     0.062     2.179     2.308

 Mol. C6AA /au·bohr⁶  :       4744.495599
 Mol. C8AA /au·bohr⁸  :     103550.810756
 Mol. α(0) /au        :        103.971357


Wiberg/Mayer (AO) data.
largest (>0.10) Wiberg bond orders for each atom

 ---------------------------------------------------------------------------
     #   Z sym  total        # sym  WBO       # sym  WBO       # sym  WBO
 ---------------------------------------------------------------------------
     1   6 C    3.997 --     2 C    1.020    11 H    0.987    13 H    0.987
                            12 H    0.985
     2   6 C    3.996 --     1 C    1.020     3 C    0.994    15 H    0.977
                            14 H    0.977
     3   6 C    3.991 --     4 C    1.010     2 C    0.994     5 C    0.984
                            16 H    0.966
     4   6 C    3.996 --     3 C    1.010    19 H    0.986    17 H    0.986
                            18 H    0.984
     5   6 C    3.925 --     3 C    0.984    20 H    0.969    21 H    0.967
                             6 O    0.942
     6   8 O    2.312 --     7 C    1.126     5 C    0.942     8 O    0.174
     7   6 C    3.921 --     8 O    1.722     6 O    1.126     9 C    1.009
     8   8 O    2.032 --     7 C    1.722     6 O    0.174
     9   6 C    3.988 --    10 C    1.934     7 C    1.009    22 H    0.965
    10   6 C    3.980 --     9 C    1.934    24 H    0.976    23 H    0.970
    11   1 H    0.999 --     1 C    0.987
    12   1 H    0.998 --     1 C    0.985
    13   1 H    0.998 --     1 C    0.987
    14   1 H    0.998 --     2 C    0.977
    15   1 H    0.999 --     2 C    0.977
    16   1 H    0.998 --     3 C    0.966
    17   1 H    0.998 --     4 C    0.986
    18   1 H    0.998 --     4 C    0.984
    19   1 H    0.998 --     4 C    0.986
    20   1 H    0.996 --     5 C    0.969
    21   1 H    0.997 --     5 C    0.967
    22   1 H    0.996 --     9 C    0.965
    23   1 H    0.994 --    10 C    0.970
    24   1 H    0.995 --    10 C    0.976
 ---------------------------------------------------------------------------

Topologies differ in total number of bonds
Writing topology from bond orders to xtbtopo.mol

molecular dipole:
                 x           y           z       tot (Debye)
 q only:       -0.179       0.442      -0.479
   full:       -0.114       0.512      -0.548       1.928
molecular quadrupole (traceless):
                xx          xy          yy          xz          yz          zz
 q only:        1.592      -2.338      -1.534      -5.597       5.405      -0.059
  q+dip:        1.418      -1.597      -1.553      -5.761       5.155       0.135
   full:        2.290      -1.121      -2.263      -5.250       5.960      -0.027

           -------------------------------------------------
          |                Geometry Summary                 |
           -------------------------------------------------

      molecular mass/u    :      142.1958675
   center of mass at/Å    :        0.4611453      -0.0712983      -0.0982952
  moments of inertia/u·Å² :        0.1516535E+03   0.8562895E+03   0.9024379E+03
rotational constants/cm⁻¹ :        0.1111589E+00   0.1968684E-01   0.1868010E-01

 * 22 selected distances

     #   Z          #   Z                                           value/Å
     1   6 C        2   6 C                                       1.5250172
     2   6 C        3   6 C                                       1.5341208 (max)
     3   6 C        4   6 C                                       1.5266276
     3   6 C        5   6 C                                       1.5327964
     5   6 C        6   8 O                                       1.4252721
     6   8 O        7   6 C                                       1.3389105
     7   6 C        8   8 O                                       1.2066128
     9   6 C       10   6 C                                       1.3245160
     1   6 C       11   1 H                                       1.0871232
     1   6 C       12   1 H                                       1.0866393
     1   6 C       13   1 H                                       1.0874791
     2   6 C       14   1 H                                       1.0923425
     2   6 C       15   1 H                                       1.0922569
     3   6 C       16   1 H                                       1.0963004
     4   6 C       17   1 H                                       1.0874877
     4   6 C       18   1 H                                       1.0869644
     4   6 C       19   1 H                                       1.0873603
     5   6 C       20   1 H                                       1.0911685
     5   6 C       21   1 H                                       1.0953744
     9   6 C       22   1 H                                       1.0793965
    10   6 C       23   1 H                                       1.0781186
    10   6 C       24   1 H                                       1.0764739 (min)

 * 3 distinct bonds (by element types)

   Z      Z             #   av. dist./Å        max./Å        min./Å
   1 H    6 C          14     1.0874632     1.0963004     1.0764739
   6 C    6 C           5     1.4886156     1.5341208     1.3245160
   6 C    8 O           3     1.3235985     1.4252721     1.2066128


optimized geometry written to: xtbopt.xyz


           -------------------------------------------------
          | TOTAL ENERGY              -32.386340206078 Eh   |
          | GRADIENT NORM               0.000539805697 Eh/α |
          | HOMO-LUMO GAP               3.744397673694 eV   |
           -------------------------------------------------
########################################################################
[WARNING] Runtime exception occurred
-2- restart_readRestart: Dimension missmatch in restart file.
-1- restart_readRestart: Number of electron missmatch in restart file.
########################################################################

------------------------------------------------------------------------
 * finished run on 2025/12/01 at 14:22:17.516     
------------------------------------------------------------------------
 total:
 * wall-time:     0 d,  0 h,  0 min,  0.422 sec
 *  cpu-time:     0 d,  0 h,  0 min,  9.590 sec
 * ratio c/w:    22.740 speedup
 SCF:
 * wall-time:     0 d,  0 h,  0 min,  0.026 sec
 *  cpu-time:     0 d,  0 h,  0 min,  0.589 sec
 * ratio c/w:    22.784 speedup
 ANC optimizer:
 * wall-time:     0 d,  0 h,  0 min,  0.389 sec
 *  cpu-time:     0 d,  0 h,  0 min,  8.880 sec
 * ratio c/w:    22.821 speedup

normal termination of xtb
