      -----------------------------------------------------------      
     |                   =====================                   |     
     |                           x T B                           |     
     |                   =====================                   |     
     |                         S. Grimme                         |     
     |          Mulliken Center for Theoretical Chemistry        |     
     |                    University of Bonn                     |     
      -----------------------------------------------------------      

   * xtb version 6.7.1 (edcfbbe) compiled by 'albert@albert-system' on 2024-07-22

   xtb is free software: you can redistribute it and/or modify it under
   the terms of the GNU Lesser General Public License as published by
   the Free Software Foundation, either version 3 of the License, or
   (at your option) any later version.
   
   xtb is distributed in the hope that it will be useful,
   but WITHOUT ANY WARRANTY; without even the implied warranty of
   MERCHANTABILITY or FITNESS FOR A PARTICULAR PURPOSE.  See the
   GNU Lesser General Public License for more details.
   
   Cite this work as:
   * C. Bannwarth, E. Caldeweyher, S. Ehlert, A. Hansen, P. Pracht,
     J. Seibert, S. Spicher, S. Grimme, WIREs Comput. Mol. Sci., 2020, 11,
     e01493. DOI: 10.1002/wcms.1493
   
   for GFN2-xTB:
   * C. Bannwarth, S. Ehlert and S. Grimme., J. Chem. Theory Comput., 2019,
     15, 1652-1671. DOI: 10.1021/acs.jctc.8b01176
   for GFN1-xTB:
   * S. Grimme, C. Bannwarth, P. Shushkov, J. Chem. Theory Comput., 2017,
     13, 1989-2009. DOI: 10.1021/acs.jctc.7b00118
   for GFN0-xTB:
   * P. Pracht, E. Caldeweyher, S. Ehlert, S. Grimme, ChemRxiv, 2019, preprint.
     DOI: 10.26434/chemrxiv.8326202.v1
   for GFN-FF:
   * S. Spicher and S. Grimme, Angew. Chem. Int. Ed., 2020, 59, 15665-15673.
     DOI: 10.1002/anie.202004239
   
   for ALPB and GBSA implicit solvation:
   * S. Ehlert, M. Stahn, S. Spicher, S. Grimme, J. Chem. Theory Comput.,
     2021, 17, 4250-4261. DOI: 10.1021/acs.jctc.1c00471
   
   for ddCOSMO and CPCM-X implicit solvation:
   * M. Stahn, S. Ehlert, S. Grimme, J. Phys. Chem. A,
     2023, XX, XXXX-XXXX. DOI: 10.1021/acs.jpca.3c04382
   
   for DFT-D4:
   * E. Caldeweyher, C. Bannwarth and S. Grimme, J. Chem. Phys., 2017,
     147, 034112. DOI: 10.1063/1.4993215
   * E. Caldeweyher, S. Ehlert, A. Hansen, H. Neugebauer, S. Spicher,
     C. Bannwarth and S. Grimme, J. Chem. Phys., 2019, 150, 154122.
     DOI: 10.1063/1.5090222
   * E. Caldeweyher, J.-M. Mewes, S. Ehlert and S. Grimme, Phys. Chem. Chem. Phys.
     2020, 22, 8499-8512. DOI: 10.1039/D0CP00502A
   
   for sTDA-xTB:
   * S. Grimme and C. Bannwarth, J. Chem. Phys., 2016, 145, 054103.
     DOI: 10.1063/1.4959605
   
   in the mass-spec context:
   * V. Asgeirsson, C. Bauer and S. Grimme, Chem. Sci., 2017, 8, 4879.
     DOI: 10.1039/c7sc00601b
   * J. Koopman and S. Grimme, ACS Omega 2019, 4, 12, 15120-15133.
     DOI: 10.1021/acsomega.9b02011
   
   for metadynamics refer to:
   * S. Grimme, J. Chem. Theory Comput., 2019, 155, 2847-2862
     DOI: 10.1021/acs.jctc.9b00143
   
   for SPH calculations refer to:
   * S. Spicher and S. Grimme, J. Chem. Theory Comput., 2021, 17, 1701-1714
     DOI: 10.1021/acs.jctc.0c01306
   
   for ONIOM refer to:
   * C. Plett, A. Katbashev, S. Ehlert, S. Grimme, M. Bursch,
     Phys. Chem. Chem. Phys., 2023, 25, 17860-17868. DOI: 10.1039/D3CP02178E
   
   for DIPRO refer to:
   * J. Kohn, N. Gildemeister, S. Grimme, D. Fazzi, A. Hansen,
     J. Chem. Phys., 2023, just accepted.
   
   for PTB refer to:
   * S. Grimme, M. Mueller, A. Hansen, J. Chem. Phys., 2023, 158, 124111.
     DOI: 10.1063/5.0137838
   
   with help from (in alphabetical order)
   P. Atkinson, C. Bannwarth, F. Bohle, G. Brandenburg, E. Caldeweyher
   M. Checinski, S. Dohm, S. Ehlert, S. Ehrlich, I. Gerasimov, C. Hölzer
   A. Katbashev, J. Kohn, J. Koopman, C. Lavigne, S. Lehtola, F. März, M. Müller,
   F. Musil, H. Neugebauer, J. Pisarek, C. Plett, P. Pracht, F. Pultar,
   J. Seibert, P. Shushkov, S. Spicher, M. Stahn, M. Steiner, T. Strunk,
   J. Stückrath, T. Rose, and J. Unsleber
   
 * started run on 2025/12/01 at 14:22:17.955     
   ID    Z sym.   atoms
    1    8 O      1, 7, 16, 18, 26
    2    6 C      2, 3, 5, 6, 8-15, 17, 19-25, 27, 28
    3    7 N      4
    4    1 H      29-55

           -------------------------------------------------
          |                Calculation Setup                |
           -------------------------------------------------

          program call               : xtb pipeline_data/3_conformer_xyz/acrylates/rdkit/NHBABHBJROJJJN-JLHYYAGUSA-N_conf118.xyz --opt --gfn 2-xTB --iterations 250
          coordinate file            : pipeline_data/3_conformer_xyz/acrylates/rdkit/NHBABHBJROJJJN-JLHYYAGUSA-N_conf118.xyz
          omp threads                :                    24

########################################################################
[WARNING] Please study the warnings concerning your input carefully
-1- readin_getIntValue: could not parse '2-xTB'
########################################################################

           -------------------------------------------------
          |                 G F N 2 - x T B                 |
           -------------------------------------------------

        Reference                      10.1021/acs.jctc.8b01176
      * Hamiltonian:
        H0-scaling (s, p, d)           1.850000    2.230000    2.230000
        zeta-weighting                 0.500000
      * Dispersion:
        s8                             2.700000
        a1                             0.520000
        a2                             5.000000
        s9                             5.000000
      * Repulsion:
        kExp                           1.500000    1.000000
        rExp                           1.000000
      * Coulomb:
        alpha                          2.000000
        third order                    shell-resolved
        anisotropic                    true
        a3                             3.000000
        a5                             4.000000
        cn-shift                       1.200000
        cn-exp                         4.000000
        max-rad                        5.000000


          ...................................................
          :                      SETUP                      :
          :.................................................:
          :  # basis functions                 139          :
          :  # atomic orbitals                 139          :
          :  # shells                           83          :
          :  # electrons                       150          :
          :  max. iterations                   250          :
          :  Hamiltonian                  GFN2-xTB          :
          :  restarted?                      false          :
          :  GBSA solvation                  false          :
          :  PC potential                    false          :
          :  electronic temp.          300.0000000     K    :
          :  accuracy                    1.0000000          :
          :  -> integral cutoff          0.2500000E+02      :
          :  -> integral neglect         0.1000000E-07      :
          :  -> SCF convergence          0.1000000E-05 Eh   :
          :  -> wf. convergence          0.1000000E-03 e    :
          :  Broyden damping             0.4000000          :
          :  net charge                          0          :
          :  unpaired electrons                  0          :
          ...................................................

 iter      E             dE          RMSdq      gap      omega  full diag
   1    -85.0311504 -0.850312E+02  0.441E+00    1.48       0.0  T
   2    -85.1337374 -0.102587E+00  0.247E+00    2.07       1.0  T
   3    -85.1284261  0.531138E-02  0.116E+00    1.77       1.0  T
   4    -85.1449954 -0.165693E-01  0.242E-01    1.78       1.0  T
   5    -85.1465008 -0.150542E-02  0.891E-02    1.88       1.0  T
   6    -85.1465875 -0.867578E-04  0.466E-02    1.87       1.0  T
   7    -85.1466188 -0.313063E-04  0.243E-02    1.87       1.0  T
   8    -85.1466352 -0.163574E-04  0.705E-03    1.87       1.9  T
   9    -85.1466360 -0.782816E-06  0.242E-03    1.87       5.6  T
  10    -85.1466361 -0.760151E-07  0.133E-03    1.87      10.1  T
  11    -85.1466361 -0.284609E-07  0.451E-04    1.87      29.9  T
  12    -85.1466361 -0.254384E-08  0.161E-04    1.87      83.6  T

   *** convergence criteria satisfied after 12 iterations ***

         #    Occupation            Energy/Eh            Energy/eV
      -------------------------------------------------------------
         1        2.0000           -0.7176815             -19.5291
       ...           ...                  ...                  ...
        69        2.0000           -0.4142082             -11.2712
        70        2.0000           -0.4126494             -11.2288
        71        2.0000           -0.4107817             -11.1779
        72        2.0000           -0.4081487             -11.1063
        73        2.0000           -0.3994832             -10.8705
        74        2.0000           -0.3804559             -10.3527
        75        2.0000           -0.3643371              -9.9141 (HOMO)
        76                         -0.2956873              -8.0461 (LUMO)
        77                         -0.2380965              -6.4789
        78                         -0.2335388              -6.3549
        79                         -0.2245159              -6.1094
        80                         -0.2184493              -5.9443
       ...                                ...                  ...
       139                          0.7046423              19.1743
      -------------------------------------------------------------
                  HL-Gap            0.0686497 Eh            1.8681 eV
             Fermi-level           -0.3300122 Eh           -8.9801 eV

 SCC (total)                   0 d,  0 h,  0 min,  0.069 sec
 SCC setup                      ...        0 min,  0.000 sec (  0.473%)
 Dispersion                     ...        0 min,  0.001 sec (  1.332%)
 classical contributions        ...        0 min,  0.000 sec (  0.103%)
 integral evaluation            ...        0 min,  0.003 sec (  4.506%)
 iterations                     ...        0 min,  0.057 sec ( 82.239%)
 molecular gradient             ...        0 min,  0.007 sec ( 10.853%)
 printout                       ...        0 min,  0.000 sec (  0.447%)

         :::::::::::::::::::::::::::::::::::::::::::::::::::::
         ::                     SUMMARY                     ::
         :::::::::::::::::::::::::::::::::::::::::::::::::::::
         :: total energy             -84.024494163659 Eh    ::
         :: gradient norm              0.205405381861 Eh/a0 ::
         :: HOMO-LUMO gap              1.868054780774 eV    ::
         ::.................................................::
         :: SCC energy               -85.146326328048 Eh    ::
         :: -> isotropic ES            0.121326615931 Eh    ::
         :: -> anisotropic ES          0.008342301117 Eh    ::
         :: -> anisotropic XC          0.024576134525 Eh    ::
         :: -> dispersion             -0.057016773156 Eh    ::
         :: repulsion energy           1.121832164389 Eh    ::
         :: add. restraining           0.000000000000 Eh    ::
         :: total charge               0.000000000000 e     ::
         :::::::::::::::::::::::::::::::::::::::::::::::::::::

      ----------------------------------------------------------- 
     |                   =====================                   |
     |                        A N C O P T                        |
     |                   =====================                   |
     |               Approximate Normal Coordinate               |
     |                Rational Function Optimizer                |
      ----------------------------------------------------------- 
      ----------------------------------------------------------- 
     |                   =====================                   |
     |                        A N C O P T                        |
     |                   =====================                   |
     |               Approximate Normal Coordinate               |
     |                Rational Function Optimizer                |
      ----------------------------------------------------------- 

          ...................................................
          :                      SETUP                      :
          :.................................................:
          :   optimization level            normal          :
          :   max. optcycles                   200          :
          :   ANC micro-cycles                  20          :
          :   degrees of freedom               159          :
          :.................................................:
          :   RF solver                   davidson          :
          :   write xtbopt.log                true          :
          :   linear?                        false          :
          :   energy convergence         0.5000000E-05 Eh   :
          :   grad. convergence          0.1000000E-02 Eh/α :
          :   maxmium RF displ.          1.0000000          :
          :   Hlow (freq-cutoff)         0.1000000E-01      :
          :   Hmax (freq-cutoff)         5.0000000          :
          :   S6 in model hess.         20.0000000          :
          ...................................................

generating ANC from exact Hessian ...
Using Lindh-Hessian (1995)
 Shifting diagonal of input Hessian by   9.936997424588092E-003
 Lowest  eigenvalues of input Hessian
    0.000000    0.000000    0.000000    0.000000    0.000000    0.000000
    0.010000    0.010053    0.010216    0.010423    0.010957    0.011171
    0.011235    0.011681    0.011977    0.012099    0.012685    0.012939
 Highest eigenvalues
    1.973434    1.998521    2.001813    2.077955    2.085749    2.143313
 

........................................................................
.............................. CYCLE    1 ..............................
........................................................................

 iter      E             dE          RMSdq      gap      omega  full diag
   1    -85.1466361 -0.851466E+02  0.745E-05    1.87       0.0  T
   2    -85.1466361 -0.691074E-10  0.495E-05    1.87     272.3  T
   3    -85.1466361 -0.723901E-10  0.307E-05    1.87     439.9  T
     SCC iter.                  ...        0 min,  0.013 sec
     gradient                   ...        0 min,  0.006 sec
 * total energy  :   -84.0244942 Eh     change       -0.6417196E-09 Eh
   gradient norm :     0.2054077 Eh/α   predicted     0.0000000E+00 (-100.00%)
   displ. norm   :     0.3696487 α      lambda       -0.4172331E-01
   maximum displ.:     0.1060160 α      in ANC's #30, #44, #45, ...

........................................................................
.............................. CYCLE    2 ..............................
........................................................................

 iter      E             dE          RMSdq      gap      omega  full diag
   1    -85.1783660 -0.851784E+02  0.258E-01    1.96       0.0  T
   2    -85.1792862 -0.920187E-03  0.171E-01    2.04       1.0  T
   3    -85.1794726 -0.186341E-03  0.917E-02    1.99       1.0  T
   4    -85.1795324 -0.598402E-04  0.334E-02    2.02       1.0  T
   5    -85.1795945 -0.621248E-04  0.732E-03    2.01       1.8  T
   6    -85.1795955 -0.938687E-06  0.405E-03    2.01       3.3  T
   7    -85.1795958 -0.288695E-06  0.179E-03    2.01       7.5  T
   8    -85.1795958 -0.230278E-07  0.840E-04    2.01      16.0  T
   9    -85.1795958 -0.128407E-07  0.385E-04    2.01      35.0  T
     SCC iter.                  ...        0 min,  0.038 sec
     gradient                   ...        0 min,  0.007 sec
 * total energy  :   -84.0538831 Eh     change       -0.2938891E-01 Eh
   gradient norm :     0.0866316 Eh/α   predicted    -0.2373757E-01 ( -19.23%)
   displ. norm   :     0.3582943 α      lambda       -0.1398353E-01
   maximum displ.:     0.1279691 α      in ANC's #30, #44, #22, ...

........................................................................
.............................. CYCLE    3 ..............................
........................................................................

 iter      E             dE          RMSdq      gap      omega  full diag
   1    -85.1942208 -0.851942E+02  0.186E-01    2.04       0.0  T
   2    -85.1948455 -0.624715E-03  0.123E-01    2.11       1.0  T
   3    -85.1950278 -0.182289E-03  0.669E-02    2.07       1.0  T
   4    -85.1950371 -0.938064E-05  0.285E-02    2.09       1.0  T
   5    -85.1950767 -0.395203E-04  0.570E-03    2.08       2.4  T
   6    -85.1950774 -0.726552E-06  0.315E-03    2.08       4.3  T
   7    -85.1950777 -0.272383E-06  0.128E-03    2.08      10.5  T
   8    -85.1950777 -0.216760E-07  0.747E-04    2.08      18.1  T
   9    -85.1950777 -0.114322E-07  0.265E-04    2.08      50.9  T
     SCC iter.                  ...        0 min,  0.036 sec
     gradient                   ...        0 min,  0.006 sec
 * total energy  :   -84.0621219 Eh     change       -0.8238863E-02 Eh
   gradient norm :     0.0190572 Eh/α   predicted    -0.7889333E-02 (  -4.24%)
   displ. norm   :     0.3245870 α      lambda       -0.2565708E-02
   maximum displ.:     0.1170608 α      in ANC's #5, #23, #6, ...

........................................................................
.............................. CYCLE    4 ..............................
........................................................................

 iter      E             dE          RMSdq      gap      omega  full diag
   1    -85.1922385 -0.851922E+02  0.816E-02    2.07       0.0  T
   2    -85.1922581 -0.195225E-04  0.493E-02    2.09       1.0  T
   3    -85.1922388  0.192491E-04  0.245E-02    2.08       1.0  T
   4    -85.1922644 -0.255613E-04  0.607E-03    2.09       2.2  T
   5    -85.1922660 -0.158399E-05  0.207E-03    2.08       6.5  T
   6    -85.1922660 -0.778393E-07  0.115E-03    2.08      11.7  T
   7    -85.1922661 -0.284586E-07  0.473E-04    2.08      28.5  T
   8    -85.1922661 -0.232342E-08  0.228E-04    2.08      59.3  T
     SCC iter.                  ...        0 min,  0.032 sec
     gradient                   ...        0 min,  0.007 sec
 * total energy  :   -84.0640101 Eh     change       -0.1888135E-02 Eh
   gradient norm :     0.0124200 Eh/α   predicted    -0.1418056E-02 ( -24.90%)
   displ. norm   :     0.4172258 α      lambda       -0.1753947E-02
   maximum displ.:     0.1870101 α      in ANC's #5, #14, #6, ...

........................................................................
.............................. CYCLE    5 ..............................
........................................................................

 iter      E             dE          RMSdq      gap      omega  full diag
   1    -85.1904859 -0.851905E+02  0.915E-02    2.08       0.0  T
   2    -85.1904918 -0.587580E-05  0.547E-02    2.09       1.0  T
   3    -85.1904872  0.462128E-05  0.111E-02    2.09       1.2  T
   4    -85.1904932 -0.597155E-05  0.374E-03    2.09       3.6  T
   5    -85.1904936 -0.408523E-06  0.181E-03    2.09       7.5  T
   6    -85.1904936 -0.376679E-07  0.934E-04    2.09      14.4  T
   7    -85.1904936 -0.182218E-07  0.375E-04    2.09      35.9  T
     SCC iter.                  ...        0 min,  0.030 sec
     gradient                   ...        0 min,  0.006 sec
 * total energy  :   -84.0652283 Eh     change       -0.1218231E-02 Eh
   gradient norm :     0.0183485 Eh/α   predicted    -0.1029639E-02 ( -15.48%)
   displ. norm   :     0.3835695 α      lambda       -0.1098147E-02
   maximum displ.:     0.2043510 α      in ANC's #5, #14, #6, ...

........................................................................
.............................. CYCLE    6 ..............................
........................................................................

 iter      E             dE          RMSdq      gap      omega  full diag
   1    -85.1921870 -0.851922E+02  0.795E-02    2.10       0.0  T
   2    -85.1921899 -0.286636E-05  0.476E-02    2.09       1.0  T
   3    -85.1921714  0.184977E-04  0.182E-02    2.10       1.0  T
   4    -85.1921924 -0.210130E-04  0.259E-03    2.09       5.2  T
   5    -85.1921925 -0.160735E-06  0.139E-03    2.09       9.7  T
   6    -85.1921926 -0.907761E-08  0.727E-04    2.09      18.6  T
   7    -85.1921926 -0.169467E-07  0.211E-04    2.09      63.9  T
     SCC iter.                  ...        0 min,  0.031 sec
     gradient                   ...        0 min,  0.006 sec
 * total energy  :   -84.0660991 Eh     change       -0.8708193E-03 Eh
   gradient norm :     0.0153484 Eh/α   predicted    -0.6298570E-03 ( -27.67%)
   displ. norm   :     0.5146265 α      lambda       -0.1320454E-02
   maximum displ.:     0.2917312 α      in ANC's #5, #14, #6, ...

........................................................................
.............................. CYCLE    7 ..............................
........................................................................

 iter      E             dE          RMSdq      gap      omega  full diag
   1    -85.1945234 -0.851945E+02  0.108E-01    2.11       0.0  T
   2    -85.1945293 -0.586050E-05  0.648E-02    2.10       1.0  T
   3    -85.1944903  0.389455E-04  0.269E-02    2.11       1.0  T
   4    -85.1945346 -0.442984E-04  0.369E-03    2.10       3.7  T
   5    -85.1945349 -0.303356E-06  0.197E-03    2.10       6.9  T
   6    -85.1945350 -0.210446E-07  0.968E-04    2.10      13.9  T
   7    -85.1945350 -0.276260E-07  0.328E-04    2.10      41.1  T
     SCC iter.                  ...        0 min,  0.031 sec
     gradient                   ...        0 min,  0.008 sec
 * total energy  :   -84.0672068 Eh     change       -0.1107667E-02 Eh
   gradient norm :     0.0157655 Eh/α   predicted    -0.8350845E-03 ( -24.61%)
   displ. norm   :     0.6268989 α      lambda       -0.1690559E-02
   maximum displ.:     0.3592044 α      in ANC's #5, #14, #7, ...

........................................................................
.............................. CYCLE    8 ..............................
........................................................................

 iter      E             dE          RMSdq      gap      omega  full diag
   1    -85.1980586 -0.851981E+02  0.137E-01    2.12       0.0  T
   2    -85.1980651 -0.650650E-05  0.815E-02    2.11       1.0  T
   3    -85.1980257  0.394277E-04  0.268E-02    2.12       1.0  T
   4    -85.1980701 -0.444033E-04  0.401E-03    2.11       3.4  T
   5    -85.1980704 -0.329379E-06  0.208E-03    2.11       6.5  T
   6    -85.1980705 -0.283025E-07  0.913E-04    2.11      14.8  T
   7    -85.1980705 -0.193746E-07  0.375E-04    2.11      36.0  T
     SCC iter.                  ...        0 min,  0.031 sec
     gradient                   ...        0 min,  0.006 sec
 * total energy  :   -84.0685031 Eh     change       -0.1296285E-02 Eh
   gradient norm :     0.0119737 Eh/α   predicted    -0.1177477E-02 (  -9.17%)
   displ. norm   :     0.7250765 α      lambda       -0.1798991E-02
   maximum displ.:     0.4161691 α      in ANC's #5, #7, #6, ...

........................................................................
.............................. CYCLE    9 ..............................
........................................................................

 iter      E             dE          RMSdq      gap      omega  full diag
   1    -85.1920873 -0.851921E+02  0.165E-01    2.12       0.0  T
   2    -85.1921031 -0.157880E-04  0.975E-02    2.12       1.0  T
   3    -85.1920873  0.157239E-04  0.198E-02    2.12       1.0  T
   4    -85.1921078 -0.204846E-04  0.688E-03    2.12       2.0  T
   5    -85.1921089 -0.108237E-05  0.306E-03    2.12       4.4  T
   6    -85.1921090 -0.132229E-06  0.151E-03    2.12       8.9  T
   7    -85.1921091 -0.202149E-07  0.559E-04    2.12      24.1  T
   8    -85.1921091 -0.709549E-08  0.191E-04    2.12      70.6  T
     SCC iter.                  ...        0 min,  0.039 sec
     gradient                   ...        0 min,  0.009 sec
 * total energy  :   -84.0692954 Eh     change       -0.7923153E-03 Eh
   gradient norm :     0.0328306 Eh/α   predicted    -0.1372395E-02 (  73.21%)
   displ. norm   :     0.2717202 α      lambda       -0.1566989E-02
   maximum displ.:     0.1542027 α      in ANC's #5, #7, #23, ...

........................................................................
.............................. CYCLE   10 ..............................
........................................................................

 iter      E             dE          RMSdq      gap      omega  full diag
   1    -85.2001678 -0.852002E+02  0.710E-02    2.12       0.0  T
   2    -85.2001733 -0.552982E-05  0.416E-02    2.12       1.0  T
   3    -85.2001697  0.364417E-05  0.101E-02    2.12       1.3  T
   4    -85.2001746 -0.493654E-05  0.352E-03    2.12       3.8  T
   5    -85.2001750 -0.359672E-06  0.162E-03    2.12       8.3  T
   6    -85.2001750 -0.390250E-07  0.828E-04    2.12      16.3  T
   7    -85.2001750 -0.903947E-08  0.431E-04    2.12      31.3  T
     SCC iter.                  ...        0 min,  0.043 sec
     gradient                   ...        0 min,  0.009 sec
 * total energy  :   -84.0703533 Eh     change       -0.1057953E-02 Eh
   gradient norm :     0.0132174 Eh/α   predicted    -0.8413420E-03 ( -20.47%)
   displ. norm   :     0.5689853 α      lambda       -0.1315278E-02
   maximum displ.:     0.3135071 α      in ANC's #5, #7, #6, ...

........................................................................
.............................. CYCLE   11 ..............................
........................................................................

 iter      E             dE          RMSdq      gap      omega  full diag
   1    -85.1970969 -0.851971E+02  0.129E-01    2.11       0.0  T
   2    -85.1971048 -0.791364E-05  0.764E-02    2.12       1.0  T
   3    -85.1971049 -0.108289E-06  0.801E-03    2.12       1.7  T
   4    -85.1971066 -0.166957E-05  0.408E-03    2.12       3.3  T
   5    -85.1971069 -0.288067E-06  0.216E-03    2.12       6.3  T
   6    -85.1971070 -0.878727E-07  0.949E-04    2.12      14.2  T
   7    -85.1971070 -0.951029E-08  0.416E-04    2.12      32.4  T
     SCC iter.                  ...        0 min,  0.035 sec
     gradient                   ...        0 min,  0.009 sec
 * total energy  :   -84.0709336 Eh     change       -0.5802687E-03 Eh
   gradient norm :     0.0239333 Eh/α   predicted    -0.8705498E-03 (  50.03%)
   displ. norm   :     0.4522350 α      lambda       -0.1384153E-02
   maximum displ.:     0.2634633 α      in ANC's #5, #7, #6, ...

........................................................................
.............................. CYCLE   12 ..............................
........................................................................

 iter      E             dE          RMSdq      gap      omega  full diag
   1    -85.2000863 -0.852001E+02  0.104E-01    2.11       0.0  T
   2    -85.2000917 -0.533558E-05  0.612E-02    2.11       1.0  T
   3    -85.2000909  0.796030E-06  0.771E-03    2.12       1.7  T
   4    -85.2000929 -0.202694E-05  0.372E-03    2.11       3.6  T
   5    -85.2000932 -0.331641E-06  0.186E-03    2.11       7.2  T
   6    -85.2000933 -0.711543E-07  0.785E-04    2.11      17.2  T
   7    -85.2000933 -0.444840E-08  0.349E-04    2.11      38.6  T
     SCC iter.                  ...        0 min,  0.051 sec
     gradient                   ...        0 min,  0.006 sec
 * total energy  :   -84.0718272 Eh     change       -0.8936357E-03 Eh
   gradient norm :     0.0092230 Eh/α   predicted    -0.8336223E-03 (  -6.72%)
   displ. norm   :     0.4273388 α      lambda       -0.6197156E-03
   maximum displ.:     0.2459149 α      in ANC's #5, #7, #3, ...

........................................................................
.............................. CYCLE   13 ..............................
........................................................................

 iter      E             dE          RMSdq      gap      omega  full diag
   1    -85.2020601 -0.852021E+02  0.876E-02    2.12       0.0  T
   2    -85.2020622 -0.206713E-05  0.518E-02    2.11       1.0  T
   3    -85.2020536  0.855839E-05  0.117E-02    2.12       1.2  T
   4    -85.2020636 -0.993129E-05  0.186E-03    2.11       7.2  T
   5    -85.2020636 -0.414561E-07  0.108E-03    2.11      12.5  T
   6    -85.2020636 -0.131234E-07  0.490E-04    2.11      27.5  T
   7    -85.2020636 -0.540979E-08  0.179E-04    2.11      75.2  T
     SCC iter.                  ...        0 min,  0.028 sec
     gradient                   ...        0 min,  0.008 sec
 * total energy  :   -84.0723183 Eh     change       -0.4910368E-03 Eh
   gradient norm :     0.0104604 Eh/α   predicted    -0.3664493E-03 ( -25.37%)
   displ. norm   :     0.4256010 α      lambda       -0.7169315E-03
   maximum displ.:     0.2034791 α      in ANC's #5, #7, #3, ...

........................................................................
.............................. CYCLE   14 ..............................
........................................................................

 iter      E             dE          RMSdq      gap      omega  full diag
   1    -85.2092921 -0.852093E+02  0.871E-02    2.12       0.0  T
   2    -85.2092970 -0.488132E-05  0.519E-02    2.11       1.0  T
   3    -85.2092780  0.189163E-04  0.178E-02    2.12       1.0  T
   4    -85.2093001 -0.220850E-04  0.243E-03    2.11       5.6  T
   5    -85.2093003 -0.165394E-06  0.126E-03    2.11      10.7  T
   6    -85.2093003 -0.118789E-07  0.676E-04    2.11      20.0  T
   7    -85.2093003 -0.977957E-08  0.251E-04    2.11      53.8  T
     SCC iter.                  ...        0 min,  0.028 sec
     gradient                   ...        0 min,  0.009 sec
 * total energy  :   -84.0727699 Eh     change       -0.4515968E-03 Eh
   gradient norm :     0.0086560 Eh/α   predicted    -0.4233995E-03 (  -6.24%)
   displ. norm   :     0.5871276 α      lambda       -0.5776951E-03
   maximum displ.:     0.3199337 α      in ANC's #5, #7, #13, ...

........................................................................
.............................. CYCLE   15 ..............................
........................................................................

 iter      E             dE          RMSdq      gap      omega  full diag
   1    -85.1980160 -0.851980E+02  0.125E-01    2.11       0.0  T
   2    -85.1980211 -0.513421E-05  0.739E-02    2.11       1.0  T
   3    -85.1980116  0.950411E-05  0.142E-02    2.11       1.0  T
   4    -85.1980229 -0.112928E-04  0.340E-03    2.11       4.0  T
   5    -85.1980232 -0.284169E-06  0.165E-03    2.11       8.2  T
   6    -85.1980232 -0.227673E-07  0.799E-04    2.11      16.9  T
   7    -85.1980232 -0.173275E-07  0.306E-04    2.11      44.1  T
     SCC iter.                  ...        0 min,  0.026 sec
     gradient                   ...        0 min,  0.006 sec
 * total energy  :   -84.0728638 Eh     change       -0.9393973E-04 Eh
   gradient norm :     0.0150163 Eh/α   predicted    -0.3884258E-03 ( 313.48%)
   displ. norm   :     0.1747650 α      lambda       -0.4670187E-03
   maximum displ.:     0.0768762 α      in ANC's #5, #6, #14, ...

........................................................................
.............................. CYCLE   16 ..............................
........................................................................

 iter      E             dE          RMSdq      gap      omega  full diag
   1    -85.2066891 -0.852067E+02  0.474E-02    2.12       0.0  T
   2    -85.2066917 -0.262575E-05  0.279E-02    2.11       1.0  T
   3    -85.2066909  0.783739E-06  0.524E-03    2.11       2.6  T
   4    -85.2066920 -0.108146E-05  0.197E-03    2.11       6.8  T
   5    -85.2066922 -0.178038E-06  0.875E-04    2.11      15.4  T
   6    -85.2066922 -0.819240E-08  0.393E-04    2.11      34.3  T
     SCC iter.                  ...        0 min,  0.020 sec
     gradient                   ...        0 min,  0.006 sec
 * total energy  :   -84.0731350 Eh     change       -0.2711449E-03 Eh
   gradient norm :     0.0062921 Eh/α   predicted    -0.2406430E-03 ( -11.25%)
   displ. norm   :     0.1546888 α      lambda       -0.1516163E-03
   maximum displ.:     0.0826827 α      in ANC's #3, #13, #14, ...

........................................................................
.............................. CYCLE   17 ..............................
........................................................................

 iter      E             dE          RMSdq      gap      omega  full diag
   1    -85.2082257 -0.852082E+02  0.398E-02    2.11       0.0  T
   2    -85.2082264 -0.728102E-06  0.236E-02    2.11       1.0  T
   3    -85.2082256  0.826341E-06  0.439E-03    2.11       3.1  T
   4    -85.2082267 -0.107188E-05  0.132E-03    2.11      10.2  T
   5    -85.2082267 -0.416858E-07  0.746E-04    2.11      18.1  T
   6    -85.2082267 -0.836968E-08  0.319E-04    2.11      42.3  T
     SCC iter.                  ...        0 min,  0.018 sec
     gradient                   ...        0 min,  0.006 sec
 * total energy  :   -84.0732467 Eh     change       -0.1116903E-03 Eh
   gradient norm :     0.0039930 Eh/α   predicted    -0.7762981E-04 ( -30.50%)
   displ. norm   :     0.3213199 α      lambda       -0.2269253E-03
   maximum displ.:     0.1703647 α      in ANC's #3, #13, #8, ...

........................................................................
.............................. CYCLE   18 ..............................
........................................................................

 iter      E             dE          RMSdq      gap      omega  full diag
   1    -85.2086492 -0.852086E+02  0.843E-02    2.11       0.0  T
   2    -85.2086506 -0.139266E-05  0.499E-02    2.11       1.0  T
   3    -85.2086486  0.201177E-05  0.631E-03    2.11       2.1  T
   4    -85.2086511 -0.254543E-05  0.177E-03    2.11       7.6  T
   5    -85.2086512 -0.818866E-07  0.980E-04    2.11      13.8  T
   6    -85.2086512 -0.785104E-08  0.423E-04    2.11      31.9  T
     SCC iter.                  ...        0 min,  0.032 sec
     gradient                   ...        0 min,  0.015 sec
 * total energy  :   -84.0734016 Eh     change       -0.1549133E-03 Eh
   gradient norm :     0.0058897 Eh/α   predicted    -0.1251831E-03 ( -19.19%)
   displ. norm   :     0.2854780 α      lambda       -0.1872039E-03
   maximum displ.:     0.1572463 α      in ANC's #3, #13, #8, ...

........................................................................
.............................. CYCLE   19 ..............................
........................................................................

 iter      E             dE          RMSdq      gap      omega  full diag
   1    -85.2063922 -0.852064E+02  0.806E-02    2.11       0.0  T
   2    -85.2063934 -0.117289E-05  0.477E-02    2.11       1.0  T
   3    -85.2063922  0.111962E-05  0.507E-03    2.11       2.7  T
   4    -85.2063938 -0.159998E-05  0.177E-03    2.11       7.6  T
   5    -85.2063939 -0.639231E-07  0.966E-04    2.11      14.0  T
   6    -85.2063939 -0.607805E-08  0.418E-04    2.11      32.3  T
     SCC iter.                  ...        0 min,  0.018 sec
     gradient                   ...        0 min,  0.009 sec
 * total energy  :   -84.0735304 Eh     change       -0.1288013E-03 Eh
   gradient norm :     0.0063552 Eh/α   predicted    -0.1012315E-03 ( -21.40%)
   displ. norm   :     0.2525650 α      lambda       -0.1594731E-03
   maximum displ.:     0.1402399 α      in ANC's #3, #13, #8, ...

........................................................................
.............................. CYCLE   20 ..............................
........................................................................

 iter      E             dE          RMSdq      gap      omega  full diag
   1    -85.2046708 -0.852047E+02  0.703E-02    2.11       0.0  T
   2    -85.2046718 -0.100025E-05  0.415E-02    2.11       1.0  T
   3    -85.2046708  0.103862E-05  0.514E-03    2.11       2.6  T
   4    -85.2046721 -0.129455E-05  0.165E-03    2.11       8.2  T
   5    -85.2046721 -0.819696E-07  0.756E-04    2.11      17.8  T
   6    -85.2046721 -0.116840E-08  0.369E-04    2.11      36.5  T
     SCC iter.                  ...        0 min,  0.035 sec
     gradient                   ...        0 min,  0.006 sec
 * total energy  :   -84.0736514 Eh     change       -0.1210631E-03 Eh
   gradient norm :     0.0064486 Eh/α   predicted    -0.8482502E-04 ( -29.93%)
   displ. norm   :     0.3000568 α      lambda       -0.2108544E-03
   maximum displ.:     0.1594433 α      in ANC's #3, #8, #13, ...
 * RMSD in coord.:     0.7476986 α      energy gain  -0.4915727E-01 Eh

generating ANC from exact Hessian ...
Using Lindh-Hessian (1995)
 Shifting diagonal of input Hessian by   9.950849890126527E-003
 Lowest  eigenvalues of input Hessian
    0.000000    0.000000    0.000000    0.000000    0.000000    0.010000
    0.000000    0.010070    0.010243    0.010565    0.011117    0.011354
    0.011424    0.011865    0.012104    0.012395    0.012414    0.013132
 Highest eigenvalues
    1.979615    2.005567    2.021158    2.024148    2.153375    2.203621
 

........................................................................
.............................. CYCLE   21 ..............................
........................................................................

 iter      E             dE          RMSdq      gap      omega  full diag
   1    -85.2043689 -0.852044E+02  0.812E-02    2.11       0.0  T
   2    -85.2043701 -0.116929E-05  0.479E-02    2.11       1.0  T
   3    -85.2043697  0.436935E-06  0.454E-03    2.11       3.0  T
   4    -85.2043705 -0.837869E-06  0.146E-03    2.11       9.2  T
   5    -85.2043705 -0.209968E-07  0.832E-04    2.11      16.2  T
   6    -85.2043705 -0.733966E-08  0.349E-04    2.11      38.6  T
     SCC iter.                  ...        0 min,  0.018 sec
     gradient                   ...        0 min,  0.006 sec
 * total energy  :   -84.0738005 Eh     change       -0.1490230E-03 Eh
   gradient norm :     0.0054989 Eh/α   predicted     0.0000000E+00 (-100.00%)
   displ. norm   :     0.0651084 α      lambda       -0.1246619E-03
   maximum displ.:     0.0271017 α      in ANC's #7, #11, #14, ...

........................................................................
.............................. CYCLE   22 ..............................
........................................................................

 iter      E             dE          RMSdq      gap      omega  full diag
   1    -85.2065439 -0.852065E+02  0.215E-02    2.11       0.0  T
   2    -85.2065442 -0.292596E-06  0.129E-02    2.11       1.0  T
   3    -85.2065439  0.270077E-06  0.260E-03    2.11       5.2  T
   4    -85.2065443 -0.342213E-06  0.929E-04    2.11      14.5  T
   5    -85.2065443 -0.278651E-07  0.440E-04    2.11      30.6  T
     SCC iter.                  ...        0 min,  0.020 sec
     gradient                   ...        0 min,  0.014 sec
 * total energy  :   -84.0739005 Eh     change       -0.1000518E-03 Eh
   gradient norm :     0.0025179 Eh/α   predicted    -0.6261334E-04 ( -37.42%)
   displ. norm   :     0.1702577 α      lambda       -0.1836950E-03
   maximum displ.:     0.0795407 α      in ANC's #7, #11, #14, ...

........................................................................
.............................. CYCLE   23 ..............................
........................................................................

 iter      E             dE          RMSdq      gap      omega  full diag
   1    -85.2083851 -0.852084E+02  0.511E-02    2.11       0.0  T
   2    -85.2083863 -0.119241E-05  0.305E-02    2.11       1.0  T
   3    -85.2083854  0.860608E-06  0.492E-03    2.11       2.7  T
   4    -85.2083866 -0.116301E-05  0.190E-03    2.11       7.1  T
   5    -85.2083867 -0.106743E-06  0.956E-04    2.11      14.1  T
   6    -85.2083867 -0.550192E-08  0.392E-04    2.11      34.4  T
     SCC iter.                  ...        0 min,  0.048 sec
     gradient                   ...        0 min,  0.011 sec
 * total energy  :   -84.0740237 Eh     change       -0.1231954E-03 Eh
   gradient norm :     0.0023533 Eh/α   predicted    -0.9451045E-04 ( -23.28%)
   displ. norm   :     0.1577694 α      lambda       -0.8590755E-04
   maximum displ.:     0.0809968 α      in ANC's #7, #11, #14, ...

........................................................................
.............................. CYCLE   24 ..............................
........................................................................

 iter      E             dE          RMSdq      gap      omega  full diag
   1    -85.2080640 -0.852081E+02  0.455E-02    2.11       0.0  T
   2    -85.2080645 -0.531212E-06  0.270E-02    2.11       1.0  T
   3    -85.2080643  0.212422E-06  0.289E-03    2.11       4.7  T
   4    -85.2080647 -0.381461E-06  0.122E-03    2.11      11.0  T
   5    -85.2080647 -0.281215E-07  0.689E-04    2.11      19.6  T
   6    -85.2080647 -0.595951E-08  0.271E-04    2.11      49.8  T
     SCC iter.                  ...        0 min,  0.021 sec
     gradient                   ...        0 min,  0.007 sec
 * total energy  :   -84.0740886 Eh     change       -0.6494330E-04 Eh
   gradient norm :     0.0035219 Eh/α   predicted    -0.4439419E-04 ( -31.64%)
   displ. norm   :     0.1963069 α      lambda       -0.9139663E-04
   maximum displ.:     0.1034032 α      in ANC's #7, #11, #3, ...

........................................................................
.............................. CYCLE   25 ..............................
........................................................................

 iter      E             dE          RMSdq      gap      omega  full diag
   1    -85.2070340 -0.852070E+02  0.559E-02    2.12       0.0  T
   2    -85.2070345 -0.455509E-06  0.330E-02    2.12       1.0  T
   3    -85.2070343  0.187179E-06  0.281E-03    2.12       4.8  T
   4    -85.2070347 -0.383752E-06  0.105E-03    2.12      12.8  T
   5    -85.2070347 -0.813282E-08  0.539E-04    2.12      25.0  T
   6    -85.2070347 -0.387895E-08  0.222E-04    2.12      60.7  T
     SCC iter.                  ...        0 min,  0.021 sec
     gradient                   ...        0 min,  0.006 sec
 * total energy  :   -84.0741585 Eh     change       -0.6985402E-04 Eh
   gradient norm :     0.0036289 Eh/α   predicted    -0.4746145E-04 ( -32.06%)
   displ. norm   :     0.2216469 α      lambda       -0.9713838E-04
   maximum displ.:     0.1174577 α      in ANC's #7, #3, #14, ...

........................................................................
.............................. CYCLE   26 ..............................
........................................................................

 iter      E             dE          RMSdq      gap      omega  full diag
   1    -85.2061335 -0.852061E+02  0.627E-02    2.12       0.0  T
   2    -85.2061340 -0.487934E-06  0.370E-02    2.12       1.0  T
   3    -85.2061338  0.266801E-06  0.308E-03    2.12       4.4  T
   4    -85.2061342 -0.486009E-06  0.972E-04    2.12      13.9  T
   5    -85.2061342 -0.632900E-08  0.444E-04    2.12      30.4  T
     SCC iter.                  ...        0 min,  0.018 sec
     gradient                   ...        0 min,  0.007 sec
 * total energy  :   -84.0742313 Eh     change       -0.7283539E-04 Eh
   gradient norm :     0.0023255 Eh/α   predicted    -0.5096290E-04 ( -30.03%)
   displ. norm   :     0.2385702 α      lambda       -0.8046879E-04
   maximum displ.:     0.1232720 α      in ANC's #7, #3, #2, ...

........................................................................
.............................. CYCLE   27 ..............................
........................................................................

 iter      E             dE          RMSdq      gap      omega  full diag
   1    -85.2058284 -0.852058E+02  0.664E-02    2.12       0.0  T
   2    -85.2058289 -0.522668E-06  0.392E-02    2.12       1.0  T
   3    -85.2058286  0.312906E-06  0.319E-03    2.12       4.2  T
   4    -85.2058292 -0.549691E-06  0.101E-03    2.12      13.3  T
   5    -85.2058292 -0.704813E-08  0.509E-04    2.12      26.5  T
   6    -85.2058292 -0.335179E-08  0.213E-04    2.12      63.4  T
     SCC iter.                  ...        0 min,  0.021 sec
     gradient                   ...        0 min,  0.009 sec
 * total energy  :   -84.0742937 Eh     change       -0.6237570E-04 Eh
   gradient norm :     0.0024171 Eh/α   predicted    -0.4252554E-04 ( -31.82%)
   displ. norm   :     0.2757797 α      lambda       -0.8517234E-04
   maximum displ.:     0.1393691 α      in ANC's #7, #3, #2, ...

........................................................................
.............................. CYCLE   28 ..............................
........................................................................

 iter      E             dE          RMSdq      gap      omega  full diag
   1    -85.2060209 -0.852060E+02  0.755E-02    2.12       0.0  T
   2    -85.2060216 -0.688655E-06  0.446E-02    2.12       1.0  T
   3    -85.2060210  0.587678E-06  0.389E-03    2.12       3.5  T
   4    -85.2060220 -0.907143E-06  0.124E-03    2.12      10.9  T
   5    -85.2060220 -0.134922E-07  0.715E-04    2.12      18.9  T
   6    -85.2060220 -0.780450E-08  0.303E-04    2.12      44.5  T
     SCC iter.                  ...        0 min,  0.021 sec
     gradient                   ...        0 min,  0.007 sec
 * total energy  :   -84.0743607 Eh     change       -0.6701894E-04 Eh
   gradient norm :     0.0032143 Eh/α   predicted    -0.4582575E-04 ( -31.62%)
   displ. norm   :     0.3244772 α      lambda       -0.9929377E-04
   maximum displ.:     0.1602097 α      in ANC's #7, #3, #2, ...

........................................................................
.............................. CYCLE   29 ..............................
........................................................................

 iter      E             dE          RMSdq      gap      omega  full diag
   1    -85.2064229 -0.852064E+02  0.874E-02    2.12       0.0  T
   2    -85.2064238 -0.870887E-06  0.516E-02    2.12       1.0  T
   3    -85.2064228  0.974769E-06  0.476E-03    2.12       2.8  T
   4    -85.2064243 -0.142247E-05  0.146E-03    2.12       9.2  T
   5    -85.2064243 -0.147662E-07  0.881E-04    2.12      15.3  T
   6    -85.2064243 -0.141577E-07  0.317E-04    2.12      42.5  T
     SCC iter.                  ...        0 min,  0.019 sec
     gradient                   ...        0 min,  0.007 sec
 * total energy  :   -84.0744398 Eh     change       -0.7902981E-04 Eh
   gradient norm :     0.0038093 Eh/α   predicted    -0.5487504E-04 ( -30.56%)
   displ. norm   :     0.3522136 α      lambda       -0.1176222E-03
   maximum displ.:     0.1676769 α      in ANC's #7, #2, #3, ...

........................................................................
.............................. CYCLE   30 ..............................
........................................................................

 iter      E             dE          RMSdq      gap      omega  full diag
   1    -85.2074174 -0.852074E+02  0.925E-02    2.11       0.0  T
   2    -85.2074184 -0.102804E-05  0.546E-02    2.11       1.0  T
   3    -85.2074171  0.133444E-05  0.545E-03    2.12       2.5  T
   4    -85.2074190 -0.187936E-05  0.160E-03    2.11       8.4  T
   5    -85.2074190 -0.165984E-07  0.988E-04    2.11      13.7  T
   6    -85.2074190 -0.189376E-07  0.324E-04    2.11      41.6  T
     SCC iter.                  ...        0 min,  0.018 sec
     gradient                   ...        0 min,  0.006 sec
 * total energy  :   -84.0745313 Eh     change       -0.9150964E-04 Eh
   gradient norm :     0.0040007 Eh/α   predicted    -0.6612785E-04 ( -27.74%)
   displ. norm   :     0.3971117 α      lambda       -0.1145401E-03
   maximum displ.:     0.1883305 α      in ANC's #7, #2, #3, ...

........................................................................
.............................. CYCLE   31 ..............................
........................................................................

 iter      E             dE          RMSdq      gap      omega  full diag
   1    -85.2063856 -0.852064E+02  0.103E-01    2.11       0.0  T
   2    -85.2063869 -0.129340E-05  0.605E-02    2.11       1.0  T
   3    -85.2063853  0.159573E-05  0.593E-03    2.11       2.3  T
   4    -85.2063876 -0.222825E-05  0.165E-03    2.11       8.2  T
   5    -85.2063876 -0.225878E-07  0.101E-03    2.11      13.3  T
   6    -85.2063876 -0.181209E-07  0.382E-04    2.11      35.3  T
   7    -85.2063876 -0.451527E-08  0.133E-04    2.11     101.4  T
     SCC iter.                  ...        0 min,  0.021 sec
     gradient                   ...        0 min,  0.006 sec
 * total energy  :   -84.0746103 Eh     change       -0.7905357E-04 Eh
   gradient norm :     0.0033318 Eh/α   predicted    -0.6630390E-04 ( -16.13%)
   displ. norm   :     0.3184753 α      lambda       -0.1395675E-03
   maximum displ.:     0.1600842 α      in ANC's #2, #3, #7, ...

........................................................................
.............................. CYCLE   32 ..............................
........................................................................

 iter      E             dE          RMSdq      gap      omega  full diag
   1    -85.2112062 -0.852112E+02  0.756E-02    2.11       0.0  T
   2    -85.2112074 -0.120991E-05  0.447E-02    2.11       1.0  T
   3    -85.2112061  0.129146E-05  0.563E-03    2.11       2.4  T
   4    -85.2112079 -0.176365E-05  0.178E-03    2.11       7.6  T
   5    -85.2112079 -0.581448E-07  0.100E-03    2.11      13.4  T
   6    -85.2112080 -0.954927E-08  0.437E-04    2.11      30.8  T
   7    -85.2112080 -0.653446E-08  0.112E-04    2.11     120.1  T
     SCC iter.                  ...        0 min,  0.021 sec
     gradient                   ...        0 min,  0.006 sec
 * total energy  :   -84.0746436 Eh     change       -0.3326981E-04 Eh
   gradient norm :     0.0053742 Eh/α   predicted    -0.7687743E-04 ( 131.07%)
   displ. norm   :     0.2707176 α      lambda       -0.9179736E-04
   maximum displ.:     0.1379232 α      in ANC's #7, #2, #3, ...

........................................................................
.............................. CYCLE   33 ..............................
........................................................................

 iter      E             dE          RMSdq      gap      omega  full diag
   1    -85.2064528 -0.852065E+02  0.725E-02    2.11       0.0  T
   2    -85.2064536 -0.825734E-06  0.428E-02    2.11       1.0  T
   3    -85.2064527  0.929237E-06  0.474E-03    2.11       2.8  T
   4    -85.2064540 -0.128936E-05  0.117E-03    2.11      11.5  T
   5    -85.2064540 -0.148762E-07  0.684E-04    2.11      19.7  T
   6    -85.2064540 -0.320398E-08  0.296E-04    2.11      45.6  T
     SCC iter.                  ...        0 min,  0.018 sec
     gradient                   ...        0 min,  0.009 sec
 * total energy  :   -84.0746943 Eh     change       -0.5072488E-04 Eh
   gradient norm :     0.0031663 Eh/α   predicted    -0.4926630E-04 (  -2.88%)
   displ. norm   :     0.0572018 α      lambda       -0.5126889E-04
   maximum displ.:     0.0217645 α      in ANC's #9, #25, #16, ...

........................................................................
.............................. CYCLE   34 ..............................
........................................................................

 iter      E             dE          RMSdq      gap      omega  full diag
   1    -85.2075887 -0.852076E+02  0.175E-02    2.11       0.0  T
   2    -85.2075890 -0.254412E-06  0.105E-02    2.11       1.3  T
   3    -85.2075889  0.935142E-07  0.201E-03    2.11       6.7  T
   4    -85.2075891 -0.152825E-06  0.651E-04    2.11      20.7  T
   5    -85.2075891 -0.730061E-08  0.386E-04    2.11      35.0  T
     SCC iter.                  ...        0 min,  0.017 sec
     gradient                   ...        0 min,  0.009 sec
 * total energy  :   -84.0747189 Eh     change       -0.2460495E-04 Eh
   gradient norm :     0.0036999 Eh/α   predicted    -0.2571901E-04 (   4.53%)
   displ. norm   :     0.1159784 α      lambda       -0.4001000E-04
   maximum displ.:     0.0651642 α      in ANC's #2, #7, #3, ...

........................................................................
.............................. CYCLE   35 ..............................
........................................................................

 iter      E             dE          RMSdq      gap      omega  full diag
   1    -85.2079029 -0.852079E+02  0.276E-02    2.11       0.0  T
   2    -85.2079030 -0.101186E-06  0.163E-02    2.11       1.0  T
   3    -85.2079030  0.264810E-07  0.114E-03    2.11      11.8  T
   4    -85.2079030 -0.672486E-07  0.437E-04    2.11      30.9  T
   5    -85.2079030 -0.207514E-08  0.242E-04    2.11      55.8  T
     SCC iter.                  ...        0 min,  0.018 sec
     gradient                   ...        0 min,  0.007 sec
 * total energy  :   -84.0747541 Eh     change       -0.3512993E-04 Eh
   gradient norm :     0.0024121 Eh/α   predicted    -0.2027490E-04 ( -42.29%)
   displ. norm   :     0.3621715 α      lambda       -0.9982782E-04
   maximum displ.:     0.2083282 α      in ANC's #2, #7, #3, ...

........................................................................
.............................. CYCLE   36 ..............................
........................................................................

 iter      E             dE          RMSdq      gap      omega  full diag
   1    -85.2082292 -0.852082E+02  0.843E-02    2.11       0.0  T
   2    -85.2082300 -0.775597E-06  0.496E-02    2.11       1.0  T
   3    -85.2082298  0.219921E-06  0.329E-03    2.11       4.1  T
   4    -85.2082304 -0.587106E-06  0.126E-03    2.11      10.7  T
   5    -85.2082304 -0.106301E-07  0.652E-04    2.11      20.7  T
   6    -85.2082304 -0.593744E-08  0.271E-04    2.11      49.7  T
     SCC iter.                  ...        0 min,  0.021 sec
     gradient                   ...        0 min,  0.009 sec
 * total energy  :   -84.0748239 Eh     change       -0.6988813E-04 Eh
   gradient norm :     0.0028077 Eh/α   predicted    -0.5646376E-04 ( -19.21%)
   displ. norm   :     0.2802127 α      lambda       -0.5007893E-04
   maximum displ.:     0.1703285 α      in ANC's #2, #7, #3, ...

........................................................................
.............................. CYCLE   37 ..............................
........................................................................

 iter      E             dE          RMSdq      gap      omega  full diag
   1    -85.2082666 -0.852083E+02  0.632E-02    2.11       0.0  T
   2    -85.2082670 -0.390786E-06  0.372E-02    2.11       1.0  T
   3    -85.2082668  0.192419E-06  0.263E-03    2.11       5.1  T
   4    -85.2082672 -0.391972E-06  0.916E-04    2.11      14.7  T
   5    -85.2082672 -0.300649E-08  0.536E-04    2.11      25.2  T
     SCC iter.                  ...        0 min,  0.021 sec
     gradient                   ...        0 min,  0.013 sec
 * total energy  :   -84.0748631 Eh     change       -0.3916619E-04 Eh
   gradient norm :     0.0035560 Eh/α   predicted    -0.2700630E-04 ( -31.05%)
   displ. norm   :     0.2362867 α      lambda       -0.5775801E-04
   maximum displ.:     0.1535811 α      in ANC's #2, #1, #6, ...

........................................................................
.............................. CYCLE   38 ..............................
........................................................................

 iter      E             dE          RMSdq      gap      omega  full diag
   1    -85.2095980 -0.852096E+02  0.503E-02    2.11       0.0  T
   2    -85.2095983 -0.331190E-06  0.296E-02    2.11       1.0  T
   3    -85.2095982  0.120784E-06  0.232E-03    2.11       5.8  T
   4    -85.2095985 -0.273301E-06  0.819E-04    2.11      16.5  T
   5    -85.2095985 -0.275323E-08  0.405E-04    2.11      33.3  T
     SCC iter.                  ...        0 min,  0.031 sec
     gradient                   ...        0 min,  0.014 sec
 * total energy  :   -84.0749075 Eh     change       -0.4440421E-04 Eh
   gradient norm :     0.0029768 Eh/α   predicted    -0.3049766E-04 ( -31.32%)
   displ. norm   :     0.3579092 α      lambda       -0.6452684E-04
   maximum displ.:     0.2277775 α      in ANC's #2, #7, #3, ...

........................................................................
.............................. CYCLE   39 ..............................
........................................................................

 iter      E             dE          RMSdq      gap      omega  full diag
   1    -85.2077919 -0.852078E+02  0.793E-02    2.11       0.0  T
   2    -85.2077927 -0.748848E-06  0.466E-02    2.11       1.0  T
   3    -85.2077921  0.591588E-06  0.391E-03    2.11       3.4  T
   4    -85.2077930 -0.932743E-06  0.106E-03    2.11      12.7  T
   5    -85.2077930 -0.773689E-08  0.590E-04    2.11      22.9  T
   6    -85.2077930 -0.477567E-08  0.233E-04    2.11      57.8  T
     SCC iter.                  ...        0 min,  0.029 sec
     gradient                   ...        0 min,  0.007 sec
 * total energy  :   -84.0749525 Eh     change       -0.4500627E-04 Eh
   gradient norm :     0.0025114 Eh/α   predicted    -0.3640033E-04 ( -19.12%)
   displ. norm   :     0.1948974 α      lambda       -0.4588826E-04
   maximum displ.:     0.1366260 α      in ANC's #2, #1, #6, ...

........................................................................
.............................. CYCLE   40 ..............................
........................................................................

 iter      E             dE          RMSdq      gap      omega  full diag
   1    -85.2086966 -0.852087E+02  0.381E-02    2.11       0.0  T
   2    -85.2086968 -0.272053E-06  0.225E-02    2.11       1.0  T
   3    -85.2086968  0.868201E-07  0.209E-03    2.11       6.4  T
   4    -85.2086970 -0.208047E-06  0.794E-04    2.11      17.0  T
   5    -85.2086970 -0.341909E-08  0.395E-04    2.11      34.2  T
     SCC iter.                  ...        0 min,  0.015 sec
     gradient                   ...        0 min,  0.007 sec
 * total energy  :   -84.0749850 Eh     change       -0.3250291E-04 Eh
   gradient norm :     0.0021663 Eh/α   predicted    -0.2381746E-04 ( -26.72%)
   displ. norm   :     0.2288773 α      lambda       -0.3544589E-04
   maximum displ.:     0.1585663 α      in ANC's #2, #1, #7, ...

........................................................................
.............................. CYCLE   41 ..............................
........................................................................

 iter      E             dE          RMSdq      gap      omega  full diag
   1    -85.2084981 -0.852085E+02  0.463E-02    2.11       0.0  T
   2    -85.2084983 -0.281409E-06  0.273E-02    2.11       1.0  T
   3    -85.2084981  0.219626E-06  0.245E-03    2.11       5.5  T
   4    -85.2084985 -0.362743E-06  0.749E-04    2.11      18.0  T
   5    -85.2084985 -0.272273E-08  0.332E-04    2.11      40.6  T
     SCC iter.                  ...        0 min,  0.015 sec
     gradient                   ...        0 min,  0.007 sec
 * total energy  :   -84.0750135 Eh     change       -0.2844056E-04 Eh
   gradient norm :     0.0028160 Eh/α   predicted    -0.1865277E-04 ( -34.41%)
   displ. norm   :     0.2410588 α      lambda       -0.4648505E-04
   maximum displ.:     0.1711677 α      in ANC's #2, #1, #14, ...

........................................................................
.............................. CYCLE   42 ..............................
........................................................................

 iter      E             dE          RMSdq      gap      omega  full diag
   1    -85.2089658 -0.852090E+02  0.463E-02    2.11       0.0  T
   2    -85.2089661 -0.323325E-06  0.273E-02    2.11       1.0  T
   3    -85.2089657  0.365101E-06  0.297E-03    2.11       4.5  T
   4    -85.2089663 -0.539818E-06  0.858E-04    2.11      15.7  T
   5    -85.2089663 -0.429395E-09  0.490E-04    2.11      27.5  T
     SCC iter.                  ...        0 min,  0.024 sec
     gradient                   ...        0 min,  0.010 sec
 * total energy  :   -84.0750511 Eh     change       -0.3759790E-04 Eh
   gradient norm :     0.0026541 Eh/α   predicted    -0.2459447E-04 ( -34.59%)
   displ. norm   :     0.3272338 α      lambda       -0.6305204E-04
   maximum displ.:     0.2326804 α      in ANC's #2, #1, #14, ...
 * RMSD in coord.:     0.6233935 α      energy gain  -0.1399626E-02 Eh

generating ANC from exact Hessian ...
Using Lindh-Hessian (1995)
 Shifting diagonal of input Hessian by   9.933402789197528E-003
 Lowest  eigenvalues of input Hessian
    0.000000    0.000000    0.000000    0.000000    0.000000    0.000000
    0.010000    0.010047    0.010255    0.010495    0.011170    0.011357
    0.011469    0.011877    0.012131    0.012480    0.012535    0.013094
 Highest eigenvalues
    1.980469    2.010417    2.025740    2.026970    2.155131    2.211219
 

........................................................................
.............................. CYCLE   43 ..............................
........................................................................

 iter      E             dE          RMSdq      gap      omega  full diag
   1    -85.2086844 -0.852087E+02  0.629E-02    2.11       0.0  T
   2    -85.2086850 -0.613917E-06  0.371E-02    2.11       1.0  T
   3    -85.2086844  0.598728E-06  0.390E-03    2.11       3.5  T
   4    -85.2086853 -0.905691E-06  0.126E-03    2.11      10.7  T
   5    -85.2086853 -0.863402E-08  0.751E-04    2.11      18.0  T
   6    -85.2086853 -0.118334E-07  0.297E-04    2.11      45.4  T
     SCC iter.                  ...        0 min,  0.018 sec
     gradient                   ...        0 min,  0.007 sec
 * total energy  :   -84.0750988 Eh     change       -0.4776447E-04 Eh
   gradient norm :     0.0022376 Eh/α   predicted     0.0000000E+00 (-100.00%)
   displ. norm   :     0.0277589 α      lambda       -0.1798572E-04
   maximum displ.:     0.0129196 α      in ANC's #2, #17, #11, ...

........................................................................
.............................. CYCLE   44 ..............................
........................................................................

 iter      E             dE          RMSdq      gap      omega  full diag
   1    -85.2090439 -0.852090E+02  0.755E-03    2.11       0.0  T
   2    -85.2090440 -0.283586E-07  0.450E-03    2.11       3.0  T
   3    -85.2090439  0.831620E-07  0.128E-03    2.11      10.5  T
   4    -85.2090440 -0.951779E-07  0.272E-04    2.11      49.5  T
   5    -85.2090440 -0.218881E-08  0.125E-04    2.11     108.1  T
     SCC iter.                  ...        0 min,  0.016 sec
     gradient                   ...        0 min,  0.007 sec
 * total energy  :   -84.0751138 Eh     change       -0.1495586E-04 Eh
   gradient norm :     0.0010629 Eh/α   predicted    -0.9072260E-05 ( -39.34%)
   displ. norm   :     0.1300843 α      lambda       -0.3533059E-04
   maximum displ.:     0.0631769 α      in ANC's #2, #17, #11, ...

........................................................................
.............................. CYCLE   45 ..............................
........................................................................

 iter      E             dE          RMSdq      gap      omega  full diag
   1    -85.2097190 -0.852097E+02  0.301E-02    2.11       0.0  T
   2    -85.2097193 -0.381827E-06  0.179E-02    2.11       1.0  T
   3    -85.2097187  0.673968E-06  0.376E-03    2.11       3.6  T
   4    -85.2097195 -0.813755E-06  0.105E-03    2.11      12.8  T
   5    -85.2097195 -0.270217E-07  0.534E-04    2.11      25.2  T
   6    -85.2097195 -0.347219E-08  0.199E-04    2.11      67.8  T
     SCC iter.                  ...        0 min,  0.018 sec
     gradient                   ...        0 min,  0.007 sec
 * total energy  :   -84.0751397 Eh     change       -0.2589670E-04 Eh
   gradient norm :     0.0026216 Eh/α   predicted    -0.1779877E-04 ( -31.27%)
   displ. norm   :     0.0335698 α      lambda       -0.1095295E-04
   maximum displ.:     0.0197080 α      in ANC's #2, #11, #14, ...

........................................................................
.............................. CYCLE   46 ..............................
........................................................................

 iter      E             dE          RMSdq      gap      omega  full diag
   1    -85.2095341 -0.852095E+02  0.657E-03    2.11       0.0  T
   2    -85.2095341 -0.202706E-07  0.393E-03    2.11       3.4  T
   3    -85.2095341  0.110566E-07  0.624E-04    2.11      21.6  T
   4    -85.2095341 -0.178491E-07  0.253E-04    2.11      53.3  T
     SCC iter.                  ...        0 min,  0.012 sec
     gradient                   ...        0 min,  0.007 sec
 * total energy  :   -84.0751495 Eh     change       -0.9842115E-05 Eh
   gradient norm :     0.0018612 Eh/α   predicted    -0.5483314E-05 ( -44.29%)
   displ. norm   :     0.1812013 α      lambda       -0.3254292E-04
   maximum displ.:     0.1040529 α      in ANC's #2, #11, #14, ...

........................................................................
.............................. CYCLE   47 ..............................
........................................................................

 iter      E             dE          RMSdq      gap      omega  full diag
   1    -85.2085886 -0.852086E+02  0.349E-02    2.11       0.0  T
   2    -85.2085891 -0.526325E-06  0.209E-02    2.11       1.0  T
   3    -85.2085888  0.393445E-06  0.359E-03    2.11       3.8  T
   4    -85.2085893 -0.585330E-06  0.134E-03    2.11      10.1  T
   5    -85.2085894 -0.357133E-07  0.684E-04    2.11      19.7  T
   6    -85.2085894 -0.368959E-08  0.268E-04    2.11      50.4  T
     SCC iter.                  ...        0 min,  0.018 sec
     gradient                   ...        0 min,  0.007 sec
 * total energy  :   -84.0751739 Eh     change       -0.2433948E-04 Eh
   gradient norm :     0.0022171 Eh/α   predicted    -0.1651359E-04 ( -32.15%)
   displ. norm   :     0.0337698 α      lambda       -0.7403401E-05
   maximum displ.:     0.0222517 α      in ANC's #2, #11, #14, ...

........................................................................
.............................. CYCLE   48 ..............................
........................................................................

 iter      E             dE          RMSdq      gap      omega  full diag
   1    -85.2087931 -0.852088E+02  0.580E-03    2.11       0.0  T
   2    -85.2087931 -0.997741E-08  0.345E-03    2.11       3.9  T
   3    -85.2087931  0.401444E-08  0.422E-04    2.11      32.0  T
   4    -85.2087931 -0.858608E-08  0.172E-04    2.11      78.4  T
     SCC iter.                  ...        0 min,  0.013 sec
     gradient                   ...        0 min,  0.007 sec
 * total energy  :   -84.0751806 Eh     change       -0.6792668E-05 Eh
   gradient norm :     0.0016821 Eh/α   predicted    -0.3706571E-05 ( -45.43%)
   displ. norm   :     0.1362227 α      lambda       -0.2101339E-04
   maximum displ.:     0.0891762 α      in ANC's #2, #13, #14, ...

........................................................................
.............................. CYCLE   49 ..............................
........................................................................

 iter      E             dE          RMSdq      gap      omega  full diag
   1    -85.2096749 -0.852097E+02  0.225E-02    2.11       0.0  T
   2    -85.2096750 -0.154720E-06  0.134E-02    2.11       1.0  T
   3    -85.2096749  0.911321E-07  0.171E-03    2.11       7.9  T
   4    -85.2096751 -0.157723E-06  0.588E-04    2.11      22.9  T
   5    -85.2096751 -0.282324E-08  0.298E-04    2.11      45.2  T
     SCC iter.                  ...        0 min,  0.016 sec
     gradient                   ...        0 min,  0.006 sec
 * total energy  :   -84.0751985 Eh     change       -0.1786131E-04 Eh
   gradient norm :     0.0012654 Eh/α   predicted    -0.1059377E-04 ( -40.69%)
   displ. norm   :     0.0775926 α      lambda       -0.5373710E-05
   maximum displ.:     0.0542462 α      in ANC's #2, #14, #13, ...

........................................................................
.............................. CYCLE   50 ..............................
........................................................................

 iter      E             dE          RMSdq      gap      omega  full diag
   1    -85.2094243 -0.852094E+02  0.118E-02    2.11       0.0  T
   2    -85.2094243 -0.485888E-07  0.705E-03    2.11       1.9  T
   3    -85.2094243  0.718042E-08  0.829E-04    2.11      16.3  T
   4    -85.2094243 -0.287599E-07  0.387E-04    2.11      34.8  T
     SCC iter.                  ...        0 min,  0.013 sec
     gradient                   ...        0 min,  0.007 sec
 * total energy  :   -84.0752051 Eh     change       -0.6626841E-05 Eh
   gradient norm :     0.0009228 Eh/α   predicted    -0.2707494E-05 ( -59.14%)
   displ. norm   :     0.0503551 α      lambda       -0.4779310E-05
   maximum displ.:     0.0389170 α      in ANC's #2, #5, #14, ...

........................................................................
.............................. CYCLE   51 ..............................
........................................................................

 iter      E             dE          RMSdq      gap      omega  full diag
   1    -85.2092465 -0.852092E+02  0.787E-03    2.11       0.0  T
   2    -85.2092465 -0.222753E-07  0.471E-03    2.11       2.9  T
   3    -85.2092465  0.219998E-07  0.789E-04    2.11      17.1  T
   4    -85.2092465 -0.323797E-07  0.291E-04    2.11      46.4  T
     SCC iter.                  ...        0 min,  0.013 sec
     gradient                   ...        0 min,  0.007 sec
 * total energy  :   -84.0752113 Eh     change       -0.6128389E-05 Eh
   gradient norm :     0.0003105 Eh/α   predicted    -0.2394459E-05 ( -60.93%)
   displ. norm   :     0.0555984 α      lambda       -0.5338625E-05
   maximum displ.:     0.0422540 α      in ANC's #2, #1, #10, ...

........................................................................
.............................. CYCLE   52 ..............................
........................................................................

 iter      E             dE          RMSdq      gap      omega  full diag
   1    -85.2091338 -0.852091E+02  0.117E-02    2.11       0.0  T
   2    -85.2091339 -0.252815E-07  0.696E-03    2.11       1.9  T
   3    -85.2091338  0.114919E-07  0.670E-04    2.11      20.1  T
   4    -85.2091339 -0.213353E-07  0.308E-04    2.11      43.8  T
     SCC iter.                  ...        0 min,  0.013 sec
     gradient                   ...        0 min,  0.007 sec
 * total energy  :   -84.0752182 Eh     change       -0.6967944E-05 Eh
   gradient norm :     0.0005720 Eh/α   predicted    -0.2674902E-05 ( -61.61%)
   displ. norm   :     0.0718165 α      lambda       -0.6137452E-05
   maximum displ.:     0.0520870 α      in ANC's #2, #1, #11, ...

........................................................................
.............................. CYCLE   53 ..............................
........................................................................

 iter      E             dE          RMSdq      gap      omega  full diag
   1    -85.2089840 -0.852090E+02  0.163E-02    2.11       0.0  T
   2    -85.2089841 -0.363637E-07  0.962E-03    2.11       1.4  T
   3    -85.2089840  0.270346E-07  0.893E-04    2.11      15.1  T
   4    -85.2089841 -0.449717E-07  0.364E-04    2.11      37.0  T
     SCC iter.                  ...        0 min,  0.016 sec
     gradient                   ...        0 min,  0.006 sec
 * total energy  :   -84.0752263 Eh     change       -0.8027643E-05 Eh
   gradient norm :     0.0008095 Eh/α   predicted    -0.3077864E-05 ( -61.66%)
   displ. norm   :     0.0788984 α      lambda       -0.5974884E-05
   maximum displ.:     0.0574928 α      in ANC's #2, #1, #11, ...

........................................................................
.............................. CYCLE   54 ..............................
........................................................................

 iter      E             dE          RMSdq      gap      omega  full diag
   1    -85.2090276 -0.852090E+02  0.174E-02    2.11       0.0  T
   2    -85.2090276 -0.401671E-07  0.103E-02    2.11       1.3  T
   3    -85.2090275  0.501465E-07  0.111E-03    2.11      12.1  T
   4    -85.2090276 -0.736336E-07  0.388E-04    2.11      34.8  T
   5    -85.2090276 -0.111071E-08  0.212E-04    2.11      63.7  T
     SCC iter.                  ...        0 min,  0.016 sec
     gradient                   ...        0 min,  0.006 sec
 * total energy  :   -84.0752341 Eh     change       -0.7881271E-05 Eh
   gradient norm :     0.0007141 Eh/α   predicted    -0.2995949E-05 ( -61.99%)
   displ. norm   :     0.0738404 α      lambda       -0.5146420E-05
   maximum displ.:     0.0554872 α      in ANC's #2, #1, #11, ...

........................................................................
.............................. CYCLE   55 ..............................
........................................................................

 iter      E             dE          RMSdq      gap      omega  full diag
   1    -85.2090948 -0.852091E+02  0.145E-02    2.11       0.0  T
   2    -85.2090948 -0.339981E-07  0.860E-03    2.11       1.6  T
   3    -85.2090948  0.452522E-07  0.100E-03    2.11      13.5  T
   4    -85.2090948 -0.642281E-07  0.331E-04    2.11      40.8  T
   5    -85.2090948 -0.845276E-09  0.191E-04    2.11      70.7  T
     SCC iter.                  ...        0 min,  0.022 sec
     gradient                   ...        0 min,  0.006 sec
 * total energy  :   -84.0752411 Eh     change       -0.6930664E-05 Eh
   gradient norm :     0.0004665 Eh/α   predicted    -0.2582114E-05 ( -62.74%)
   displ. norm   :     0.0642642 α      lambda       -0.4365639E-05
   maximum displ.:     0.0498222 α      in ANC's #2, #1, #11, ...

........................................................................
.............................. CYCLE   56 ..............................
........................................................................

 iter      E             dE          RMSdq      gap      omega  full diag
   1    -85.2092085 -0.852092E+02  0.103E-02    2.11       0.0  T
   2    -85.2092086 -0.221651E-07  0.610E-03    2.11       2.2  T
   3    -85.2092085  0.287526E-07  0.803E-04    2.11      16.8  T
   4    -85.2092086 -0.401330E-07  0.262E-04    2.11      51.5  T
     SCC iter.                  ...        0 min,  0.018 sec
     gradient                   ...        0 min,  0.006 sec
 * total energy  :   -84.0752471 Eh     change       -0.6039321E-05 Eh
   gradient norm :     0.0002226 Eh/α   predicted    -0.2190792E-05 ( -63.72%)
   displ. norm   :     0.0582800 α      lambda       -0.3951709E-05
   maximum displ.:     0.0455588 α      in ANC's #2, #1, #3, ...

........................................................................
.............................. CYCLE   57 ..............................
........................................................................

 iter      E             dE          RMSdq      gap      omega  full diag
   1    -85.2093179 -0.852093E+02  0.722E-03    2.11       0.0  T
   2    -85.2093179 -0.127016E-07  0.430E-03    2.11       3.1  T
   3    -85.2093179  0.328954E-07  0.823E-04    2.11      16.4  T
   4    -85.2093179 -0.413203E-07  0.216E-04    2.11      62.4  T
     SCC iter.                  ...        0 min,  0.019 sec
     gradient                   ...        0 min,  0.006 sec
 * total energy  :   -84.0752528 Eh     change       -0.5640935E-05 Eh
   gradient norm :     0.0002939 Eh/α   predicted    -0.1983213E-05 ( -64.84%)
   displ. norm   :     0.0625416 α      lambda       -0.4305074E-05
   maximum displ.:     0.0482028 α      in ANC's #2, #1, #3, ...

........................................................................
.............................. CYCLE   58 ..............................
........................................................................

 iter      E             dE          RMSdq      gap      omega  full diag
   1    -85.2093702 -0.852094E+02  0.645E-03    2.11       0.0  T
   2    -85.2093702 -0.111192E-07  0.386E-03    2.11       3.5  T
   3    -85.2093702  0.181403E-07  0.673E-04    2.11      20.0  T
   4    -85.2093702 -0.244980E-07  0.208E-04    2.11      64.9  T
     SCC iter.                  ...        0 min,  0.018 sec
     gradient                   ...        0 min,  0.006 sec
 * total energy  :   -84.0752589 Eh     change       -0.6128400E-05 Eh
   gradient norm :     0.0004309 Eh/α   predicted    -0.2159999E-05 ( -64.75%)
   displ. norm   :     0.0699019 α      lambda       -0.4768647E-05
   maximum displ.:     0.0530851 α      in ANC's #2, #1, #3, ...

........................................................................
.............................. CYCLE   59 ..............................
........................................................................

 iter      E             dE          RMSdq      gap      omega  full diag
   1    -85.2093994 -0.852094E+02  0.672E-03    2.11       0.0  T
   2    -85.2093994 -0.131809E-07  0.402E-03    2.11       3.4  T
   3    -85.2093994  0.136013E-07  0.611E-04    2.11      22.1  T
   4    -85.2093994 -0.195978E-07  0.214E-04    2.11      63.0  T
     SCC iter.                  ...        0 min,  0.018 sec
     gradient                   ...        0 min,  0.006 sec
 * total energy  :   -84.0752657 Eh     change       -0.6818928E-05 Eh
   gradient norm :     0.0004957 Eh/α   predicted    -0.2393860E-05 ( -64.89%)
   displ. norm   :     0.0799571 α      lambda       -0.5408324E-05
   maximum displ.:     0.0601086 α      in ANC's #2, #1, #3, ...

........................................................................
.............................. CYCLE   60 ..............................
........................................................................

 iter      E             dE          RMSdq      gap      omega  full diag
   1    -85.2093991 -0.852094E+02  0.750E-03    2.11       0.0  T
   2    -85.2093991 -0.186229E-07  0.449E-03    2.11       3.0  T
   3    -85.2093991  0.144604E-07  0.631E-04    2.11      21.4  T
   4    -85.2093991 -0.216605E-07  0.223E-04    2.11      60.6  T
     SCC iter.                  ...        0 min,  0.021 sec
     gradient                   ...        0 min,  0.006 sec
 * total energy  :   -84.0752734 Eh     change       -0.7725574E-05 Eh
   gradient norm :     0.0004590 Eh/α   predicted    -0.2712000E-05 ( -64.90%)
   displ. norm   :     0.0929701 α      lambda       -0.6155420E-05
[...]
          ...................................................

 iter      E             dE          RMSdq      gap      omega  full diag
   1    -85.2093947 -0.852094E+02  0.549E-05    2.11       0.0  T
   2    -85.2093947 -0.147651E-10  0.370E-05    2.11     364.2  T
   3    -85.2093947 -0.113687E-11  0.259E-05    2.11     521.4  T

   *** convergence criteria satisfied after 3 iterations ***

         #    Occupation            Energy/Eh            Energy/eV
      -------------------------------------------------------------
         1        2.0000           -0.7078534             -19.2617
       ...           ...                  ...                  ...
        69        2.0000           -0.4153570             -11.3024
        70        2.0000           -0.4108418             -11.1796
        71        2.0000           -0.4063631             -11.0577
        72        2.0000           -0.4053653             -11.0306
        73        2.0000           -0.4007898             -10.9060
        74        2.0000           -0.3712953             -10.1035
        75        2.0000           -0.3634112              -9.8889 (HOMO)
        76                         -0.2858051              -7.7772 (LUMO)
        77                         -0.2299665              -6.2577
        78                         -0.2270590              -6.1786
        79                         -0.2239136              -6.0930
        80                         -0.2096352              -5.7045
       ...                                ...                  ...
       139                          0.7039597              19.1557
      -------------------------------------------------------------
                  HL-Gap            0.0776061 Eh            2.1118 eV
             Fermi-level           -0.3246082 Eh           -8.8330 eV

 SCC (total)                   0 d,  0 h,  0 min,  0.021 sec
 SCC setup                      ...        0 min,  0.000 sec (  0.749%)
 Dispersion                     ...        0 min,  0.000 sec (  1.606%)
 classical contributions        ...        0 min,  0.000 sec (  0.232%)
 integral evaluation            ...        0 min,  0.002 sec (  8.616%)
 iterations                     ...        0 min,  0.009 sec ( 45.568%)
 molecular gradient             ...        0 min,  0.009 sec ( 42.126%)
 printout                       ...        0 min,  0.000 sec (  0.996%)

         :::::::::::::::::::::::::::::::::::::::::::::::::::::
         ::                     SUMMARY                     ::
         :::::::::::::::::::::::::::::::::::::::::::::::::::::
         :: total energy             -84.075359540840 Eh    ::
         :: gradient norm              0.000202687328 Eh/a0 ::
         :: HOMO-LUMO gap              2.111770129663 eV    ::
         ::.................................................::
         :: SCC energy               -85.208973237959 Eh    ::
         :: -> isotropic ES            0.117328149140 Eh    ::
         :: -> anisotropic ES          0.006778497672 Eh    ::
         :: -> anisotropic XC          0.024919908593 Eh    ::
         :: -> dispersion             -0.057332745183 Eh    ::
         :: repulsion energy           1.133613697119 Eh    ::
         :: add. restraining           0.000000000000 Eh    ::
         :: total charge              -0.000000000000 e     ::
         :::::::::::::::::::::::::::::::::::::::::::::::::::::

           -------------------------------------------------
          |                Property Printout                |
           -------------------------------------------------

    * Orbital Energies and Occupations

         #    Occupation            Energy/Eh            Energy/eV
      -------------------------------------------------------------
         1        2.0000           -0.7078534             -19.2617
       ...           ...                  ...                  ...
        63        2.0000           -0.4389508             -11.9445
        64        2.0000           -0.4347197             -11.8293
        65        2.0000           -0.4293772             -11.6839
        66        2.0000           -0.4251514             -11.5690
        67        2.0000           -0.4243442             -11.5470
        68        2.0000           -0.4173539             -11.3568
        69        2.0000           -0.4153570             -11.3024
        70        2.0000           -0.4108418             -11.1796
        71        2.0000           -0.4063631             -11.0577
        72        2.0000           -0.4053653             -11.0306
        73        2.0000           -0.4007898             -10.9060
        74        2.0000           -0.3712953             -10.1035
        75        2.0000           -0.3634112              -9.8889 (HOMO)
        76                         -0.2858051              -7.7772 (LUMO)
        77                         -0.2299665              -6.2577
        78                         -0.2270590              -6.1786
        79                         -0.2239136              -6.0930
        80                         -0.2096352              -5.7045
        81                         -0.1545606              -4.2058
        82                         -0.0955708              -2.6006
        83                         -0.0823852              -2.2418
        84                         -0.0429353              -1.1683
        85                          0.0163416               0.4447
        86                          0.0276275               0.7518
       ...                                ...                  ...
       139                          0.7039597              19.1557
      -------------------------------------------------------------
                  HL-Gap            0.0776061 Eh            2.1118 eV
             Fermi-level           -0.3246082 Eh           -8.8330 eV

     #   Z          covCN         q      C6AA      α(0)
     1   8 O        1.656    -0.433    21.497     6.259
     2   6 C        3.673     0.073    19.589     6.343
     3   6 C        3.746    -0.019    20.978     6.533
     4   7 N        2.737    -0.094    23.068     7.133
     5   6 C        3.746    -0.019    20.979     6.533
     6   6 C        3.673     0.073    19.588     6.343
     7   8 O        1.656    -0.433    21.497     6.259
     8   6 C        2.907     0.066    26.519     8.444
     9   6 C        2.921    -0.061    29.526     8.911
    10   6 C        2.922    -0.029    28.715     8.788
    11   6 C        2.969    -0.000    28.033     8.685
    12   6 C        2.908    -0.011    28.280     8.720
    13   6 C        2.894    -0.073    29.826     8.954
    14   6 C        2.830     0.209    23.568     7.955
    15   6 C        3.707     0.249    16.894     5.875
    16   8 O        1.701    -0.317    19.294     5.930
    17   6 C        3.647     0.047    20.116     6.445
    18   8 O        1.700    -0.337    19.657     5.986
    19   6 C        3.647     0.046    20.120     6.446
    20   6 C        2.982    -0.010    28.251     8.719
    21   6 C        2.921    -0.032    28.788     8.799
    22   6 C        2.921    -0.030    28.741     8.791
    23   6 C        2.920    -0.031    28.764     8.795
    24   6 C        2.920    -0.029    28.715     8.787
    25   6 C        2.923    -0.032    28.794     8.800
    26   8 O        0.857    -0.357    20.840     6.121
    27   6 C        2.926    -0.030    28.745     8.792
    28   6 C        2.921    -0.062    29.538     8.913
    29   1 H        0.805     0.290     0.753     1.363
    30   1 H        0.924     0.055     2.258     2.350
    31   1 H        0.923     0.028     2.614     2.528
    32   1 H        0.924     0.061     2.193     2.316
    33   1 H        0.924     0.049     2.334     2.389
    34   1 H        0.924     0.049     2.334     2.389
    35   1 H        0.924     0.060     2.195     2.317
    36   1 H        0.924     0.055     2.257     2.349
    37   1 H        0.923     0.028     2.612     2.527
    38   1 H        0.805     0.290     0.752     1.362
    39   1 H        0.926     0.029     2.598     2.520
    40   1 H        0.926     0.039     2.461     2.453
    41   1 H        0.925     0.065     2.142     2.289
    42   1 H        0.926     0.048     2.351     2.398
    43   1 H        0.924     0.030     2.593     2.518
    44   1 H        0.925     0.058     2.219     2.329
    45   1 H        0.924     0.039     2.469     2.457
    46   1 H        0.924     0.047     2.355     2.400
    47   1 H        0.924     0.027     2.630     2.536
    48   1 H        0.925     0.055     2.263     2.353
    49   1 H        0.926     0.049     2.329     2.386
    50   1 H        0.926     0.034     2.529     2.487
    51   1 H        0.926     0.034     2.530     2.488
    52   1 H        0.926     0.037     2.494     2.469
    53   1 H        0.926     0.050     2.320     2.382
    54   1 H        0.926     0.039     2.462     2.453
    55   1 H        0.926     0.029     2.594     2.518

 Mol. C6AA /au·bohr⁶  :      31839.397351
 Mol. C8AA /au·bohr⁸  :     738959.228378
 Mol. α(0) /au        :        276.386629


Wiberg/Mayer (AO) data.
largest (>0.10) Wiberg bond orders for each atom

 ---------------------------------------------------------------------------
     #   Z sym  total        # sym  WBO       # sym  WBO       # sym  WBO
 ---------------------------------------------------------------------------
     1   8 O    1.967 --     2 C    1.007    29 H    0.902
     2   6 C    3.952 --     1 O    1.007     3 C    0.976    30 H    0.971
                            31 H    0.969
     3   6 C    3.975 --     4 N    1.001     2 C    0.976    32 H    0.969
                            33 H    0.965
     4   7 N    3.413 --     8 C    1.184     3 C    1.001     5 C    1.000
     5   6 C    3.975 --     4 N    1.000     6 C    0.976    35 H    0.969
                            34 H    0.964
     6   6 C    3.952 --     7 O    1.007     5 C    0.976    36 H    0.971
                            37 H    0.969
     7   8 O    1.967 --     6 C    1.007    38 H    0.901
     8   6 C    3.959 --    28 C    1.306     9 C    1.302     4 N    1.184
     9   6 C    3.983 --    10 C    1.512     8 C    1.302    39 H    0.963
    10   6 C    3.990 --     9 C    1.512    11 C    1.328    40 H    0.966
    11   6 C    3.984 --    27 C    1.331    10 C    1.328    12 C    1.153
    12   6 C    3.972 --    13 C    1.706    11 C    1.153    41 H    0.958
    13   6 C    3.967 --    12 C    1.706    14 C    1.096    42 H    0.961
    14   6 C    3.924 --    26 O    1.795    13 C    1.096    15 C    0.896
    15   6 C    3.921 --    16 O    0.974    18 O    0.957    20 C    0.948
                            14 C    0.896
    16   8 O    2.094 --    17 C    0.984    15 C    0.974
    17   6 C    3.948 --    16 O    0.984    44 H    0.981    45 H    0.979
                            43 H    0.978
    18   8 O    2.076 --    19 C    0.983    15 C    0.957
    19   6 C    3.947 --    18 O    0.983    48 H    0.981    46 H    0.979
                            47 H    0.977
    20   6 C    3.983 --    21 C    1.413    25 C    1.404    15 C    0.948
                            23 C    0.108
    21   6 C    3.990 --    22 C    1.440    20 C    1.413    49 H    0.966
                            24 C    0.110
    22   6 C    3.991 --    23 C    1.441    21 C    1.440    50 H    0.971
                            25 C    0.112
    23   6 C    3.988 --    22 C    1.441    24 C    1.434    51 H    0.971
                            20 C    0.108
    24   6 C    3.992 --    25 C    1.449    23 C    1.434    52 H    0.971
                            21 C    0.110
    25   6 C    3.990 --    24 C    1.449    20 C    1.404    53 H    0.968
                            22 C    0.112
    26   8 O    2.057 --    14 C    1.795
    27   6 C    3.989 --    28 C    1.507    11 C    1.331    54 H    0.968
    28   6 C    3.982 --    27 C    1.507     8 C    1.306    55 H    0.963
    29   1 H    0.916 --     1 O    0.902
    30   1 H    0.997 --     2 C    0.971
    31   1 H    0.999 --     2 C    0.969
    32   1 H    0.995 --     3 C    0.969
    33   1 H    0.997 --     3 C    0.965
    34   1 H    0.997 --     5 C    0.964
    35   1 H    0.995 --     5 C    0.969
    36   1 H    0.997 --     6 C    0.971
    37   1 H    0.999 --     6 C    0.969
    38   1 H    0.916 --     7 O    0.901
    39   1 H    0.999 --     9 C    0.963
    40   1 H    0.998 --    10 C    0.966
    41   1 H    0.995 --    12 C    0.958
    42   1 H    0.998 --    13 C    0.961
    43   1 H    0.999 --    17 C    0.978
    44   1 H    0.996 --    17 C    0.981
    45   1 H    0.998 --    17 C    0.979
    46   1 H    0.998 --    19 C    0.979
    47   1 H    0.999 --    19 C    0.977
    48   1 H    0.997 --    19 C    0.981
    49   1 H    0.998 --    21 C    0.966
    50   1 H    0.998 --    22 C    0.971
    51   1 H    0.998 --    23 C    0.971
    52   1 H    0.998 --    24 C    0.971
    53   1 H    0.997 --    25 C    0.968
    54   1 H    0.998 --    27 C    0.968
    55   1 H    0.999 --    28 C    0.963
 ---------------------------------------------------------------------------

Topologies differ in total number of bonds
Writing topology from bond orders to xtbtopo.mol

molecular dipole:
                 x           y           z       tot (Debye)
 q only:        1.550      -0.694       0.847
   full:        1.194      -0.673       0.923       4.198
molecular quadrupole (traceless):
                xx          xy          yy          xz          yz          zz
 q only:       -3.250      13.326      -0.710     -15.322       4.237       3.961
  q+dip:      -11.172      15.324       1.398     -19.084       1.453       9.773
   full:      -10.644      15.737       1.387     -20.304       3.975       9.257

           -------------------------------------------------
          |                Geometry Summary                 |
           -------------------------------------------------

      molecular mass/u    :      385.4543179
   center of mass at/Å    :       -0.1861331       0.0524844      -0.2706422
  moments of inertia/u·Å² :        0.1597414E+04   0.7971882E+04   0.8818492E+04
rotational constants/cm⁻¹ :        0.1055307E-01   0.2114637E-02   0.1911623E-02

 * 50 selected distances

     #   Z          #   Z                                           value/Å
     1   8 O        2   6 C                                       1.4037227
     3   6 C        4   7 N                                       1.4433309
     4   7 N        5   6 C                                       1.4434961 (max)
     6   6 C        7   8 O                                       1.4036863
     4   7 N        8   6 C                                       1.3693183
     8   6 C        9   6 C                                       1.4067459
     9   6 C       10   6 C                                       1.3735443
    10   6 C       11   6 C                                       1.3996586
    12   6 C       13   6 C                                       1.3469212
    15   6 C       16   8 O                                       1.4032816
    16   8 O       17   6 C                                       1.4118019
    15   6 C       18   8 O                                       1.4139243
    18   8 O       19   6 C                                       1.4134734
    20   6 C       21   6 C                                       1.3871240
    21   6 C       22   6 C                                       1.3841267
    22   6 C       23   6 C                                       1.3842992
    23   6 C       24   6 C                                       1.3854456
    20   6 C       25   6 C                                       1.3901761
    24   6 C       25   6 C                                       1.3825127
    14   6 C       26   8 O                                       1.2108987
    11   6 C       27   6 C                                       1.3998268
     8   6 C       28   6 C                                       1.4059495
    27   6 C       28   6 C                                       1.3738151
     1   8 O       29   1 H                                       0.9637372 (min)
     2   6 C       30   1 H                                       1.0925534
     2   6 C       31   1 H                                       1.0985761
     3   6 C       32   1 H                                       1.0931513
     3   6 C       33   1 H                                       1.0940062
     5   6 C       34   1 H                                       1.0941308
     5   6 C       35   1 H                                       1.0931894
     6   6 C       36   1 H                                       1.0925612
     6   6 C       37   1 H                                       1.0986056
     7   8 O       38   1 H                                       0.9637769
     9   6 C       39   1 H                                       1.0774725
    10   6 C       40   1 H                                       1.0790257
    12   6 C       41   1 H                                       1.0843322
    13   6 C       42   1 H                                       1.0785176
    17   6 C       43   1 H                                       1.0952799
    17   6 C       44   1 H                                       1.0880533
    17   6 C       45   1 H                                       1.0944110
    19   6 C       46   1 H                                       1.0929585
    19   6 C       47   1 H                                       1.0956042
    19   6 C       48   1 H                                       1.0884909
    21   6 C       49   1 H                                       1.0785302
    22   6 C       50   1 H                                       1.0804075
    23   6 C       51   1 H                                       1.0802183
    24   6 C       52   1 H                                       1.0799583
    25   6 C       53   1 H                                       1.0800363
    27   6 C       54   1 H                                       1.0805961
    28   6 C       55   1 H                                       1.0774199

 * 5 distinct bonds (by element types)

   Z      Z             #   av. dist./Å        max./Å        min./Å
   1 H    6 C          25     1.0875234     1.0986056     1.0774199
   6 C    6 C          13     1.3861651     1.4067459     1.3469212
   6 C    7 N           3     1.4187151     1.4434961     1.3693183
   1 H    8 O           2     0.9637571     0.9637769     0.9637372
   6 C    8 O           7     1.3801127     1.4139243     1.2108987


optimized geometry written to: xtbopt.xyz


           -------------------------------------------------
          | TOTAL ENERGY              -84.075359540840 Eh   |
          | GRADIENT NORM               0.000202687328 Eh/α |
          | HOMO-LUMO GAP               2.111770129663 eV   |
           -------------------------------------------------
########################################################################
[WARNING] Runtime exception occurred
-2- restart_readRestart: Dimension missmatch in restart file.
-1- restart_readRestart: Number of electron missmatch in restart file.
########################################################################

------------------------------------------------------------------------
 * finished run on 2025/12/01 at 14:22:20.471     
------------------------------------------------------------------------
 total:
 * wall-time:     0 d,  0 h,  0 min,  2.516 sec
 *  cpu-time:     0 d,  0 h,  0 min, 57.575 sec
 * ratio c/w:    22.885 speedup
 SCF:
 * wall-time:     0 d,  0 h,  0 min,  0.069 sec
 *  cpu-time:     0 d,  0 h,  0 min,  1.526 sec
 * ratio c/w:    22.119 speedup
 ANC optimizer:
 * wall-time:     0 d,  0 h,  0 min,  2.435 sec
 *  cpu-time:     0 d,  0 h,  0 min, 55.821 sec
 * ratio c/w:    22.923 speedup

normal termination of xtb
