      -----------------------------------------------------------      
     |                   =====================                   |     
     |                           x T B                           |     
     |                   =====================                   |     
     |                         S. Grimme                         |     
     |          Mulliken Center for Theoretical Chemistry        |     
     |                    University of Bonn                     |     
      -----------------------------------------------------------      

   * xtb version 6.7.1 (edcfbbe) compiled by 'albert@albert-system' on 2024-07-22

   xtb is free software: you can redistribute it and/or modify it under
   the terms of the GNU Lesser General Public License as published by
   the Free Software Foundation, either version 3 of the License, or
   (at your option) any later version.
   
   xtb is distributed in the hope that it will be useful,
   but WITHOUT ANY WARRANTY; without even the implied warranty of
   MERCHANTABILITY or FITNESS FOR A PARTICULAR PURPOSE.  See the
   GNU Lesser General Public License for more details.
   
   Cite this work as:
   * C. Bannwarth, E. Caldeweyher, S. Ehlert, A. Hansen, P. Pracht,
     J. Seibert, S. Spicher, S. Grimme, WIREs Comput. Mol. Sci., 2020, 11,
     e01493. DOI: 10.1002/wcms.1493
   
   for GFN2-xTB:
   * C. Bannwarth, S. Ehlert and S. Grimme., J. Chem. Theory Comput., 2019,
     15, 1652-1671. DOI: 10.1021/acs.jctc.8b01176
   for GFN1-xTB:
   * S. Grimme, C. Bannwarth, P. Shushkov, J. Chem. Theory Comput., 2017,
     13, 1989-2009. DOI: 10.1021/acs.jctc.7b00118
   for GFN0-xTB:
   * P. Pracht, E. Caldeweyher, S. Ehlert, S. Grimme, ChemRxiv, 2019, preprint.
     DOI: 10.26434/chemrxiv.8326202.v1
   for GFN-FF:
   * S. Spicher and S. Grimme, Angew. Chem. Int. Ed., 2020, 59, 15665-15673.
     DOI: 10.1002/anie.202004239
   
   for ALPB and GBSA implicit solvation:
   * S. Ehlert, M. Stahn, S. Spicher, S. Grimme, J. Chem. Theory Comput.,
     2021, 17, 4250-4261. DOI: 10.1021/acs.jctc.1c00471
   
   for ddCOSMO and CPCM-X implicit solvation:
   * M. Stahn, S. Ehlert, S. Grimme, J. Phys. Chem. A,
     2023, XX, XXXX-XXXX. DOI: 10.1021/acs.jpca.3c04382
   
   for DFT-D4:
   * E. Caldeweyher, C. Bannwarth and S. Grimme, J. Chem. Phys., 2017,
     147, 034112. DOI: 10.1063/1.4993215
   * E. Caldeweyher, S. Ehlert, A. Hansen, H. Neugebauer, S. Spicher,
     C. Bannwarth and S. Grimme, J. Chem. Phys., 2019, 150, 154122.
     DOI: 10.1063/1.5090222
   * E. Caldeweyher, J.-M. Mewes, S. Ehlert and S. Grimme, Phys. Chem. Chem. Phys.
     2020, 22, 8499-8512. DOI: 10.1039/D0CP00502A
   
   for sTDA-xTB:
   * S. Grimme and C. Bannwarth, J. Chem. Phys., 2016, 145, 054103.
     DOI: 10.1063/1.4959605
   
   in the mass-spec context:
   * V. Asgeirsson, C. Bauer and S. Grimme, Chem. Sci., 2017, 8, 4879.
     DOI: 10.1039/c7sc00601b
   * J. Koopman and S. Grimme, ACS Omega 2019, 4, 12, 15120-15133.
     DOI: 10.1021/acsomega.9b02011
   
   for metadynamics refer to:
   * S. Grimme, J. Chem. Theory Comput., 2019, 155, 2847-2862
     DOI: 10.1021/acs.jctc.9b00143
   
   for SPH calculations refer to:
   * S. Spicher and S. Grimme, J. Chem. Theory Comput., 2021, 17, 1701-1714
     DOI: 10.1021/acs.jctc.0c01306
   
   for ONIOM refer to:
   * C. Plett, A. Katbashev, S. Ehlert, S. Grimme, M. Bursch,
     Phys. Chem. Chem. Phys., 2023, 25, 17860-17868. DOI: 10.1039/D3CP02178E
   
   for DIPRO refer to:
   * J. Kohn, N. Gildemeister, S. Grimme, D. Fazzi, A. Hansen,
     J. Chem. Phys., 2023, just accepted.
   
   for PTB refer to:
   * S. Grimme, M. Mueller, A. Hansen, J. Chem. Phys., 2023, 158, 124111.
     DOI: 10.1063/5.0137838
   
   with help from (in alphabetical order)
   P. Atkinson, C. Bannwarth, F. Bohle, G. Brandenburg, E. Caldeweyher
   M. Checinski, S. Dohm, S. Ehlert, S. Ehrlich, I. Gerasimov, C. Hölzer
   A. Katbashev, J. Kohn, J. Koopman, C. Lavigne, S. Lehtola, F. März, M. Müller,
   F. Musil, H. Neugebauer, J. Pisarek, C. Plett, P. Pracht, F. Pultar,
   J. Seibert, P. Shushkov, S. Spicher, M. Stahn, M. Steiner, T. Strunk,
   J. Stückrath, T. Rose, and J. Unsleber
   
 * started run on 2025/12/01 at 14:22:22.374     
   ID    Z sym.   atoms
    1    8 O      1, 7, 16, 18, 26
    2    6 C      2, 3, 5, 6, 8-15, 17, 19-25, 27, 28
    3    7 N      4
    4    1 H      29-55

           -------------------------------------------------
          |                Calculation Setup                |
           -------------------------------------------------

          program call               : xtb pipeline_data/3_conformer_xyz/acrylates/rdkit/NHBABHBJROJJJN-JLHYYAGUSA-N_conf159.xyz --opt --gfn 2-xTB --iterations 250
          coordinate file            : pipeline_data/3_conformer_xyz/acrylates/rdkit/NHBABHBJROJJJN-JLHYYAGUSA-N_conf159.xyz
          omp threads                :                    24

########################################################################
[WARNING] Please study the warnings concerning your input carefully
-1- readin_getIntValue: could not parse '2-xTB'
########################################################################

           -------------------------------------------------
          |                 G F N 2 - x T B                 |
           -------------------------------------------------

        Reference                      10.1021/acs.jctc.8b01176
      * Hamiltonian:
        H0-scaling (s, p, d)           1.850000    2.230000    2.230000
        zeta-weighting                 0.500000
      * Dispersion:
        s8                             2.700000
        a1                             0.520000
        a2                             5.000000
        s9                             5.000000
      * Repulsion:
        kExp                           1.500000    1.000000
        rExp                           1.000000
      * Coulomb:
        alpha                          2.000000
        third order                    shell-resolved
        anisotropic                    true
        a3                             3.000000
        a5                             4.000000
        cn-shift                       1.200000
        cn-exp                         4.000000
        max-rad                        5.000000

q/qsh data taken from xtbrestart
CAMM data taken from xtbrestart

          ...................................................
          :                      SETUP                      :
          :.................................................:
          :  # basis functions                 139          :
          :  # atomic orbitals                 139          :
          :  # shells                           83          :
          :  # electrons                       150          :
          :  max. iterations                   250          :
          :  Hamiltonian                  GFN2-xTB          :
          :  restarted?                       true          :
          :  GBSA solvation                  false          :
          :  PC potential                    false          :
          :  electronic temp.          300.0000000     K    :
          :  accuracy                    1.0000000          :
          :  -> integral cutoff          0.2500000E+02      :
          :  -> integral neglect         0.1000000E-07      :
          :  -> SCF convergence          0.1000000E-05 Eh   :
          :  -> wf. convergence          0.1000000E-03 e    :
          :  Broyden damping             0.4000000          :
          :  net charge                          0          :
          :  unpaired electrons                  0          :
          ...................................................

 iter      E             dE          RMSdq      gap      omega  full diag
   1    -85.0982574 -0.850983E+02  0.520E+00    2.19       0.0  T
   2    -85.1188698 -0.206124E-01  0.306E+00    1.92       1.0  T
   3    -85.0777738  0.410960E-01  0.953E-01    2.42       1.0  T
   4    -85.1268349 -0.490611E-01  0.223E-01    2.02       1.0  T
   5    -85.1280300 -0.119517E-02  0.110E-01    2.01       1.0  T
   6    -85.1281017 -0.717004E-04  0.593E-02    2.04       1.0  T
   7    -85.1281744 -0.726689E-04  0.164E-02    2.02       1.0  T
   8    -85.1281808 -0.637326E-05  0.792E-03    2.03       1.7  T
   9    -85.1281821 -0.133027E-05  0.310E-03    2.02       4.4  T
  10    -85.1281822 -0.872925E-07  0.136E-03    2.02       9.9  T
  11    -85.1281822 -0.147299E-07  0.438E-04    2.02      30.8  T
  12    -85.1281822 -0.420816E-08  0.193E-04    2.02      70.0  T

   *** convergence criteria satisfied after 12 iterations ***

         #    Occupation            Energy/Eh            Energy/eV
      -------------------------------------------------------------
         1        2.0000           -0.7225103             -19.6605
       ...           ...                  ...                  ...
        69        2.0000           -0.4121121             -11.2141
        70        2.0000           -0.4119509             -11.2098
        71        2.0000           -0.4101751             -11.1614
        72        2.0000           -0.4068729             -11.0716
        73        2.0000           -0.3972838             -10.8106
        74        2.0000           -0.3795812             -10.3289
        75        2.0000           -0.3642111              -9.9107 (HOMO)
        76                         -0.2898017              -7.8859 (LUMO)
        77                         -0.2340801              -6.3696
        78                         -0.2318656              -6.3094
        79                         -0.2278357              -6.1997
        80                         -0.2152589              -5.8575
       ...                                ...                  ...
       139                          0.7050224              19.1846
      -------------------------------------------------------------
                  HL-Gap            0.0744094 Eh            2.0248 eV
             Fermi-level           -0.3270064 Eh           -8.8983 eV

 SCC (total)                   0 d,  0 h,  0 min,  0.085 sec
 SCC setup                      ...        0 min,  0.000 sec (  0.360%)
 Dispersion                     ...        0 min,  0.001 sec (  0.864%)
 classical contributions        ...        0 min,  0.000 sec (  0.079%)
 integral evaluation            ...        0 min,  0.003 sec (  2.992%)
 iterations                     ...        0 min,  0.073 sec ( 86.496%)
 molecular gradient             ...        0 min,  0.007 sec (  8.765%)
 printout                       ...        0 min,  0.000 sec (  0.404%)

         :::::::::::::::::::::::::::::::::::::::::::::::::::::
         ::                     SUMMARY                     ::
         :::::::::::::::::::::::::::::::::::::::::::::::::::::
         :: total energy             -84.027536764120 Eh    ::
         :: gradient norm              0.173999841685 Eh/a0 ::
         :: HOMO-LUMO gap              2.024784126739 eV    ::
         ::.................................................::
         :: SCC energy               -85.127812216805 Eh    ::
         :: -> isotropic ES            0.119969270659 Eh    ::
         :: -> anisotropic ES          0.007656493153 Eh    ::
         :: -> anisotropic XC          0.024165320463 Eh    ::
         :: -> dispersion             -0.057454667384 Eh    ::
         :: repulsion energy           1.100275452685 Eh    ::
         :: add. restraining           0.000000000000 Eh    ::
         :: total charge               0.000000000000 e     ::
         :::::::::::::::::::::::::::::::::::::::::::::::::::::

      ----------------------------------------------------------- 
     |                   =====================                   |
     |                        A N C O P T                        |
     |                   =====================                   |
     |               Approximate Normal Coordinate               |
     |                Rational Function Optimizer                |
      ----------------------------------------------------------- 
      ----------------------------------------------------------- 
     |                   =====================                   |
     |                        A N C O P T                        |
     |                   =====================                   |
     |               Approximate Normal Coordinate               |
     |                Rational Function Optimizer                |
      ----------------------------------------------------------- 

          ...................................................
          :                      SETUP                      :
          :.................................................:
          :   optimization level            normal          :
          :   max. optcycles                   200          :
          :   ANC micro-cycles                  20          :
          :   degrees of freedom               159          :
          :.................................................:
          :   RF solver                   davidson          :
          :   write xtbopt.log                true          :
          :   linear?                        false          :
          :   energy convergence         0.5000000E-05 Eh   :
          :   grad. convergence          0.1000000E-02 Eh/α :
          :   maxmium RF displ.          1.0000000          :
          :   Hlow (freq-cutoff)         0.1000000E-01      :
          :   Hmax (freq-cutoff)         5.0000000          :
          :   S6 in model hess.         20.0000000          :
          ...................................................

generating ANC from exact Hessian ...
Using Lindh-Hessian (1995)
 Shifting diagonal of input Hessian by   9.935475175268564E-003
 Lowest  eigenvalues of input Hessian
    0.000000    0.000000    0.000000    0.000000    0.000000    0.000000
    0.010000    0.010055    0.010180    0.010556    0.010765    0.011124
    0.011251    0.011487    0.012157    0.012256    0.012681    0.012812
 Highest eigenvalues
    1.982812    1.988126    1.994454    2.039845    2.072002    2.143672
 

........................................................................
.............................. CYCLE    1 ..............................
........................................................................

 iter      E             dE          RMSdq      gap      omega  full diag
   1    -85.1281822 -0.851282E+02  0.749E-05    2.02       0.0  T
   2    -85.1281822 -0.520970E-10  0.462E-05    2.02     292.1  T
   3    -85.1281822 -0.235048E-10  0.303E-05    2.02     444.8  T
     SCC iter.                  ...        0 min,  0.013 sec
     gradient                   ...        0 min,  0.008 sec
 * total energy  :   -84.0275368 Eh     change       -0.3451675E-09 Eh
   gradient norm :     0.1740004 Eh/α   predicted     0.0000000E+00 (-100.00%)
   displ. norm   :     0.3752146 α      lambda       -0.3543196E-01
   maximum displ.:     0.1050968 α      in ANC's #50, #32, #30, ...

........................................................................
.............................. CYCLE    2 ..............................
........................................................................

 iter      E             dE          RMSdq      gap      omega  full diag
   1    -85.1705732 -0.851706E+02  0.240E-01    2.05       0.0  T
   2    -85.1713128 -0.739599E-03  0.160E-01    2.12       1.0  T
   3    -85.1714567 -0.143853E-03  0.857E-02    2.08       1.0  T
   4    -85.1715102 -0.535162E-04  0.316E-02    2.11       1.0  T
   5    -85.1715584 -0.481723E-04  0.712E-03    2.10       1.9  T
   6    -85.1715593 -0.899076E-06  0.397E-03    2.10       3.4  T
   7    -85.1715596 -0.341090E-06  0.181E-03    2.10       7.4  T
   8    -85.1715597 -0.409973E-07  0.974E-04    2.10      13.8  T
   9    -85.1715597 -0.160579E-07  0.348E-04    2.10      38.7  T
     SCC iter.                  ...        0 min,  0.040 sec
     gradient                   ...        0 min,  0.008 sec
 * total energy  :   -84.0525199 Eh     change       -0.2498316E-01 Eh
   gradient norm :     0.0715925 Eh/α   predicted    -0.2023225E-01 ( -19.02%)
   displ. norm   :     0.4021547 α      lambda       -0.1265707E-01
   maximum displ.:     0.1081025 α      in ANC's #32, #43, #30, ...

........................................................................
.............................. CYCLE    3 ..............................
........................................................................

 iter      E             dE          RMSdq      gap      omega  full diag
   1    -85.1913260 -0.851913E+02  0.169E-01    2.08       0.0  T
   2    -85.1917735 -0.447479E-03  0.115E-01    2.14       1.0  T
   3    -85.1919215 -0.147927E-03  0.630E-02    2.11       1.0  T
   4    -85.1919369 -0.154961E-04  0.268E-02    2.13       1.0  T
   5    -85.1919650 -0.280230E-04  0.630E-03    2.13       2.1  T
   6    -85.1919658 -0.877464E-06  0.339E-03    2.13       4.0  T
   7    -85.1919662 -0.366723E-06  0.124E-03    2.13      10.8  T
   8    -85.1919662 -0.205174E-07  0.712E-04    2.13      18.9  T
   9    -85.1919662 -0.719899E-08  0.235E-04    2.13      57.5  T
     SCC iter.                  ...        0 min,  0.039 sec
     gradient                   ...        0 min,  0.006 sec
 * total energy  :   -84.0604725 Eh     change       -0.7952595E-02 Eh
   gradient norm :     0.0179013 Eh/α   predicted    -0.7352038E-02 (  -7.55%)
   displ. norm   :     0.3903958 α      lambda       -0.3337392E-02
   maximum displ.:     0.1287346 α      in ANC's #7, #13, #12, ...

........................................................................
.............................. CYCLE    4 ..............................
........................................................................

 iter      E             dE          RMSdq      gap      omega  full diag
   1    -85.1912902 -0.851913E+02  0.950E-02    2.10       0.0  T
   2    -85.1913270 -0.368200E-04  0.592E-02    2.13       1.0  T
   3    -85.1913043  0.227066E-04  0.341E-02    2.11       1.0  T
   4    -85.1913455 -0.412262E-04  0.864E-03    2.12       1.6  T
   5    -85.1913482 -0.261912E-05  0.287E-03    2.12       4.7  T
   6    -85.1913483 -0.171633E-06  0.142E-03    2.12       9.5  T
   7    -85.1913484 -0.605949E-07  0.590E-04    2.12      22.8  T
   8    -85.1913484 -0.231715E-08  0.288E-04    2.12      46.8  T
     SCC iter.                  ...        0 min,  0.032 sec
     gradient                   ...        0 min,  0.006 sec
 * total energy  :   -84.0630144 Eh     change       -0.2541889E-02 Eh
   gradient norm :     0.0150232 Eh/α   predicted    -0.1923027E-02 ( -24.35%)
   displ. norm   :     0.5257702 α      lambda       -0.2720733E-02
   maximum displ.:     0.2174200 α      in ANC's #13, #7, #12, ...

........................................................................
.............................. CYCLE    5 ..............................
........................................................................

 iter      E             dE          RMSdq      gap      omega  full diag
   1    -85.1893354 -0.851893E+02  0.107E-01    2.11       0.0  T
   2    -85.1893456 -0.102082E-04  0.640E-02    2.12       1.0  T
   3    -85.1893270  0.185525E-04  0.203E-02    2.11       1.0  T
   4    -85.1893490 -0.219618E-04  0.502E-03    2.12       2.7  T
   5    -85.1893497 -0.665495E-06  0.254E-03    2.12       5.3  T
   6    -85.1893498 -0.148029E-06  0.936E-04    2.12      14.4  T
   7    -85.1893498 -0.740690E-08  0.470E-04    2.12      28.7  T
     SCC iter.                  ...        0 min,  0.028 sec
     gradient                   ...        0 min,  0.008 sec
 * total energy  :   -84.0650445 Eh     change       -0.2030129E-02 Eh
   gradient norm :     0.0192562 Eh/α   predicted    -0.1736426E-02 ( -14.47%)
   displ. norm   :     0.5486594 α      lambda       -0.2034487E-02
   maximum displ.:     0.2750421 α      in ANC's #7, #13, #9, ...

........................................................................
.............................. CYCLE    6 ..............................
........................................................................

 iter      E             dE          RMSdq      gap      omega  full diag
   1    -85.1900302 -0.851900E+02  0.975E-02    2.12       0.0  T
   2    -85.1900367 -0.654227E-05  0.581E-02    2.12       1.0  T
   3    -85.1900278  0.893554E-05  0.149E-02    2.12       1.0  T
   4    -85.1900389 -0.111231E-04  0.328E-03    2.12       4.1  T
   5    -85.1900392 -0.288699E-06  0.168E-03    2.12       8.0  T
   6    -85.1900392 -0.291738E-07  0.838E-04    2.12      16.1  T
   7    -85.1900392 -0.157041E-07  0.291E-04    2.12      46.3  T
     SCC iter.                  ...        0 min,  0.044 sec
     gradient                   ...        0 min,  0.011 sec
 * total energy  :   -84.0666835 Eh     change       -0.1638925E-02 Eh
   gradient norm :     0.0165113 Eh/α   predicted    -0.1323464E-02 ( -19.25%)
   displ. norm   :     0.6091287 α      lambda       -0.2050371E-02
   maximum displ.:     0.3355282 α      in ANC's #7, #13, #9, ...

........................................................................
.............................. CYCLE    7 ..............................
........................................................................

 iter      E             dE          RMSdq      gap      omega  full diag
   1    -85.1929169 -0.851929E+02  0.106E-01    2.13       0.0  T
   2    -85.1929257 -0.876672E-05  0.633E-02    2.12       1.0  T
   3    -85.1929074  0.182367E-04  0.209E-02    2.12       1.0  T
   4    -85.1929288 -0.214017E-04  0.449E-03    2.12       3.0  T
   5    -85.1929295 -0.634454E-06  0.198E-03    2.12       6.8  T
   6    -85.1929295 -0.366831E-07  0.111E-03    2.12      12.2  T
   7    -85.1929295 -0.237048E-07  0.379E-04    2.12      35.6  T
   8    -85.1929295 -0.327067E-08  0.178E-04    2.12      75.7  T
     SCC iter.                  ...        0 min,  0.033 sec
     gradient                   ...        0 min,  0.006 sec
 * total energy  :   -84.0683734 Eh     change       -0.1689933E-02 Eh
   gradient norm :     0.0149467 Eh/α   predicted    -0.1405572E-02 ( -16.83%)
   displ. norm   :     0.6191414 α      lambda       -0.1943545E-02
   maximum displ.:     0.3727908 α      in ANC's #7, #13, #9, ...

........................................................................
.............................. CYCLE    8 ..............................
........................................................................

 iter      E             dE          RMSdq      gap      omega  full diag
   1    -85.1983352 -0.851983E+02  0.111E-01    2.12       0.0  T
   2    -85.1983434 -0.812272E-05  0.657E-02    2.12       1.0  T
   3    -85.1983303  0.130121E-04  0.178E-02    2.12       1.0  T
   4    -85.1983460 -0.156852E-04  0.450E-03    2.11       3.0  T
   5    -85.1983465 -0.499709E-06  0.216E-03    2.12       6.2  T
   6    -85.1983466 -0.579845E-07  0.114E-03    2.12      11.9  T
   7    -85.1983466 -0.213222E-07  0.473E-04    2.12      28.5  T
   8    -85.1983466 -0.309321E-08  0.193E-04    2.12      70.0  T
     SCC iter.                  ...        0 min,  0.025 sec
     gradient                   ...        0 min,  0.008 sec
 * total energy  :   -84.0698086 Eh     change       -0.1435189E-02 Eh
   gradient norm :     0.0152035 Eh/α   predicted    -0.1344292E-02 (  -6.33%)
   displ. norm   :     0.6134367 α      lambda       -0.1543280E-02
   maximum displ.:     0.3749556 α      in ANC's #7, #13, #6, ...

........................................................................
.............................. CYCLE    9 ..............................
........................................................................

 iter      E             dE          RMSdq      gap      omega  full diag
   1    -85.1971991 -0.851972E+02  0.115E-01    2.11       0.0  T
   2    -85.1972050 -0.592008E-05  0.682E-02    2.11       1.0  T
   3    -85.1972037  0.127986E-05  0.812E-03    2.11       1.7  T
   4    -85.1972066 -0.288098E-05  0.343E-03    2.11       3.9  T
   5    -85.1972069 -0.257809E-06  0.174E-03    2.11       7.8  T
   6    -85.1972069 -0.550540E-07  0.716E-04    2.11      18.8  T
   7    -85.1972069 -0.372734E-08  0.349E-04    2.11      38.6  T
     SCC iter.                  ...        0 min,  0.022 sec
     gradient                   ...        0 min,  0.007 sec
 * total energy  :   -84.0706475 Eh     change       -0.8389177E-03 Eh
   gradient norm :     0.0188685 Eh/α   predicted    -0.1062030E-02 (  26.60%)
   displ. norm   :     0.3889185 α      lambda       -0.1032372E-02
   maximum displ.:     0.2598746 α      in ANC's #7, #9, #13, ...

........................................................................
.............................. CYCLE   10 ..............................
........................................................................

 iter      E             dE          RMSdq      gap      omega  full diag
   1    -85.2009683 -0.852010E+02  0.728E-02    2.10       0.0  T
   2    -85.2009719 -0.360940E-05  0.430E-02    2.11       1.0  T
   3    -85.2009665  0.541060E-05  0.122E-02    2.11       1.1  T
   4    -85.2009731 -0.663011E-05  0.318E-03    2.11       4.2  T
   5    -85.2009734 -0.236860E-06  0.145E-03    2.11       9.3  T
   6    -85.2009734 -0.115738E-07  0.747E-04    2.11      18.1  T
   7    -85.2009734 -0.142783E-07  0.313E-04    2.11      43.1  T
     SCC iter.                  ...        0 min,  0.022 sec
     gradient                   ...        0 min,  0.007 sec
 * total energy  :   -84.0713584 Eh     change       -0.7108521E-03 Eh
   gradient norm :     0.0109210 Eh/α   predicted    -0.5942781E-03 ( -16.40%)
   displ. norm   :     0.3834134 α      lambda       -0.6360678E-03
   maximum displ.:     0.2507867 α      in ANC's #7, #9, #5, ...

........................................................................
.............................. CYCLE   11 ..............................
........................................................................

 iter      E             dE          RMSdq      gap      omega  full diag
   1    -85.2043571 -0.852044E+02  0.720E-02    2.10       0.0  T
   2    -85.2043608 -0.364739E-05  0.427E-02    2.10       1.0  T
   3    -85.2043507  0.101007E-04  0.158E-02    2.10       1.0  T
   4    -85.2043621 -0.113871E-04  0.284E-03    2.10       4.8  T
   5    -85.2043623 -0.278744E-06  0.103E-03    2.10      13.1  T
   6    -85.2043623 -0.393821E-08  0.561E-04    2.10      24.0  T
   7    -85.2043624 -0.909451E-08  0.202E-04    2.10      66.9  T
     SCC iter.                  ...        0 min,  0.024 sec
     gradient                   ...        0 min,  0.009 sec
 * total energy  :   -84.0718274 Eh     change       -0.4690233E-03 Eh
   gradient norm :     0.0099998 Eh/α   predicted    -0.3647883E-03 ( -22.22%)
   displ. norm   :     0.4490154 α      lambda       -0.5881489E-03
   maximum displ.:     0.2886544 α      in ANC's #7, #9, #8, ...

........................................................................
.............................. CYCLE   12 ..............................
........................................................................

 iter      E             dE          RMSdq      gap      omega  full diag
   1    -85.2056324 -0.852056E+02  0.854E-02    2.09       0.0  T
   2    -85.2056365 -0.416234E-05  0.505E-02    2.10       1.0  T
   3    -85.2056285  0.802720E-05  0.138E-02    2.10       1.0  T
   4    -85.2056376 -0.912611E-05  0.322E-03    2.10       4.2  T
   5    -85.2056380 -0.348299E-06  0.125E-03    2.10      10.8  T
   6    -85.2056380 -0.465877E-08  0.640E-04    2.10      21.1  T
   7    -85.2056380 -0.118028E-07  0.248E-04    2.10      54.5  T
     SCC iter.                  ...        0 min,  0.024 sec
     gradient                   ...        0 min,  0.006 sec
 * total energy  :   -84.0722014 Eh     change       -0.3740656E-03 Eh
   gradient norm :     0.0144323 Eh/α   predicted    -0.3533672E-03 (  -5.53%)
   displ. norm   :     0.3529257 α      lambda       -0.4649981E-03
   maximum displ.:     0.2028123 α      in ANC's #7, #5, #9, ...

........................................................................
.............................. CYCLE   13 ..............................
........................................................................

 iter      E             dE          RMSdq      gap      omega  full diag
   1    -85.2061214 -0.852061E+02  0.699E-02    2.10       0.0  T
   2    -85.2061231 -0.165361E-05  0.412E-02    2.10       1.0  T
   3    -85.2061199  0.318392E-05  0.756E-03    2.10       1.8  T
   4    -85.2061237 -0.384234E-05  0.177E-03    2.10       7.6  T
   5    -85.2061238 -0.883505E-07  0.931E-04    2.10      14.5  T
   6    -85.2061238 -0.503265E-08  0.478E-04    2.10      28.2  T
     SCC iter.                  ...        0 min,  0.029 sec
     gradient                   ...        0 min,  0.009 sec
 * total energy  :   -84.0725162 Eh     change       -0.3147930E-03 Eh
   gradient norm :     0.0084972 Eh/α   predicted    -0.2614670E-03 ( -16.94%)
   displ. norm   :     0.2933629 α      lambda       -0.3237991E-03
   maximum displ.:     0.1294141 α      in ANC's #7, #5, #8, ...

........................................................................
.............................. CYCLE   14 ..............................
........................................................................

 iter      E             dE          RMSdq      gap      omega  full diag
   1    -85.2077689 -0.852078E+02  0.610E-02    2.11       0.0  T
   2    -85.2077707 -0.178664E-05  0.365E-02    2.10       1.0  T
   3    -85.2077623  0.834285E-05  0.127E-02    2.10       1.1  T
   4    -85.2077719 -0.957213E-05  0.197E-03    2.10       6.8  T
   5    -85.2077719 -0.634817E-07  0.111E-03    2.10      12.2  T
   6    -85.2077720 -0.143258E-07  0.592E-04    2.10      22.8  T
   7    -85.2077720 -0.703740E-08  0.153E-04    2.10      87.9  T
     SCC iter.                  ...        0 min,  0.028 sec
     gradient                   ...        0 min,  0.008 sec
 * total energy  :   -84.0727623 Eh     change       -0.2460800E-03 Eh
   gradient norm :     0.0068204 Eh/α   predicted    -0.1758369E-03 ( -28.54%)
   displ. norm   :     0.3887896 α      lambda       -0.4042088E-03
   maximum displ.:     0.1578999 α      in ANC's #5, #7, #8, ...

........................................................................
.............................. CYCLE   15 ..............................
........................................................................

 iter      E             dE          RMSdq      gap      omega  full diag
   1    -85.2019654 -0.852020E+02  0.826E-02    2.11       0.0  T
   2    -85.2019703 -0.497333E-05  0.494E-02    2.10       1.0  T
   3    -85.2019526  0.177087E-04  0.200E-02    2.11       1.0  T
   4    -85.2019729 -0.202371E-04  0.323E-03    2.11       4.2  T
   5    -85.2019731 -0.246612E-06  0.151E-03    2.11       8.9  T
   6    -85.2019731 -0.155553E-07  0.859E-04    2.11      15.7  T
   7    -85.2019731 -0.191057E-07  0.221E-04    2.11      61.1  T
     SCC iter.                  ...        0 min,  0.028 sec
     gradient                   ...        0 min,  0.008 sec
 * total energy  :   -84.0729657 Eh     change       -0.2034152E-03 Eh
   gradient norm :     0.0073046 Eh/α   predicted    -0.2326546E-03 (  14.37%)
   displ. norm   :     0.2876467 α      lambda       -0.3715360E-03
   maximum displ.:     0.1032354 α      in ANC's #12, #13, #11, ...

........................................................................
.............................. CYCLE   16 ..............................
........................................................................

 iter      E             dE          RMSdq      gap      omega  full diag
   1    -85.2079135 -0.852079E+02  0.717E-02    2.12       0.0  T
   2    -85.2079183 -0.485752E-05  0.431E-02    2.11       1.0  T
   3    -85.2079070  0.113374E-04  0.167E-02    2.12       1.0  T
   4    -85.2079202 -0.131839E-04  0.335E-03    2.11       4.0  T
   5    -85.2079204 -0.292077E-06  0.148E-03    2.11       9.1  T
   6    -85.2079205 -0.250472E-08  0.783E-04    2.11      17.2  T
   7    -85.2079205 -0.197489E-07  0.186E-04    2.11      72.5  T
     SCC iter.                  ...        0 min,  0.030 sec
     gradient                   ...        0 min,  0.008 sec
 * total energy  :   -84.0730884 Eh     change       -0.1226250E-03 Eh
   gradient norm :     0.0099691 Eh/α   predicted    -0.2011397E-03 (  64.03%)
   displ. norm   :     0.1024137 α      lambda       -0.2230024E-03
   maximum displ.:     0.0518052 α      in ANC's #13, #8, #6, ...

........................................................................
.............................. CYCLE   17 ..............................
........................................................................

 iter      E             dE          RMSdq      gap      omega  full diag
   1    -85.2067747 -0.852068E+02  0.246E-02    2.11       0.0  T
   2    -85.2067763 -0.152038E-05  0.149E-02    2.11       1.0  T
   3    -85.2067743  0.193263E-05  0.747E-03    2.11       1.8  T
   4    -85.2067768 -0.243263E-05  0.168E-03    2.11       8.0  T
   5    -85.2067769 -0.957186E-07  0.643E-04    2.11      21.0  T
   6    -85.2067769 -0.464645E-08  0.386E-04    2.11      35.0  T
     SCC iter.                  ...        0 min,  0.024 sec
     gradient                   ...        0 min,  0.009 sec
 * total energy  :   -84.0732427 Eh     change       -0.1542995E-03 Eh
   gradient norm :     0.0054755 Eh/α   predicted    -0.1126715E-03 ( -26.98%)
   displ. norm   :     0.1828040 α      lambda       -0.2636917E-03
   maximum displ.:     0.0648501 α      in ANC's #8, #9, #5, ...

........................................................................
.............................. CYCLE   18 ..............................
........................................................................

 iter      E             dE          RMSdq      gap      omega  full diag
   1    -85.2052046 -0.852052E+02  0.486E-02    2.10       0.0  T
   2    -85.2052074 -0.275617E-05  0.292E-02    2.11       1.0  T
   3    -85.2052019  0.545773E-05  0.118E-02    2.10       1.1  T
   4    -85.2052083 -0.641908E-05  0.251E-03    2.11       5.4  T
   5    -85.2052086 -0.210046E-06  0.104E-03    2.11      13.0  T
   6    -85.2052086 -0.635360E-08  0.619E-04    2.11      21.8  T
   7    -85.2052086 -0.878664E-08  0.154E-04    2.11      87.4  T
     SCC iter.                  ...        0 min,  0.028 sec
     gradient                   ...        0 min,  0.007 sec
 * total energy  :   -84.0734114 Eh     change       -0.1687809E-03 Eh
   gradient norm :     0.0048232 Eh/α   predicted    -0.1362578E-03 ( -19.27%)
   displ. norm   :     0.2784031 α      lambda       -0.1997560E-03
   maximum displ.:     0.1211480 α      in ANC's #8, #5, #4, ...

........................................................................
.............................. CYCLE   19 ..............................
........................................................................

 iter      E             dE          RMSdq      gap      omega  full diag
   1    -85.2028318 -0.852028E+02  0.765E-02    2.11       0.0  T
   2    -85.2028344 -0.262708E-05  0.458E-02    2.11       1.0  T
   3    -85.2028336  0.834673E-06  0.672E-03    2.11       2.0  T
   4    -85.2028353 -0.173241E-05  0.264E-03    2.11       5.1  T
   5    -85.2028354 -0.108871E-06  0.137E-03    2.11       9.8  T
   6    -85.2028355 -0.198688E-07  0.576E-04    2.11      23.4  T
   7    -85.2028355 -0.997284E-08  0.205E-04    2.11      65.9  T
     SCC iter.                  ...        0 min,  0.041 sec
     gradient                   ...        0 min,  0.009 sec
 * total energy  :   -84.0735116 Eh     change       -0.1001995E-03 Eh
   gradient norm :     0.0076575 Eh/α   predicted    -0.1076211E-03 (   7.41%)
   displ. norm   :     0.1184798 α      lambda       -0.1343926E-03
   maximum displ.:     0.0637636 α      in ANC's #7, #14, #11, ...

........................................................................
.............................. CYCLE   20 ..............................
........................................................................

 iter      E             dE          RMSdq      gap      omega  full diag
   1    -85.2064053 -0.852064E+02  0.297E-02    2.11       0.0  T
   2    -85.2064058 -0.492373E-06  0.175E-02    2.11       1.0  T
   3    -85.2064050  0.854258E-06  0.485E-03    2.11       2.8  T
   4    -85.2064060 -0.991452E-06  0.117E-03    2.11      11.6  T
   5    -85.2064060 -0.409488E-07  0.472E-04    2.11      28.5  T
   6    -85.2064060 -0.129202E-08  0.228E-04    2.11      59.0  T
     SCC iter.                  ...        0 min,  0.022 sec
     gradient                   ...        0 min,  0.007 sec
 * total energy  :   -84.0735966 Eh     change       -0.8495192E-04 Eh
   gradient norm :     0.0043433 Eh/α   predicted    -0.6814175E-04 ( -19.79%)
   displ. norm   :     0.1632845 α      lambda       -0.1014054E-03
   maximum displ.:     0.0688741 α      in ANC's #9, #3, #8, ...
 * RMSD in coord.:     0.7328054 α      energy gain  -0.4605982E-01 Eh

generating ANC from exact Hessian ...
Using Lindh-Hessian (1995)
 Shifting diagonal of input Hessian by   9.955515685266573E-003
 Lowest  eigenvalues of input Hessian
    0.000000    0.000000    0.000000    0.000000    0.000000    0.010000
    0.000000    0.010075    0.010283    0.010565    0.011062    0.011332
    0.011478    0.011846    0.012113    0.012403    0.012658    0.012948
 Highest eigenvalues
    1.985432    2.006320    2.022105    2.028460    2.157294    2.204970
 

........................................................................
.............................. CYCLE   21 ..............................
........................................................................

 iter      E             dE          RMSdq      gap      omega  full diag
   1    -85.2069467 -0.852069E+02  0.421E-02    2.11       0.0  T
   2    -85.2069471 -0.419822E-06  0.249E-02    2.11       1.0  T
   3    -85.2069461  0.104633E-05  0.416E-03    2.11       3.2  T
   4    -85.2069473 -0.129555E-05  0.994E-04    2.11      13.6  T
   5    -85.2069474 -0.889250E-08  0.510E-04    2.11      26.4  T
   6    -85.2069474 -0.344720E-08  0.145E-04    2.11      92.7  T
     SCC iter.                  ...        0 min,  0.022 sec
     gradient                   ...        0 min,  0.007 sec
 * total energy  :   -84.0736733 Eh     change       -0.7673136E-04 Eh
   gradient norm :     0.0035027 Eh/α   predicted     0.0000000E+00 (-100.00%)
   displ. norm   :     0.0446889 α      lambda       -0.4237899E-04
   maximum displ.:     0.0255065 α      in ANC's #7, #3, #9, ...

........................................................................
.............................. CYCLE   22 ..............................
........................................................................

 iter      E             dE          RMSdq      gap      omega  full diag
   1    -85.2072314 -0.852072E+02  0.134E-02    2.11       0.0  T
   2    -85.2072317 -0.249102E-06  0.799E-03    2.11       1.7  T
   3    -85.2072312  0.437782E-06  0.329E-03    2.11       4.1  T
   4    -85.2072317 -0.484880E-06  0.799E-04    2.11      16.9  T
   5    -85.2072317 -0.275157E-07  0.184E-04    2.11      73.2  T
     SCC iter.                  ...        0 min,  0.018 sec
     gradient                   ...        0 min,  0.007 sec
 * total energy  :   -84.0737112 Eh     change       -0.3788367E-04 Eh
   gradient norm :     0.0017388 Eh/α   predicted    -0.2304479E-04 ( -39.17%)
   displ. norm   :     0.2123695 α      lambda       -0.8764627E-04
   maximum displ.:     0.1288667 α      in ANC's #7, #3, #9, ...

........................................................................
.............................. CYCLE   23 ..............................
........................................................................

 iter      E             dE          RMSdq      gap      omega  full diag
   1    -85.2072536 -0.852073E+02  0.586E-02    2.12       0.0  T
   2    -85.2072559 -0.236150E-05  0.347E-02    2.11       1.0  T
   3    -85.2072514  0.454186E-05  0.101E-02    2.11       1.3  T
   4    -85.2072564 -0.495256E-05  0.252E-03    2.11       5.4  T
   5    -85.2072566 -0.277198E-06  0.683E-04    2.11      19.7  T
   6    -85.2072566 -0.502878E-08  0.371E-04    2.11      36.3  T
     SCC iter.                  ...        0 min,  0.022 sec
     gradient                   ...        0 min,  0.008 sec
 * total energy  :   -84.0737806 Eh     change       -0.6938200E-04 Eh
   gradient norm :     0.0038192 Eh/α   predicted    -0.4470185E-04 ( -35.57%)
   displ. norm   :     0.0741105 α      lambda       -0.3482771E-04
   maximum displ.:     0.0475616 α      in ANC's #7, #3, #9, ...

........................................................................
.............................. CYCLE   24 ..............................
........................................................................

 iter      E             dE          RMSdq      gap      omega  full diag
   1    -85.2071372 -0.852071E+02  0.203E-02    2.11       0.0  T
   2    -85.2071372 -0.693912E-07  0.120E-02    2.11       1.1  T
   3    -85.2071372  0.856345E-07  0.149E-03    2.11       9.0  T
   4    -85.2071373 -0.110655E-06  0.387E-04    2.11      34.9  T
   5    -85.2071373 -0.375140E-08  0.199E-04    2.11      67.8  T
     SCC iter.                  ...        0 min,  0.020 sec
     gradient                   ...        0 min,  0.008 sec
 * total energy  :   -84.0738132 Eh     change       -0.3261955E-04 Eh
   gradient norm :     0.0032662 Eh/α   predicted    -0.1751140E-04 ( -46.32%)
   displ. norm   :     0.2428023 α      lambda       -0.1157061E-03
   maximum displ.:     0.1459020 α      in ANC's #7, #3, #4, ...

........................................................................
.............................. CYCLE   25 ..............................
........................................................................

 iter      E             dE          RMSdq      gap      omega  full diag
   1    -85.2066055 -0.852066E+02  0.665E-02    2.11       0.0  T
   2    -85.2066065 -0.971023E-06  0.391E-02    2.11       1.0  T
   3    -85.2066044  0.208201E-05  0.707E-03    2.11       1.9  T
   4    -85.2066068 -0.241189E-05  0.148E-03    2.11       9.1  T
   5    -85.2066069 -0.728930E-07  0.640E-04    2.11      21.1  T
   6    -85.2066069 -0.274906E-08  0.327E-04    2.11      41.2  T
     SCC iter.                  ...        0 min,  0.023 sec
     gradient                   ...        0 min,  0.009 sec
 * total energy  :   -84.0739009 Eh     change       -0.8770717E-04 Eh
   gradient norm :     0.0017949 Eh/α   predicted    -0.6126463E-04 ( -30.15%)
   displ. norm   :     0.3943218 α      lambda       -0.7708543E-04
   maximum displ.:     0.2368210 α      in ANC's #7, #3, #4, ...

........................................................................
.............................. CYCLE   26 ..............................
........................................................................

 iter      E             dE          RMSdq      gap      omega  full diag
   1    -85.2051289 -0.852051E+02  0.109E-01    2.11       0.0  T
   2    -85.2051310 -0.201150E-05  0.643E-02    2.11       1.0  T
   3    -85.2051278  0.310672E-05  0.901E-03    2.11       1.5  T
   4    -85.2051316 -0.378614E-05  0.212E-03    2.11       6.4  T
   5    -85.2051318 -0.132788E-06  0.100E-03    2.11      13.4  T
   6    -85.2051318 -0.600664E-08  0.488E-04    2.11      27.6  T
   7    -85.2051318 -0.645241E-08  0.129E-04    2.11     104.6  T
     SCC iter.                  ...        0 min,  0.036 sec
     gradient                   ...        0 min,  0.010 sec
 * total energy  :   -84.0739693 Eh     change       -0.6840363E-04 Eh
   gradient norm :     0.0045218 Eh/α   predicted    -0.4120950E-04 ( -39.76%)
   displ. norm   :     0.1112713 α      lambda       -0.4179513E-04
   maximum displ.:     0.0674277 α      in ANC's #7, #3, #4, ...

........................................................................
.............................. CYCLE   27 ..............................
........................................................................

 iter      E             dE          RMSdq      gap      omega  full diag
   1    -85.2060776 -0.852061E+02  0.316E-02    2.11       0.0  T
   2    -85.2060777 -0.107001E-06  0.186E-02    2.11       1.0  T
   3    -85.2060776  0.995549E-07  0.158E-03    2.11       8.5  T
   4    -85.2060778 -0.148779E-06  0.461E-04    2.11      29.3  T
   5    -85.2060778 -0.213193E-08  0.278E-04    2.11      48.5  T
     SCC iter.                  ...        0 min,  0.035 sec
     gradient                   ...        0 min,  0.007 sec
 * total energy  :   -84.0740069 Eh     change       -0.3756367E-04 Eh
   gradient norm :     0.0036660 Eh/α   predicted    -0.2115854E-04 ( -43.67%)
   displ. norm   :     0.3527017 α      lambda       -0.1238632E-03
   maximum displ.:     0.2122792 α      in ANC's #7, #3, #4, ...

........................................................................
.............................. CYCLE   28 ..............................
........................................................................

 iter      E             dE          RMSdq      gap      omega  full diag
   1    -85.2073957 -0.852074E+02  0.100E-01    2.11       0.0  T
   2    -85.2073968 -0.116957E-05  0.592E-02    2.11       1.0  T
   3    -85.2073946  0.227019E-05  0.672E-03    2.11       2.0  T
   4    -85.2073974 -0.284981E-05  0.174E-03    2.11       7.7  T
   5    -85.2073975 -0.481383E-07  0.974E-04    2.11      13.8  T
   6    -85.2073975 -0.976374E-08  0.361E-04    2.11      37.4  T
     SCC iter.                  ...        0 min,  0.020 sec
     gradient                   ...        0 min,  0.006 sec
 * total energy  :   -84.0740973 Eh     change       -0.9042424E-04 Eh
   gradient norm :     0.0016051 Eh/α   predicted    -0.6963702E-04 ( -22.99%)
   displ. norm   :     0.5176577 α      lambda       -0.6486533E-04
   maximum displ.:     0.3086867 α      in ANC's #7, #3, #4, ...

........................................................................
.............................. CYCLE   29 ..............................
........................................................................

 iter      E             dE          RMSdq      gap      omega  full diag
   1    -85.2057902 -0.852058E+02  0.149E-01    2.11       0.0  T
   2    -85.2057927 -0.244617E-05  0.880E-02    2.11       1.0  T
   3    -85.2057876  0.505899E-05  0.101E-02    2.11       1.3  T
   4    -85.2057940 -0.635149E-05  0.256E-03    2.11       5.3  T
   5    -85.2057941 -0.902184E-07  0.145E-03    2.11       9.3  T
   6    -85.2057941 -0.228489E-07  0.514E-04    2.11      26.2  T
   7    -85.2057941 -0.674260E-08  0.148E-04    2.11      91.2  T
     SCC iter.                  ...        0 min,  0.040 sec
     gradient                   ...        0 min,  0.006 sec
 * total energy  :   -84.0741465 Eh     change       -0.4919501E-04 Eh
   gradient norm :     0.0033418 Eh/α   predicted    -0.3629953E-04 ( -26.21%)
   displ. norm   :     0.0602937 α      lambda       -0.3758094E-04
   maximum displ.:     0.0218603 α      in ANC's #3, #1, #7, ...

........................................................................
.............................. CYCLE   30 ..............................
........................................................................

 iter      E             dE          RMSdq      gap      omega  full diag
   1    -85.2083970 -0.852084E+02  0.182E-02    2.11       0.0  T
   2    -85.2083972 -0.154175E-06  0.108E-02    2.11       1.2  T
   3    -85.2083968  0.415728E-06  0.308E-03    2.11       4.4  T
   4    -85.2083973 -0.477759E-06  0.624E-04    2.11      21.6  T
   5    -85.2083973 -0.123685E-07  0.278E-04    2.11      48.4  T
     SCC iter.                  ...        0 min,  0.033 sec
     gradient                   ...        0 min,  0.007 sec
 * total energy  :   -84.0741685 Eh     change       -0.2197878E-04 Eh
   gradient norm :     0.0017336 Eh/α   predicted    -0.1886382E-04 ( -14.17%)
   displ. norm   :     0.1836920 α      lambda       -0.1767729E-04
   maximum displ.:     0.0960557 α      in ANC's #7, #3, #1, ...

........................................................................
.............................. CYCLE   31 ..............................
........................................................................

 iter      E             dE          RMSdq      gap      omega  full diag
   1    -85.2086189 -0.852086E+02  0.551E-02    2.11       0.0  T
   2    -85.2086192 -0.339613E-06  0.324E-02    2.11       1.0  T
   3    -85.2086188  0.368283E-06  0.300E-03    2.11       4.5  T
   4    -85.2086194 -0.528251E-06  0.861E-04    2.11      15.7  T
   5    -85.2086194 -0.654629E-08  0.506E-04    2.11      26.6  T
     SCC iter.                  ...        0 min,  0.023 sec
     gradient                   ...        0 min,  0.006 sec
 * total energy  :   -84.0741876 Eh     change       -0.1916976E-04 Eh
   gradient norm :     0.0011107 Eh/α   predicted    -0.8974687E-05 ( -53.18%)
   displ. norm   :     0.1804706 α      lambda       -0.1560639E-04
   maximum displ.:     0.0892004 α      in ANC's #3, #7, #1, ...

........................................................................
.............................. CYCLE   32 ..............................
........................................................................

 iter      E             dE          RMSdq      gap      omega  full diag
   1    -85.2080163 -0.852080E+02  0.544E-02    2.11       0.0  T
   2    -85.2080167 -0.355996E-06  0.320E-02    2.11       1.0  T
   3    -85.2080164  0.264587E-06  0.262E-03    2.11       5.1  T
   4    -85.2080168 -0.419231E-06  0.799E-04    2.11      16.9  T
   5    -85.2080168 -0.601806E-08  0.378E-04    2.11      35.7  T
     SCC iter.                  ...        0 min,  0.016 sec
     gradient                   ...        0 min,  0.007 sec
 * total energy  :   -84.0742029 Eh     change       -0.1524682E-04 Eh
   gradient norm :     0.0014120 Eh/α   predicted    -0.7917719E-05 ( -48.07%)
   displ. norm   :     0.1152364 α      lambda       -0.1371253E-04
   maximum displ.:     0.0564979 α      in ANC's #6, #3, #1, ...

........................................................................
.............................. CYCLE   33 ..............................
........................................................................

 iter      E             dE          RMSdq      gap      omega  full diag
   1    -85.2083260 -0.852083E+02  0.320E-02    2.11       0.0  T
   2    -85.2083262 -0.154348E-06  0.188E-02    2.11       1.0  T
   3    -85.2083260  0.142813E-06  0.185E-03    2.11       7.3  T
   4    -85.2083262 -0.202937E-06  0.545E-04    2.11      24.8  T
   5    -85.2083262 -0.384544E-08  0.305E-04    2.11      44.2  T
     SCC iter.                  ...        0 min,  0.038 sec
     gradient                   ...        0 min,  0.008 sec
 * total energy  :   -84.0742156 Eh     change       -0.1273711E-04 Eh
   gradient norm :     0.0019149 Eh/α   predicted    -0.6897070E-05 ( -45.85%)
   displ. norm   :     0.1173714 α      lambda       -0.1269490E-04
   maximum displ.:     0.0626577 α      in ANC's #6, #1, #3, ...

........................................................................
.............................. CYCLE   34 ..............................
........................................................................

 iter      E             dE          RMSdq      gap      omega  full diag
   1    -85.2083875 -0.852084E+02  0.316E-02    2.11       0.0  T
   2    -85.2083876 -0.121512E-06  0.186E-02    2.11       1.0  T
   3    -85.2083875  0.908836E-07  0.161E-03    2.11       8.4  T
   4    -85.2083876 -0.147192E-06  0.495E-04    2.11      27.2  T
   5    -85.2083876 -0.117377E-08  0.256E-04    2.11      52.7  T
     SCC iter.                  ...        0 min,  0.033 sec
     gradient                   ...        0 min,  0.007 sec
 * total energy  :   -84.0742295 Eh     change       -0.1389145E-04 Eh
   gradient norm :     0.0015729 Eh/α   predicted    -0.6388329E-05 ( -54.01%)
   displ. norm   :     0.1473919 α      lambda       -0.1483975E-04
   maximum displ.:     0.0769388 α      in ANC's #6, #1, #3, ...

........................................................................
.............................. CYCLE   35 ..............................
........................................................................

 iter      E             dE          RMSdq      gap      omega  full diag
   1    -85.2077201 -0.852077E+02  0.400E-02    2.11       0.0  T
   2    -85.2077204 -0.221209E-06  0.235E-02    2.11       1.0  T
   3    -85.2077202  0.128968E-06  0.197E-03    2.11       6.9  T
   4    -85.2077204 -0.211921E-06  0.610E-04    2.11      22.1  T
   5    -85.2077204 -0.509603E-08  0.317E-04    2.11      42.6  T
     SCC iter.                  ...        0 min,  0.019 sec
     gradient                   ...        0 min,  0.006 sec
 * total energy  :   -84.0742440 Eh     change       -0.1448191E-04 Eh
   gradient norm :     0.0011701 Eh/α   predicted    -0.7494123E-05 ( -48.25%)
   displ. norm   :     0.1286660 α      lambda       -0.1133159E-04
   maximum displ.:     0.0655196 α      in ANC's #6, #11, #1, ...

........................................................................
.............................. CYCLE   36 ..............................
........................................................................

 iter      E             dE          RMSdq      gap      omega  full diag
   1    -85.2082423 -0.852082E+02  0.315E-02    2.11       0.0  T
   2    -85.2082426 -0.264031E-06  0.186E-02    2.11       1.0  T
   3    -85.2082424  0.174522E-06  0.223E-03    2.11       6.0  T
   4    -85.2082427 -0.252501E-06  0.707E-04    2.11      19.1  T
   5    -85.2082427 -0.105844E-07  0.383E-04    2.11      35.2  T
     SCC iter.                  ...        0 min,  0.017 sec
     gradient                   ...        0 min,  0.008 sec
 * total energy  :   -84.0742540 Eh     change       -0.1004431E-04 Eh
   gradient norm :     0.0013247 Eh/α   predicted    -0.5707986E-05 ( -43.17%)
   displ. norm   :     0.1218748 α      lambda       -0.9360941E-05
   maximum displ.:     0.0632797 α      in ANC's #1, #3, #6, ...

........................................................................
.............................. CYCLE   37 ..............................
........................................................................

 iter      E             dE          RMSdq      gap      omega  full diag
   1    -85.2078409 -0.852078E+02  0.332E-02    2.11       0.0  T
   2    -85.2078411 -0.149585E-06  0.196E-02    2.11       1.0  T
   3    -85.2078409  0.210417E-06  0.221E-03    2.11       6.1  T
   4    -85.2078412 -0.272101E-06  0.586E-04    2.11      23.0  T
   5    -85.2078412 -0.687146E-08  0.318E-04    2.11      42.4  T
     SCC iter.                  ...        0 min,  0.018 sec
     gradient                   ...        0 min,  0.018 sec
 * total energy  :   -84.0742638 Eh     change       -0.9783220E-05 Eh
   gradient norm :     0.0012979 Eh/α   predicted    -0.4713233E-05 ( -51.82%)
   displ. norm   :     0.1075838 α      lambda       -0.1023264E-04
   maximum displ.:     0.0578111 α      in ANC's #1, #6, #13, ...

........................................................................
.............................. CYCLE   38 ..............................
........................................................................

 iter      E             dE          RMSdq      gap      omega  full diag
   1    -85.2081096 -0.852081E+02  0.271E-02    2.11       0.0  T
   2    -85.2081098 -0.149424E-06  0.161E-02    2.11       1.0  T
   3    -85.2081096  0.181582E-06  0.221E-03    2.11       6.1  T
   4    -85.2081098 -0.244879E-06  0.687E-04    2.11      19.6  T
   5    -85.2081098 -0.831344E-08  0.362E-04    2.11      37.2  T
     SCC iter.                  ...        0 min,  0.024 sec
     gradient                   ...        0 min,  0.010 sec
 * total energy  :   -84.0742735 Eh     change       -0.9630205E-05 Eh
   gradient norm :     0.0010630 Eh/α   predicted    -0.5143403E-05 ( -46.59%)
   displ. norm   :     0.0754911 α      lambda       -0.6216250E-05
   maximum displ.:     0.0458728 α      in ANC's #1, #3, #13, ...

........................................................................
.............................. CYCLE   39 ..............................
........................................................................

 iter      E             dE          RMSdq      gap      omega  full diag
   1    -85.2079959 -0.852080E+02  0.185E-02    2.11       0.0  T
   2    -85.2079960 -0.866013E-07  0.110E-02    2.11       1.2  T
   3    -85.2079960  0.641391E-07  0.137E-03    2.11       9.9  T
   4    -85.2079961 -0.100907E-06  0.481E-04    2.11      28.1  T
   5    -85.2079961 -0.155526E-08  0.273E-04    2.11      49.3  T
     SCC iter.                  ...        0 min,  0.033 sec
     gradient                   ...        0 min,  0.024 sec
 * total energy  :   -84.0742791 Eh     change       -0.5686171E-05 Eh
   gradient norm :     0.0009658 Eh/α   predicted    -0.3118042E-05 ( -45.16%)
   displ. norm   :     0.0596915 α      lambda       -0.4296659E-05
   maximum displ.:     0.0386410 α      in ANC's #1, #3, #5, ...

........................................................................
.............................. CYCLE   40 ..............................
........................................................................

 iter      E             dE          RMSdq      gap      omega  full diag
   1    -85.2080115 -0.852080E+02  0.147E-02    2.11       0.0  T
   2    -85.2080115 -0.641219E-07  0.870E-03    2.11       1.6  T
   3    -85.2080115  0.582044E-07  0.121E-03    2.11      11.2  T
   4    -85.2080115 -0.812115E-07  0.429E-04    2.11      31.4  T
   5    -85.2080116 -0.306234E-08  0.230E-04    2.11      58.7  T
     SCC iter.                  ...        0 min,  0.033 sec
     gradient                   ...        0 min,  0.006 sec
 * total energy  :   -84.0742836 Eh     change       -0.4482530E-05 Eh
   gradient norm :     0.0008158 Eh/α   predicted    -0.2156512E-05 ( -51.89%)
   displ. norm   :     0.0759034 α      lambda       -0.5684743E-05
   maximum displ.:     0.0511708 α      in ANC's #1, #3, #11, ...

   *** GEOMETRY OPTIMIZATION CONVERGED AFTER 40 ITERATIONS ***

------------------------------------------------------------------------
 total energy gain   :        -0.0467469 Eh      -29.3341 kcal/mol
 total RMSD          :         0.9136110 a0        0.4835 Å
 total power (kW/mol):        -3.0683468 (step)  -73.8614 (real)
------------------------------------------------------------------------

 ANCopt (total)                0 d,  0 h,  0 min,  1.662 sec
 optimizer setup                ...        0 min,  0.000 sec (  0.009%)
 model hessian                  ...        0 min,  0.064 sec (  3.842%)
 ANC generation                 ...        0 min,  0.004 sec (  0.258%)
 coordinate transformation      ...        0 min,  0.004 sec (  0.235%)
 single point calculation       ...        0 min,  1.553 sec ( 93.453%)
 optimization log               ...        0 min,  0.019 sec (  1.114%)
 hessian update                 ...        0 min,  0.011 sec (  0.681%)
 rational function              ...        0 min,  0.005 sec (  0.297%)

================
 final structure:
================
55
 xtb: 6.7.1 (edcfbbe)
O            6.00262729387642        1.07723227978565       -2.78489539893039
C            5.49489004573469        1.19273602372715       -1.47650361343521
C            5.16281688366356       -0.22504633687833       -0.98535930916576
N            4.65104241633414       -0.24172857656935        0.36345204357200
C            5.63046113474517       -0.44693752811416        1.40297397760730
C            5.84581446265317       -1.93978402391192        1.72613195011139
O            6.88711883244278       -2.13660663994091        2.64748718346515
C            3.31336598675763       -0.13117444750813        0.63398713304071
C            2.79655214540879       -0.34711826175955        1.92329564336559
C            1.45265887679743       -0.22997585335386        2.18419776102502
C            0.53096357160140        0.10278347656508        1.18430852273145
C           -0.86581636459585        0.19093427605987        1.50665680457064
C           -1.88185211786568        0.49628181871381        0.67631197002064
C           -3.25276451633382        0.52157010939895        1.16247016497472
C           -4.28634444520564        0.85972522744805        0.05490546485082
O           -5.50868122483202        1.13806408728418        0.68474483071627
C           -6.60317816226025        1.28878326618265       -0.19445597982407
O           -3.86388766937491        1.93977400003248       -0.75326422367706
C           -3.66794814443965        3.14626426389387       -0.04402228237450
C           -4.33332059091193       -0.40169794685588       -0.79133606458325
C           -4.86662053443937       -1.55409740241951       -0.22493186965669
C           -4.90490235096058       -2.72847130060835       -0.95336225965913
C           -4.40608880818370       -2.76122535080675       -2.24565568930122
C           -3.87190133333301       -1.61451346785682       -2.80812336002279
C           -3.83260090005985       -0.43523640412542       -2.08456911484498
O           -3.59602552927823        0.24189323439562        2.29005708371557
C            1.04436569669515        0.32092440142761       -0.10012791677269
C            2.38700114188706        0.21233064313940       -0.36761266555351
H            6.22595753383635        1.95157871982782       -3.12019174369546
H            6.23834380446904        1.64788441533987       -0.80618307620661
H            4.59130397346620        1.81743735079091       -1.45617696711834
H            4.45161448035447       -0.68161783843953       -1.67594823596036
H            6.07856784807149       -0.81828290207990       -1.02809034675419
H            5.33430654319358        0.09243386767024        2.30777613765905
H            6.58461501634354       -0.02790940523128        1.07214172498203
H            6.14930312998732       -2.47064018188304        0.82093745014957
H            4.90711713249482       -2.38385494725348        2.08417506853099
H            6.65097766670149       -1.72761125913238        3.48756192186361
H            3.44675193349070       -0.62472329466809        2.73651580735047
H            1.09557724414985       -0.40911092145783        3.18828206595741
H           -1.13024351299646       -0.02077150678927        2.53673411480746
H           -1.73627159073922        0.72906424372676       -0.36655383714092
H           -7.43204331108331        1.63323715820634        0.42077864305810
H           -6.38600767093705        2.02686781361909       -0.97287665809333
H           -6.86584363309592        0.33786432224241       -0.67030280808733
H           -3.53364152359715        3.91889756368225       -0.79912133023407
H           -4.53428775870108        3.38170777609352        0.57939205291954
H           -2.77777663345362        3.09033456600661        0.59235146208725
H           -5.24603885461926       -1.51471123634489        0.78546976942974
H           -5.32078685690201       -3.62112087153874       -0.51039685930347
H           -4.43332162266811       -3.67984723665149       -2.81336754808230
H           -3.48356457098835       -1.63634425361035       -3.81644592011451
H           -3.42758604574464        0.46528296190755       -2.51860441896764
H            0.37445115594097        0.58424289026086       -0.90372289781680
H            2.72077932649295        0.40402963835785       -1.37375335717983
 
 Bond Distances (Angstroems)
 ---------------------------
O1-C2=1.4082         O1-H29=0.9627        C2-O1=1.4082         C2-C3=1.5368         C2-H30=1.0996        C2-H31=1.0987        
C3-C2=1.5368         C3-N4=1.4427         C3-H32=1.0914        C3-H33=1.0920        N4-C3=1.4427         N4-C5=1.4429         
N4-C8=1.3692         C5-N4=1.4429         C5-C6=1.5425         C5-H34=1.0942        C5-H35=1.0934        C6-C5=1.5425         
C6-O7=1.4043         C6-H36=1.0924        C6-H37=1.0984        O7-C6=1.4043         O7-H38=0.9637        C8-N4=1.3692         
C8-C9=1.4057         C8-C28=1.4069        C9-C8=1.4057         C9-C10=1.3740        C9-H39=1.0776        C10-C9=1.3740        
C10-C11=1.4000       C10-H40=1.0806       C11-C10=1.4000       C11-C12=1.4362       C11-C27=1.4003       C12-C11=1.4362       
C12-C13=1.3472       C12-H41=1.0843       C13-C12=1.3472       C13-C14=1.4548       C13-H42=1.0784       C14-C13=1.4548       
C14-C15=1.5522       C14-O26=1.2114       C15-C14=1.5522       C15-O16=1.4030       C15-O18=1.4135       C15-C20=1.5197       
O16-C15=1.4030       O16-C17=1.4120       C17-O16=1.4120       C17-H43=1.0882       C17-H44=1.0945       C17-H45=1.0953       
O18-C15=1.4135       O18-C19=1.4132       C19-O18=1.4132       C19-H46=1.0887       C19-H47=1.0930       C19-H48=1.0957       
C20-C15=1.5197       C20-C21=1.3904       C20-C25=1.3872       C21-C20=1.3904       C21-C22=1.3825       C21-H49=1.0800       
C22-C21=1.3825       C22-C23=1.3856       C22-H50=1.0798       C23-C22=1.3856       C23-C24=1.3844       C23-H51=1.0802       
C24-C23=1.3844       C24-C25=1.3841       C24-H52=1.0807       C25-C20=1.3872       C25-C24=1.3841       C25-H53=1.0786       
O26-C14=1.2114       C27-C11=1.4003       C27-C28=1.3733       C27-H54=1.0788       C28-C8=1.4069        C28-C27=1.3733       
C28-H55=1.0773       H29-O1=0.9627        H30-C2=1.0996        H31-C2=1.0987        H32-C3=1.0914        H33-C3=1.0920        
H34-C5=1.0942        H35-C5=1.0934        H36-C6=1.0924        H37-C6=1.0984        H38-O7=0.9637        H39-C9=1.0776        
H40-C10=1.0806       H41-C12=1.0843       H42-C13=1.0784       H43-C17=1.0882       H44-C17=1.0945       H45-C17=1.0953       
H46-C19=1.0887       H47-C19=1.0930       H48-C19=1.0957       H49-C21=1.0800       H50-C22=1.0798       H51-C23=1.0802       
H52-C24=1.0807       H53-C25=1.0786       H54-C27=1.0788       H55-C28=1.0773       
 C  H  Rav=1.0877 sigma=0.0076  Rmin=1.0773  Rmax=1.0996    25
 C  C  Rav=1.4244 sigma=0.0628  Rmin=1.3472  Rmax=1.5522    19
 N  C  Rav=1.4183 sigma=0.0347  Rmin=1.3692  Rmax=1.4429     3
 O  H  Rav=0.9632 sigma=0.0005  Rmin=0.9627  Rmax=0.9637     2
 O  C  Rav=1.3808 sigma=0.0693  Rmin=1.2114  Rmax=1.4135     7
 
 selected bond angles (degree)
 --------------------
H29-O1-C2=109.44               C3-C2-O1=107.41                H30-C2-O1=110.89               H30-C2-C3=109.46               
H31-C2-O1=111.12               H31-C2-C3=109.93               H31-C2-H30=108.02              N4-C3-C2=112.71                
H32-C3-C2=108.94               H32-C3-N4=110.83               H33-C3-C2=107.91               H33-C3-N4=109.13               
H33-C3-H32=107.12              C5-N4-C3=115.75                C8-N4-C3=122.03                C8-N4-C5=122.16                
C6-C5-N4=112.54                H34-C5-N4=109.99               H34-C5-C6=109.97               H35-C5-N4=108.65               
H35-C5-C6=108.21               H35-C5-H34=107.31              O7-C6-C5=112.12                H36-C6-C5=109.60               
H36-C6-O7=105.64               H37-C6-C5=109.89               H37-C6-O7=111.29               H37-C6-H36=108.12              
H38-O7-C6=109.31               C9-C8-N4=121.87                C28-C8-N4=121.49               C28-C8-C9=116.64               
C10-C9-C8=121.38               H39-C9-C8=120.66               H39-C9-C10=117.96              C11-C10-C9=121.91              
H40-C10-C9=119.05              H40-C10-C11=119.04             
 
 selected dihedral angles (degree)
 ---------------------------------
C3-C2-O1-H29=180.33           H30-C2-O1-H29=299.89          H31-C2-O1-H29= 60.06          N4-C3-C2-O1=179.01            
N4-C3-C2-H30= 58.54           N4-C3-C2-H31=300.04           H32-C3-C2-O1=302.46           H32-C3-C2-H30=181.99          
H32-C3-C2-H31= 63.48          H33-C3-C2-O1= 58.43           H33-C3-C2-H30=297.96          H33-C3-C2-H31=179.46          
C5-N4-C3-C2=266.75            C5-N4-C3-H32=144.37           C5-N4-C3-H33= 26.63           C8-N4-C3-C2= 89.63            
C8-N4-C3-H32=327.25           C8-N4-C3-H33=209.51           C6-C5-N4-C3=270.62            C6-C5-N4-C8= 87.74            
H34-C5-N4-C3=147.62           H34-C5-N4-C8=324.74           H35-C5-N4-C3= 30.43           H35-C5-N4-C8=207.55           
O7-C6-C5-N4=174.45            O7-C6-C5-H34=297.46           O7-C6-C5-H35= 54.38           H36-C6-C5-N4= 57.47           
H36-C6-C5-H34=180.47          H36-C6-C5-H35=297.40          H37-C6-C5-N4=298.78           H37-C6-C5-H34= 61.79          
H37-C6-C5-H35=178.71          H38-O7-C6-C5= 63.73           H38-O7-C6-H36=183.07          H38-O7-C6-H37=300.18          
C9-C8-N4-C3=170.28            C9-C8-N4-C5=353.35            C28-C8-N4-C3=349.94           C28-C8-N4-C5=173.01           
C10-C9-C8-N4=179.82           C10-C9-C8-C28=  0.15          H39-C9-C8-N4=358.94           H39-C9-C8-C28=179.27          
C11-C10-C9-C8=  0.30          C11-C10-C9-H39=181.15         H40-C10-C9-C8=179.70          H40-C10-C9-H39=  0.56         
           -------------------------------------------------
          |                Final Singlepoint                |
           -------------------------------------------------

          ...................................................
          :                      SETUP                      :
          :.................................................:
          :  # basis functions                 139          :
          :  # atomic orbitals                 139          :
          :  # shells                           83          :
          :  # electrons                       150          :
          :  max. iterations                   250          :
          :  Hamiltonian                  GFN2-xTB          :
          :  restarted?                      false          :
          :  GBSA solvation                  false          :
          :  PC potential                    false          :
          :  electronic temp.          300.0000000     K    :
          :  accuracy                    1.0000000          :
          :  -> integral cutoff          0.2500000E+02      :
          :  -> integral neglect         0.1000000E-07      :
          :  -> SCF convergence          0.1000000E-05 Eh   :
          :  -> wf. convergence          0.1000000E-03 e    :
          :  Broyden damping             0.4000000          :
          :  net charge                          0          :
          :  unpaired electrons                  0          :
          ...................................................

 iter      E             dE          RMSdq      gap      omega  full diag
   1    -85.2080116 -0.852080E+02  0.985E-05    2.11       0.0  T
   2    -85.2080116 -0.563887E-10  0.660E-05    2.11     204.4  T
   3    -85.2080116 -0.688658E-10  0.435E-05    2.11     309.9  T

   *** convergence criteria satisfied after 3 iterations ***

         #    Occupation            Energy/Eh            Energy/eV
      -------------------------------------------------------------
         1        2.0000           -0.7070336             -19.2394
       ...           ...                  ...                  ...
        69        2.0000           -0.4124982             -11.2246
        70        2.0000           -0.4093322             -11.1385
        71        2.0000           -0.4042608             -11.0005
        72        2.0000           -0.4031584             -10.9705
        73        2.0000           -0.3993619             -10.8672
        74        2.0000           -0.3691029             -10.0438
        75        2.0000           -0.3612621              -9.8304 (HOMO)
        76                         -0.2837539              -7.7213 (LUMO)
        77                         -0.2270516              -6.1784
        78                         -0.2251112              -6.1256
        79                         -0.2216784              -6.0322
        80                         -0.2065122              -5.6195
       ...                                ...                  ...
       139                          0.7068380              19.2340
      -------------------------------------------------------------
                  HL-Gap            0.0775082 Eh            2.1091 eV
             Fermi-level           -0.3225080 Eh           -8.7759 eV

 SCC (total)                   0 d,  0 h,  0 min,  0.036 sec
 SCC setup                      ...        0 min,  0.000 sec (  0.311%)
 Dispersion                     ...        0 min,  0.000 sec (  0.884%)
 classical contributions        ...        0 min,  0.000 sec (  0.154%)
 integral evaluation            ...        0 min,  0.002 sec (  4.512%)
 iterations                     ...        0 min,  0.022 sec ( 62.302%)
 molecular gradient             ...        0 min,  0.011 sec ( 31.040%)
 printout                       ...        0 min,  0.000 sec (  0.708%)

         :::::::::::::::::::::::::::::::::::::::::::::::::::::
         ::                     SUMMARY                     ::
         :::::::::::::::::::::::::::::::::::::::::::::::::::::
         :: total energy             -84.074283628954 Eh    ::
         :: gradient norm              0.000816886939 Eh/a0 ::
         :: HOMO-LUMO gap              2.109105640875 eV    ::
         ::.................................................::
         :: SCC energy               -85.207585365281 Eh    ::
         :: -> isotropic ES            0.117820722846 Eh    ::
         :: -> anisotropic ES          0.006704507750 Eh    ::
         :: -> anisotropic XC          0.024714950184 Eh    ::
         :: -> dispersion             -0.057285291946 Eh    ::
         :: repulsion energy           1.133301736326 Eh    ::
         :: add. restraining           0.000000000000 Eh    ::
         :: total charge               0.000000000000 e     ::
         :::::::::::::::::::::::::::::::::::::::::::::::::::::

           -------------------------------------------------
          |                Property Printout                |
           -------------------------------------------------

    * Orbital Energies and Occupations

         #    Occupation            Energy/Eh            Energy/eV
      -------------------------------------------------------------
         1        2.0000           -0.7070336             -19.2394
       ...           ...                  ...                  ...
        63        2.0000           -0.4357055             -11.8562
        64        2.0000           -0.4292729             -11.6811
        65        2.0000           -0.4273239             -11.6281
        66        2.0000           -0.4228971             -11.5076
        67        2.0000           -0.4217916             -11.4775
        68        2.0000           -0.4155500             -11.3077
        69        2.0000           -0.4124982             -11.2246
        70        2.0000           -0.4093322             -11.1385
        71        2.0000           -0.4042608             -11.0005
        72        2.0000           -0.4031584             -10.9705
        73        2.0000           -0.3993619             -10.8672
        74        2.0000           -0.3691029             -10.0438
        75        2.0000           -0.3612621              -9.8304 (HOMO)
        76                         -0.2837539              -7.7213 (LUMO)
        77                         -0.2270516              -6.1784
        78                         -0.2251112              -6.1256
        79                         -0.2216784              -6.0322
        80                         -0.2065122              -5.6195
        81                         -0.1514388              -4.1209
        82                         -0.0931894              -2.5358
        83                         -0.0789346              -2.1479
        84                         -0.0404830              -1.1016
        85                          0.0179240               0.4877
        86                          0.0256146               0.6970
       ...                                ...                  ...
       139                          0.7068380              19.2340
      -------------------------------------------------------------
                  HL-Gap            0.0775082 Eh            2.1091 eV
             Fermi-level           -0.3225080 Eh           -8.7759 eV

     #   Z          covCN         q      C6AA      α(0)
     1   8 O        1.656    -0.439    21.612     6.276
     2   6 C        3.672     0.081    19.452     6.321
     3   6 C        3.748    -0.012    20.856     6.514
     4   7 N        2.737    -0.094    23.068     7.133
     5   6 C        3.746    -0.018    20.967     6.532
     6   6 C        3.673     0.072    19.598     6.344
     7   8 O        1.656    -0.433    21.504     6.260
     8   6 C        2.908     0.066    26.515     8.443
     9   6 C        2.920    -0.062    29.544     8.913
    10   6 C        2.927    -0.030    28.752     8.793
    11   6 C        2.968    -0.001    28.039     8.686
    12   6 C        2.908    -0.011    28.282     8.720
    13   6 C        2.894    -0.074    29.851     8.958
    14   6 C        2.831     0.209    23.580     7.957
    15   6 C        3.707     0.249    16.892     5.875
    16   8 O        1.701    -0.317    19.296     5.931
    17   6 C        3.647     0.047    20.115     6.445
    18   8 O        1.700    -0.337    19.656     5.986
    19   6 C        3.647     0.047    20.117     6.445
    20   6 C        2.984    -0.010    28.251     8.719
    21   6 C        2.923    -0.032    28.794     8.800
    22   6 C        2.920    -0.029    28.719     8.788
    23   6 C        2.920    -0.031    28.764     8.795
    24   6 C        2.920    -0.029    28.736     8.791
    25   6 C        2.921    -0.031    28.784     8.798
    26   8 O        0.857    -0.360    20.892     6.128
    27   6 C        2.922    -0.028    28.710     8.787
    28   6 C        2.921    -0.062    29.540     8.913
    29   1 H        0.805     0.294     0.741     1.352
    30   1 H        0.923     0.021     2.712     2.575
    31   1 H        0.923     0.027     2.633     2.538
    32   1 H        0.924     0.067     2.116     2.275
    33   1 H        0.924     0.064     2.147     2.292
    34   1 H        0.924     0.049     2.336     2.390
    35   1 H        0.924     0.058     2.222     2.331
    36   1 H        0.924     0.056     2.249     2.345
    37   1 H        0.923     0.029     2.606     2.525
    38   1 H        0.805     0.289     0.754     1.364
    39   1 H        0.926     0.028     2.609     2.526
    40   1 H        0.926     0.038     2.470     2.457
    41   1 H        0.925     0.065     2.146     2.291
    42   1 H        0.926     0.048     2.345     2.395
    43   1 H        0.925     0.058     2.222     2.331
    44   1 H        0.924     0.038     2.474     2.460
    45   1 H        0.924     0.030     2.589     2.516
    46   1 H        0.925     0.054     2.267     2.355
    47   1 H        0.924     0.046     2.365     2.405
    48   1 H        0.924     0.027     2.624     2.533
    49   1 H        0.926     0.051     2.309     2.376
    50   1 H        0.926     0.036     2.497     2.471
    51   1 H        0.926     0.034     2.532     2.488
    52   1 H        0.926     0.034     2.525     2.485
    53   1 H        0.926     0.049     2.332     2.388
    54   1 H        0.926     0.040     2.451     2.448
    55   1 H        0.926     0.037     2.496     2.470

 Mol. C6AA /au·bohr⁶  :      31849.575029
 Mol. C8AA /au·bohr⁸  :     739083.240865
 Mol. α(0) /au        :        276.432180


Wiberg/Mayer (AO) data.
largest (>0.10) Wiberg bond orders for each atom

 ---------------------------------------------------------------------------
     #   Z sym  total        # sym  WBO       # sym  WBO       # sym  WBO
 ---------------------------------------------------------------------------
     1   8 O    1.953 --     2 C    1.001    29 H    0.900
     2   6 C    3.954 --     1 O    1.001     3 C    0.986    30 H    0.971
                            31 H    0.969
     3   6 C    3.973 --     4 N    1.001     2 C    0.986    33 H    0.967
                            32 H    0.963
     4   7 N    3.412 --     8 C    1.183     5 C    1.001     3 C    1.001
     5   6 C    3.976 --     4 N    1.001     6 C    0.976    35 H    0.969
                            34 H    0.965
     6   6 C    3.951 --     7 O    1.007     5 C    0.976    36 H    0.971
                            37 H    0.969
     7   8 O    1.967 --     6 C    1.007    38 H    0.902
     8   6 C    3.958 --     9 C    1.307    28 C    1.301     4 N    1.183
     9   6 C    3.982 --    10 C    1.507     8 C    1.307    39 H    0.963
    10   6 C    3.989 --     9 C    1.507    11 C    1.330    40 H    0.968
    11   6 C    3.984 --    10 C    1.330    27 C    1.326    12 C    1.156
    12   6 C    3.971 --    13 C    1.701    11 C    1.156    41 H    0.958
    13   6 C    3.967 --    12 C    1.701    14 C    1.098    42 H    0.961
    14   6 C    3.924 --    26 O    1.791    13 C    1.098    15 C    0.896
    15   6 C    3.921 --    16 O    0.974    18 O    0.957    20 C    0.947
                            14 C    0.896
    16   8 O    2.094 --    17 C    0.984    15 C    0.974
    17   6 C    3.948 --    16 O    0.984    43 H    0.981    44 H    0.979
                            45 H    0.978
    18   8 O    2.077 --    19 C    0.984    15 C    0.957
    19   6 C    3.947 --    18 O    0.984    46 H    0.981    47 H    0.979
                            48 H    0.977
    20   6 C    3.983 --    25 C    1.413    21 C    1.404    15 C    0.947
                            23 C    0.108
    21   6 C    3.990 --    22 C    1.449    20 C    1.404    49 H    0.967
                            24 C    0.111
    22   6 C    3.992 --    21 C    1.449    23 C    1.434    50 H    0.971
                            25 C    0.110
    23   6 C    3.988 --    24 C    1.441    22 C    1.434    51 H    0.971
                            20 C    0.108
    24   6 C    3.991 --    23 C    1.441    25 C    1.440    52 H    0.971
                            21 C    0.111
    25   6 C    3.990 --    24 C    1.440    20 C    1.413    53 H    0.966
                            22 C    0.110
    26   8 O    2.054 --    14 C    1.791
    27   6 C    3.990 --    28 C    1.515    11 C    1.326    54 H    0.966
    28   6 C    3.983 --    27 C    1.515     8 C    1.301    55 H    0.963
    29   1 H    0.914 --     1 O    0.900
    30   1 H    0.999 --     2 C    0.971
    31   1 H    0.999 --     2 C    0.969
    32   1 H    0.995 --     3 C    0.963
    33   1 H    0.994 --     3 C    0.967
    34   1 H    0.997 --     5 C    0.965
    35   1 H    0.995 --     5 C    0.969
    36   1 H    0.997 --     6 C    0.971
    37   1 H    0.999 --     6 C    0.969
    38   1 H    0.916 --     7 O    0.902
    39   1 H    0.999 --     9 C    0.963
    40   1 H    0.998 --    10 C    0.968
    41   1 H    0.995 --    12 C    0.958
    42   1 H    0.998 --    13 C    0.961
    43   1 H    0.996 --    17 C    0.981
    44   1 H    0.999 --    17 C    0.979
    45   1 H    0.999 --    17 C    0.978
    46   1 H    0.997 --    19 C    0.981
    47   1 H    0.998 --    19 C    0.979
    48   1 H    0.999 --    19 C    0.977
    49   1 H    0.997 --    21 C    0.967
    50   1 H    0.998 --    22 C    0.971
    51   1 H    0.998 --    23 C    0.971
    52   1 H    0.998 --    24 C    0.971
    53   1 H    0.998 --    25 C    0.966
    54   1 H    0.998 --    27 C    0.966
    55   1 H    0.998 --    28 C    0.963
 ---------------------------------------------------------------------------

Topologies differ in total number of bonds
Writing topology from bond orders to xtbtopo.mol

molecular dipole:
                 x           y           z       tot (Debye)
 q only:        2.120       0.509      -0.752
   full:        2.002       0.935      -0.750       5.931
molecular quadrupole (traceless):
                xx          xy          yy          xz          yz          zz
 q only:       -0.714      13.788       4.779      17.829      -1.641      -4.065
  q+dip:       -4.813      20.479       5.410      19.326      -3.719      -0.597
   full:       -5.018      20.214       7.776      20.981      -2.704      -2.758

           -------------------------------------------------
          |                Geometry Summary                 |
           -------------------------------------------------

      molecular mass/u    :      385.4543179
   center of mass at/Å    :       -0.2205705      -0.0482055       0.0994941
  moments of inertia/u·Å² :        0.1617336E+04   0.8270895E+04   0.8432623E+04
rotational constants/cm⁻¹ :        0.1042309E-01   0.2038187E-02   0.1999097E-02

 * 51 selected distances

     #   Z          #   Z                                           value/Å
     1   8 O        2   6 C                                       1.4082001
     2   6 C        3   6 C                                       1.5367507 (max)
     3   6 C        4   7 N                                       1.4427349
     4   7 N        5   6 C                                       1.4429061
     6   6 C        7   8 O                                       1.4042613
     4   7 N        8   6 C                                       1.3692297
     8   6 C        9   6 C                                       1.4057187
     9   6 C       10   6 C                                       1.3739875
    10   6 C       11   6 C                                       1.4000107
    12   6 C       13   6 C                                       1.3472337
    15   6 C       16   8 O                                       1.4029532
    16   8 O       17   6 C                                       1.4119611
    15   6 C       18   8 O                                       1.4135465
    18   8 O       19   6 C                                       1.4131651
    20   6 C       21   6 C                                       1.3904127
    21   6 C       22   6 C                                       1.3824727
    22   6 C       23   6 C                                       1.3856083
    23   6 C       24   6 C                                       1.3844402
    20   6 C       25   6 C                                       1.3871904
    24   6 C       25   6 C                                       1.3841134
    14   6 C       26   8 O                                       1.2114041
    11   6 C       27   6 C                                       1.4003373
     8   6 C       28   6 C                                       1.4068938
    27   6 C       28   6 C                                       1.3733212
     1   8 O       29   1 H                                       0.9626951 (min)
     2   6 C       30   1 H                                       1.0996424
     2   6 C       31   1 H                                       1.0986960
     3   6 C       32   1 H                                       1.0914118
     3   6 C       33   1 H                                       1.0919504
     5   6 C       34   1 H                                       1.0942103
     5   6 C       35   1 H                                       1.0933638
     6   6 C       36   1 H                                       1.0923786
     6   6 C       37   1 H                                       1.0984292
     7   8 O       38   1 H                                       0.9637249
     9   6 C       39   1 H                                       1.0775674
    10   6 C       40   1 H                                       1.0806397
    12   6 C       41   1 H                                       1.0843434
    13   6 C       42   1 H                                       1.0784019
    17   6 C       43   1 H                                       1.0882002
    17   6 C       44   1 H                                       1.0944728
    17   6 C       45   1 H                                       1.0952947
    19   6 C       46   1 H                                       1.0886576
    19   6 C       47   1 H                                       1.0929884
    19   6 C       48   1 H                                       1.0956757
    21   6 C       49   1 H                                       1.0800098
    22   6 C       50   1 H                                       1.0798156
    23   6 C       51   1 H                                       1.0802337
    24   6 C       52   1 H                                       1.0807389
    25   6 C       53   1 H                                       1.0785912
    27   6 C       54   1 H                                       1.0788361
    28   6 C       55   1 H                                       1.0772538

 * 5 distinct bonds (by element types)

   Z      Z             #   av. dist./Å        max./Å        min./Å
   1 H    6 C          25     1.0876721     1.0996424     1.0772538
   6 C    6 C          14     1.3970351     1.5367507     1.3472337
   6 C    7 N           3     1.4182902     1.4429061     1.3692297
   1 H    8 O           2     0.9632100     0.9637249     0.9626951
   6 C    8 O           7     1.3807845     1.4135465     1.2114041


optimized geometry written to: xtbopt.xyz


           -------------------------------------------------
          | TOTAL ENERGY              -84.074283628954 Eh   |
          | GRADIENT NORM               0.000816886939 Eh/α |
          | HOMO-LUMO GAP               2.109105640875 eV   |
           -------------------------------------------------

------------------------------------------------------------------------
 * finished run on 2025/12/01 at 14:22:24.170     
------------------------------------------------------------------------
 total:
 * wall-time:     0 d,  0 h,  0 min,  1.795 sec
 *  cpu-time:     0 d,  0 h,  0 min, 40.643 sec
 * ratio c/w:    22.642 speedup
 SCF:
 * wall-time:     0 d,  0 h,  0 min,  0.085 sec
 *  cpu-time:     0 d,  0 h,  0 min,  1.922 sec
 * ratio c/w:    22.654 speedup
 ANC optimizer:
 * wall-time:     0 d,  0 h,  0 min,  1.699 sec
 *  cpu-time:     0 d,  0 h,  0 min, 38.494 sec
 * ratio c/w:    22.661 speedup

normal termination of xtb
