      -----------------------------------------------------------      
     |                   =====================                   |     
     |                           x T B                           |     
     |                   =====================                   |     
     |                         S. Grimme                         |     
     |          Mulliken Center for Theoretical Chemistry        |     
     |                    University of Bonn                     |     
      -----------------------------------------------------------      

   * xtb version 6.7.1 (edcfbbe) compiled by 'albert@albert-system' on 2024-07-22

   xtb is free software: you can redistribute it and/or modify it under
   the terms of the GNU Lesser General Public License as published by
   the Free Software Foundation, either version 3 of the License, or
   (at your option) any later version.
   
   xtb is distributed in the hope that it will be useful,
   but WITHOUT ANY WARRANTY; without even the implied warranty of
   MERCHANTABILITY or FITNESS FOR A PARTICULAR PURPOSE.  See the
   GNU Lesser General Public License for more details.
   
   Cite this work as:
   * C. Bannwarth, E. Caldeweyher, S. Ehlert, A. Hansen, P. Pracht,
     J. Seibert, S. Spicher, S. Grimme, WIREs Comput. Mol. Sci., 2020, 11,
     e01493. DOI: 10.1002/wcms.1493
   
   for GFN2-xTB:
   * C. Bannwarth, S. Ehlert and S. Grimme., J. Chem. Theory Comput., 2019,
     15, 1652-1671. DOI: 10.1021/acs.jctc.8b01176
   for GFN1-xTB:
   * S. Grimme, C. Bannwarth, P. Shushkov, J. Chem. Theory Comput., 2017,
     13, 1989-2009. DOI: 10.1021/acs.jctc.7b00118
   for GFN0-xTB:
   * P. Pracht, E. Caldeweyher, S. Ehlert, S. Grimme, ChemRxiv, 2019, preprint.
     DOI: 10.26434/chemrxiv.8326202.v1
   for GFN-FF:
   * S. Spicher and S. Grimme, Angew. Chem. Int. Ed., 2020, 59, 15665-15673.
     DOI: 10.1002/anie.202004239
   
   for ALPB and GBSA implicit solvation:
   * S. Ehlert, M. Stahn, S. Spicher, S. Grimme, J. Chem. Theory Comput.,
     2021, 17, 4250-4261. DOI: 10.1021/acs.jctc.1c00471
   
   for ddCOSMO and CPCM-X implicit solvation:
   * M. Stahn, S. Ehlert, S. Grimme, J. Phys. Chem. A,
     2023, XX, XXXX-XXXX. DOI: 10.1021/acs.jpca.3c04382
   
   for DFT-D4:
   * E. Caldeweyher, C. Bannwarth and S. Grimme, J. Chem. Phys., 2017,
     147, 034112. DOI: 10.1063/1.4993215
   * E. Caldeweyher, S. Ehlert, A. Hansen, H. Neugebauer, S. Spicher,
     C. Bannwarth and S. Grimme, J. Chem. Phys., 2019, 150, 154122.
     DOI: 10.1063/1.5090222
   * E. Caldeweyher, J.-M. Mewes, S. Ehlert and S. Grimme, Phys. Chem. Chem. Phys.
     2020, 22, 8499-8512. DOI: 10.1039/D0CP00502A
   
   for sTDA-xTB:
   * S. Grimme and C. Bannwarth, J. Chem. Phys., 2016, 145, 054103.
     DOI: 10.1063/1.4959605
   
   in the mass-spec context:
   * V. Asgeirsson, C. Bauer and S. Grimme, Chem. Sci., 2017, 8, 4879.
     DOI: 10.1039/c7sc00601b
   * J. Koopman and S. Grimme, ACS Omega 2019, 4, 12, 15120-15133.
     DOI: 10.1021/acsomega.9b02011
   
   for metadynamics refer to:
   * S. Grimme, J. Chem. Theory Comput., 2019, 155, 2847-2862
     DOI: 10.1021/acs.jctc.9b00143
   
   for SPH calculations refer to:
   * S. Spicher and S. Grimme, J. Chem. Theory Comput., 2021, 17, 1701-1714
     DOI: 10.1021/acs.jctc.0c01306
   
   for ONIOM refer to:
   * C. Plett, A. Katbashev, S. Ehlert, S. Grimme, M. Bursch,
     Phys. Chem. Chem. Phys., 2023, 25, 17860-17868. DOI: 10.1039/D3CP02178E
   
   for DIPRO refer to:
   * J. Kohn, N. Gildemeister, S. Grimme, D. Fazzi, A. Hansen,
     J. Chem. Phys., 2023, just accepted.
   
   for PTB refer to:
   * S. Grimme, M. Mueller, A. Hansen, J. Chem. Phys., 2023, 158, 124111.
     DOI: 10.1063/5.0137838
   
   with help from (in alphabetical order)
   P. Atkinson, C. Bannwarth, F. Bohle, G. Brandenburg, E. Caldeweyher
   M. Checinski, S. Dohm, S. Ehlert, S. Ehrlich, I. Gerasimov, C. Hölzer
   A. Katbashev, J. Kohn, J. Koopman, C. Lavigne, S. Lehtola, F. März, M. Müller,
   F. Musil, H. Neugebauer, J. Pisarek, C. Plett, P. Pracht, F. Pultar,
   J. Seibert, P. Shushkov, S. Spicher, M. Stahn, M. Steiner, T. Strunk,
   J. Stückrath, T. Rose, and J. Unsleber
   
 * started run on 2025/12/01 at 14:22:20.479     
   ID    Z sym.   atoms
    1    8 O      1, 7, 16, 18, 26
    2    6 C      2, 3, 5, 6, 8-15, 17, 19-25, 27, 28
    3    7 N      4
    4    1 H      29-55

           -------------------------------------------------
          |                Calculation Setup                |
           -------------------------------------------------

          program call               : xtb pipeline_data/3_conformer_xyz/acrylates/rdkit/NHBABHBJROJJJN-JLHYYAGUSA-N_conf43.xyz --opt --gfn 2-xTB --iterations 250
          coordinate file            : pipeline_data/3_conformer_xyz/acrylates/rdkit/NHBABHBJROJJJN-JLHYYAGUSA-N_conf43.xyz
          omp threads                :                    24

########################################################################
[WARNING] Please study the warnings concerning your input carefully
-1- readin_getIntValue: could not parse '2-xTB'
########################################################################

           -------------------------------------------------
          |                 G F N 2 - x T B                 |
           -------------------------------------------------

        Reference                      10.1021/acs.jctc.8b01176
      * Hamiltonian:
        H0-scaling (s, p, d)           1.850000    2.230000    2.230000
        zeta-weighting                 0.500000
      * Dispersion:
        s8                             2.700000
        a1                             0.520000
        a2                             5.000000
        s9                             5.000000
      * Repulsion:
        kExp                           1.500000    1.000000
        rExp                           1.000000
      * Coulomb:
        alpha                          2.000000
        third order                    shell-resolved
        anisotropic                    true
        a3                             3.000000
        a5                             4.000000
        cn-shift                       1.200000
        cn-exp                         4.000000
        max-rad                        5.000000

q/qsh data taken from xtbrestart
CAMM data taken from xtbrestart

          ...................................................
          :                      SETUP                      :
          :.................................................:
          :  # basis functions                 139          :
          :  # atomic orbitals                 139          :
          :  # shells                           83          :
          :  # electrons                       150          :
          :  max. iterations                   250          :
          :  Hamiltonian                  GFN2-xTB          :
          :  restarted?                       true          :
          :  GBSA solvation                  false          :
          :  PC potential                    false          :
          :  electronic temp.          300.0000000     K    :
          :  accuracy                    1.0000000          :
          :  -> integral cutoff          0.2500000E+02      :
          :  -> integral neglect         0.1000000E-07      :
          :  -> SCF convergence          0.1000000E-05 Eh   :
          :  -> wf. convergence          0.1000000E-03 e    :
          :  Broyden damping             0.4000000          :
          :  net charge                          0          :
          :  unpaired electrons                  0          :
          ...................................................

 iter      E             dE          RMSdq      gap      omega  full diag
   1    -85.1232312 -0.851232E+02  0.370E+00    2.03       0.0  T
   2    -85.1333102 -0.100790E-01  0.218E+00    1.89       1.0  T
   3    -85.1295936  0.371655E-02  0.378E-01    2.00       1.0  T
   4    -85.1357925 -0.619886E-02  0.164E-01    1.91       1.0  T
   5    -85.1364618 -0.669272E-03  0.789E-02    1.91       1.0  T
   6    -85.1364981 -0.363781E-04  0.316E-02    1.91       1.0  T
   7    -85.1365236 -0.254958E-04  0.117E-02    1.91       1.2  T
   8    -85.1365260 -0.240052E-05  0.508E-03    1.91       2.7  T
   9    -85.1365265 -0.429201E-06  0.253E-03    1.91       5.3  T
  10    -85.1365265 -0.727384E-07  0.100E-03    1.91      13.5  T
  11    -85.1365266 -0.287386E-07  0.328E-04    1.91      41.1  T
  12    -85.1365266 -0.116266E-08  0.162E-04    1.91      83.0  T

   *** convergence criteria satisfied after 12 iterations ***

         #    Occupation            Energy/Eh            Energy/eV
      -------------------------------------------------------------
         1        2.0000           -0.7165330             -19.4979
       ...           ...                  ...                  ...
        69        2.0000           -0.4090574             -11.1310
        70        2.0000           -0.4066507             -11.0655
        71        2.0000           -0.4033507             -10.9757
        72        2.0000           -0.4024363             -10.9508
        73        2.0000           -0.3958539             -10.7717
        74        2.0000           -0.3752493             -10.2111
        75        2.0000           -0.3538605              -9.6290 (HOMO)
        76                         -0.2836500              -7.7185 (LUMO)
        77                         -0.2294752              -6.2443
        78                         -0.2269408              -6.1754
        79                         -0.2226164              -6.0577
        80                         -0.2072125              -5.6385
       ...                                ...                  ...
       139                          0.7306244              19.8813
      -------------------------------------------------------------
                  HL-Gap            0.0702105 Eh            1.9105 eV
             Fermi-level           -0.3187553 Eh           -8.6738 eV

 SCC (total)                   0 d,  0 h,  0 min,  0.064 sec
 SCC setup                      ...        0 min,  0.000 sec (  0.332%)
 Dispersion                     ...        0 min,  0.001 sec (  1.029%)
 classical contributions        ...        0 min,  0.000 sec (  0.106%)
 integral evaluation            ...        0 min,  0.003 sec (  4.693%)
 iterations                     ...        0 min,  0.052 sec ( 80.471%)
 molecular gradient             ...        0 min,  0.008 sec ( 12.834%)
 printout                       ...        0 min,  0.000 sec (  0.492%)

         :::::::::::::::::::::::::::::::::::::::::::::::::::::
         ::                     SUMMARY                     ::
         :::::::::::::::::::::::::::::::::::::::::::::::::::::
         :: total energy             -84.023021672886 Eh    ::
         :: gradient norm              0.194231175990 Eh/a0 ::
         :: HOMO-LUMO gap              1.910524749358 eV    ::
         ::.................................................::
         :: SCC energy               -85.136011626804 Eh    ::
         :: -> isotropic ES            0.119806288013 Eh    ::
         :: -> anisotropic ES          0.010143041795 Eh    ::
         :: -> anisotropic XC          0.023386511515 Eh    ::
         :: -> dispersion             -0.058792972370 Eh    ::
         :: repulsion energy           1.112989953919 Eh    ::
         :: add. restraining           0.000000000000 Eh    ::
         :: total charge              -0.000000000000 e     ::
         :::::::::::::::::::::::::::::::::::::::::::::::::::::

      ----------------------------------------------------------- 
     |                   =====================                   |
     |                        A N C O P T                        |
     |                   =====================                   |
     |               Approximate Normal Coordinate               |
     |                Rational Function Optimizer                |
      ----------------------------------------------------------- 
      ----------------------------------------------------------- 
     |                   =====================                   |
     |                        A N C O P T                        |
     |                   =====================                   |
     |               Approximate Normal Coordinate               |
     |                Rational Function Optimizer                |
      ----------------------------------------------------------- 

          ...................................................
          :                      SETUP                      :
          :.................................................:
          :   optimization level            normal          :
          :   max. optcycles                   200          :
          :   ANC micro-cycles                  20          :
          :   degrees of freedom               159          :
          :.................................................:
          :   RF solver                   davidson          :
          :   write xtbopt.log                true          :
          :   linear?                        false          :
          :   energy convergence         0.5000000E-05 Eh   :
          :   grad. convergence          0.1000000E-02 Eh/α :
          :   maxmium RF displ.          1.0000000          :
          :   Hlow (freq-cutoff)         0.1000000E-01      :
          :   Hmax (freq-cutoff)         5.0000000          :
          :   S6 in model hess.         20.0000000          :
          ...................................................

generating ANC from exact Hessian ...
Using Lindh-Hessian (1995)
 Shifting diagonal of input Hessian by   9.939380412352768E-003
 Lowest  eigenvalues of input Hessian
    0.000000    0.000000    0.000000    0.000000    0.000000    0.000000
    0.010000    0.010053    0.010273    0.010408    0.011104    0.011227
    0.011255    0.011579    0.011724    0.012044    0.012638    0.013174
 Highest eigenvalues
    1.995021    2.022248    2.048741    2.056504    2.088689    2.155026
 

........................................................................
.............................. CYCLE    1 ..............................
........................................................................

 iter      E             dE          RMSdq      gap      omega  full diag
   1    -85.1365266 -0.851365E+02  0.431E-05    1.91       0.0  T
   2    -85.1365266 -0.221405E-10  0.267E-05    1.91     504.6  T
   3    -85.1365266 -0.158167E-10  0.163E-05    1.91     828.0  T
     SCC iter.                  ...        0 min,  0.014 sec
     gradient                   ...        0 min,  0.011 sec
 * total energy  :   -84.0230217 Eh     change       -0.5346124E-09 Eh
   gradient norm :     0.1942307 Eh/α   predicted     0.0000000E+00 (-100.00%)
   displ. norm   :     0.4210998 α      lambda       -0.4239261E-01
   maximum displ.:     0.1516075 α      in ANC's #31, #46, #16, ...

........................................................................
.............................. CYCLE    2 ..............................
........................................................................

 iter      E             dE          RMSdq      gap      omega  full diag
   1    -85.1760714 -0.851761E+02  0.245E-01    1.94       0.0  T
   2    -85.1768193 -0.747833E-03  0.163E-01    2.03       1.0  T
   3    -85.1769629 -0.143612E-03  0.881E-02    1.98       1.0  T
   4    -85.1770296 -0.666841E-04  0.342E-02    2.01       1.0  T
   5    -85.1770870 -0.574395E-04  0.789E-03    2.00       1.7  T
   6    -85.1770881 -0.108258E-05  0.462E-03    2.00       2.9  T
   7    -85.1770886 -0.489302E-06  0.204E-03    2.00       6.6  T
   8    -85.1770886 -0.408499E-07  0.108E-03    2.00      12.5  T
   9    -85.1770886 -0.247239E-07  0.392E-04    2.00      34.4  T
  10    -85.1770887 -0.394378E-08  0.140E-04    2.00      96.2  T
     SCC iter.                  ...        0 min,  0.048 sec
     gradient                   ...        0 min,  0.008 sec
 * total energy  :   -84.0530551 Eh     change       -0.3003347E-01 Eh
   gradient norm :     0.0800059 Eh/α   predicted    -0.2499386E-01 ( -16.78%)
   displ. norm   :     0.4080837 α      lambda       -0.1486890E-01
   maximum displ.:     0.1661464 α      in ANC's #31, #11, #16, ...

........................................................................
.............................. CYCLE    3 ..............................
........................................................................

 iter      E             dE          RMSdq      gap      omega  full diag
   1    -85.1959873 -0.851960E+02  0.177E-01    2.00       0.0  T
   2    -85.1964637 -0.476415E-03  0.120E-01    2.06       1.0  T
   3    -85.1966007 -0.137033E-03  0.652E-02    2.03       1.0  T
   4    -85.1966190 -0.182606E-04  0.295E-02    2.05       1.0  T
   5    -85.1966565 -0.375749E-04  0.663E-03    2.04       2.0  T
   6    -85.1966575 -0.984792E-06  0.367E-03    2.04       3.7  T
   7    -85.1966579 -0.418092E-06  0.147E-03    2.04       9.2  T
   8    -85.1966580 -0.217098E-07  0.827E-04    2.04      16.3  T
   9    -85.1966580 -0.127252E-07  0.288E-04    2.04      46.7  T
     SCC iter.                  ...        0 min,  0.035 sec
     gradient                   ...        0 min,  0.008 sec
 * total energy  :   -84.0623312 Eh     change       -0.9276049E-02 Eh
   gradient norm :     0.0169694 Eh/α   predicted    -0.8672530E-02 (  -6.51%)
   displ. norm   :     0.3683731 α      lambda       -0.3394296E-02
   maximum displ.:     0.1520689 α      in ANC's #11, #16, #31, ...

........................................................................
.............................. CYCLE    4 ..............................
........................................................................

 iter      E             dE          RMSdq      gap      omega  full diag
   1    -85.1944022 -0.851944E+02  0.944E-02    2.03       0.0  T
   2    -85.1944327 -0.304859E-04  0.578E-02    2.05       1.0  T
   3    -85.1944105  0.221476E-04  0.279E-02    2.04       1.0  T
   4    -85.1944400 -0.295064E-04  0.855E-03    2.05       1.6  T
   5    -85.1944432 -0.317986E-05  0.269E-03    2.05       5.0  T
   6    -85.1944434 -0.147276E-06  0.132E-03    2.05      10.2  T
   7    -85.1944434 -0.397381E-07  0.565E-04    2.05      23.9  T
   8    -85.1944434 -0.213397E-08  0.259E-04    2.05      52.0  T
     SCC iter.                  ...        0 min,  0.055 sec
     gradient                   ...        0 min,  0.008 sec
 * total energy  :   -84.0647432 Eh     change       -0.2411981E-02 Eh
   gradient norm :     0.0166829 Eh/α   predicted    -0.1927469E-02 ( -20.09%)
   displ. norm   :     0.3916686 α      lambda       -0.1854507E-02
   maximum displ.:     0.1975138 α      in ANC's #11, #6, #10, ...

........................................................................
.............................. CYCLE    5 ..............................
........................................................................

 iter      E             dE          RMSdq      gap      omega  full diag
   1    -85.1934920 -0.851935E+02  0.870E-02    2.06       0.0  T
   2    -85.1934995 -0.752519E-05  0.515E-02    2.05       1.0  T
   3    -85.1934934  0.611058E-05  0.126E-02    2.06       1.1  T
   4    -85.1935011 -0.762159E-05  0.358E-03    2.05       3.8  T
   5    -85.1935016 -0.499544E-06  0.162E-03    2.06       8.3  T
   6    -85.1935016 -0.632376E-07  0.726E-04    2.05      18.6  T
   7    -85.1935016 -0.862623E-08  0.321E-04    2.06      42.0  T
     SCC iter.                  ...        0 min,  0.048 sec
     gradient                   ...        0 min,  0.008 sec
 * total energy  :   -84.0660850 Eh     change       -0.1341861E-02 Eh
   gradient norm :     0.0188248 Eh/α   predicted    -0.1069501E-02 ( -20.30%)
   displ. norm   :     0.4111623 α      lambda       -0.1343040E-02
   maximum displ.:     0.2240684 α      in ANC's #11, #6, #10, ...

........................................................................
.............................. CYCLE    6 ..............................
........................................................................

 iter      E             dE          RMSdq      gap      omega  full diag
   1    -85.1951679 -0.851952E+02  0.848E-02    2.07       0.0  T
   2    -85.1951744 -0.646041E-05  0.503E-02    2.06       1.0  T
   3    -85.1951577  0.167411E-04  0.186E-02    2.07       1.0  T
   4    -85.1951771 -0.194533E-04  0.357E-03    2.06       3.8  T
   5    -85.1951776 -0.523743E-06  0.144E-03    2.06       9.4  T
   6    -85.1951776 -0.127322E-07  0.842E-04    2.06      16.0  T
   7    -85.1951777 -0.202953E-07  0.288E-04    2.06      46.9  T
     SCC iter.                  ...        0 min,  0.042 sec
     gradient                   ...        0 min,  0.008 sec
 * total energy  :   -84.0671204 Eh     change       -0.1035319E-02 Eh
   gradient norm :     0.0132684 Eh/α   predicted    -0.7850491E-03 ( -24.17%)
   displ. norm   :     0.5113911 α      lambda       -0.1326151E-02
   maximum displ.:     0.2632286 α      in ANC's #11, #6, #10, ...

........................................................................
.............................. CYCLE    7 ..............................
........................................................................

 iter      E             dE          RMSdq      gap      omega  full diag
   1    -85.1965578 -0.851966E+02  0.103E-01    2.08       0.0  T
   2    -85.1965679 -0.100925E-04  0.613E-02    2.06       1.0  T
   3    -85.1965397  0.282122E-04  0.237E-02    2.07       1.0  T
   4    -85.1965727 -0.329849E-04  0.435E-03    2.06       3.1  T
   5    -85.1965733 -0.647828E-06  0.197E-03    2.07       6.8  T
   6    -85.1965733 -0.182758E-07  0.116E-03    2.07      11.6  T
   7    -85.1965734 -0.369474E-07  0.406E-04    2.07      33.2  T
   8    -85.1965734 -0.366666E-08  0.182E-04    2.07      74.0  T
     SCC iter.                  ...        0 min,  0.048 sec
     gradient                   ...        0 min,  0.010 sec
 * total energy  :   -84.0681333 Eh     change       -0.1012914E-02 Eh
   gradient norm :     0.0183301 Eh/α   predicted    -0.8364862E-03 ( -17.42%)
   displ. norm   :     0.5681497 α      lambda       -0.1582454E-02
   maximum displ.:     0.2954757 α      in ANC's #6, #11, #10, ...

........................................................................
.............................. CYCLE    8 ..............................
........................................................................

 iter      E             dE          RMSdq      gap      omega  full diag
   1    -85.2014244 -0.852014E+02  0.118E-01    2.08       0.0  T
   2    -85.2014351 -0.106964E-04  0.697E-02    2.07       1.0  T
   3    -85.2014114  0.237220E-04  0.217E-02    2.08       1.0  T
   4    -85.2014389 -0.275071E-04  0.457E-03    2.07       2.9  T
   5    -85.2014396 -0.745476E-06  0.203E-03    2.07       6.6  T
   6    -85.2014397 -0.392991E-07  0.114E-03    2.07      11.8  T
   7    -85.2014397 -0.282053E-07  0.462E-04    2.07      29.2  T
   8    -85.2014397 -0.320338E-08  0.208E-04    2.07      64.7  T
     SCC iter.                  ...        0 min,  0.048 sec
     gradient                   ...        0 min,  0.011 sec
 * total energy  :   -84.0690504 Eh     change       -0.9170942E-03 Eh
   gradient norm :     0.0162397 Eh/α   predicted    -0.1046686E-02 (  14.13%)
   displ. norm   :     0.5398769 α      lambda       -0.1278043E-02
   maximum displ.:     0.3085484 α      in ANC's #6, #11, #10, ...

........................................................................
.............................. CYCLE    9 ..............................
........................................................................

 iter      E             dE          RMSdq      gap      omega  full diag
   1    -85.1985604 -0.851986E+02  0.113E-01    2.08       0.0  T
   2    -85.1985671 -0.673377E-05  0.670E-02    2.07       1.0  T
   3    -85.1985633  0.375836E-05  0.101E-02    2.08       1.3  T
   4    -85.1985693 -0.590270E-05  0.409E-03    2.07       3.3  T
   5    -85.1985697 -0.446604E-06  0.203E-03    2.07       6.6  T
   6    -85.1985697 -0.474696E-07  0.975E-04    2.07      13.8  T
   7    -85.1985698 -0.173353E-07  0.393E-04    2.07      34.3  T
     SCC iter.                  ...        0 min,  0.042 sec
     gradient                   ...        0 min,  0.008 sec
 * total energy  :   -84.0697964 Eh     change       -0.7460229E-03 Eh
   gradient norm :     0.0176479 Eh/α   predicted    -0.8252783E-03 (  10.62%)
   displ. norm   :     0.2687728 α      lambda       -0.5547854E-03
   maximum displ.:     0.1583349 α      in ANC's #6, #10, #7, ...

........................................................................
.............................. CYCLE   10 ..............................
........................................................................

 iter      E             dE          RMSdq      gap      omega  full diag
   1    -85.2018424 -0.852018E+02  0.582E-02    2.07       0.0  T
   2    -85.2018445 -0.213470E-05  0.346E-02    2.07       1.0  T
   3    -85.2018371  0.746627E-05  0.127E-02    2.07       1.1  T
   4    -85.2018454 -0.836146E-05  0.214E-03    2.07       6.3  T
   5    -85.2018456 -0.175254E-06  0.771E-04    2.07      17.5  T
   6    -85.2018456 -0.629663E-08  0.428E-04    2.07      31.5  T
     SCC iter.                  ...        0 min,  0.036 sec
     gradient                   ...        0 min,  0.010 sec
 * total energy  :   -84.0702372 Eh     change       -0.4408497E-03 Eh
   gradient norm :     0.0110333 Eh/α   predicted    -0.2974413E-03 ( -32.53%)
   displ. norm   :     0.4028575 α      lambda       -0.6106562E-03
   maximum displ.:     0.2292501 α      in ANC's #6, #10, #5, ...

........................................................................
.............................. CYCLE   11 ..............................
........................................................................

 iter      E             dE          RMSdq      gap      omega  full diag
   1    -85.2025267 -0.852025E+02  0.847E-02    2.06       0.0  T
   2    -85.2025313 -0.465259E-05  0.503E-02    2.07       1.0  T
   3    -85.2025192  0.121524E-04  0.167E-02    2.07       1.0  T
   4    -85.2025327 -0.135402E-04  0.331E-03    2.07       4.1  T
   5    -85.2025331 -0.439207E-06  0.116E-03    2.07      11.6  T
   6    -85.2025332 -0.136552E-07  0.622E-04    2.07      21.7  T
   7    -85.2025332 -0.782408E-08  0.233E-04    2.07      57.9  T
     SCC iter.                  ...        0 min,  0.021 sec
     gradient                   ...        0 min,  0.006 sec
 * total energy  :   -84.0706130 Eh     change       -0.3758108E-03 Eh
   gradient norm :     0.0074022 Eh/α   predicted    -0.3549027E-03 (  -5.56%)
   displ. norm   :     0.3370890 α      lambda       -0.4258415E-03
   maximum displ.:     0.1738709 α      in ANC's #6, #10, #5, ...

........................................................................
.............................. CYCLE   12 ..............................
........................................................................

 iter      E             dE          RMSdq      gap      omega  full diag
   1    -85.2059694 -0.852060E+02  0.733E-02    2.06       0.0  T
   2    -85.2059742 -0.486822E-05  0.435E-02    2.07       1.0  T
   3    -85.2059626  0.116476E-04  0.159E-02    2.06       1.0  T
   4    -85.2059761 -0.135024E-04  0.322E-03    2.07       4.2  T
   5    -85.2059764 -0.337173E-06  0.142E-03    2.07       9.5  T
   6    -85.2059764 -0.211268E-07  0.788E-04    2.07      17.1  T
   7    -85.2059765 -0.155308E-07  0.295E-04    2.07      45.7  T
     SCC iter.                  ...        0 min,  0.021 sec
     gradient                   ...        0 min,  0.006 sec
 * total energy  :   -84.0707264 Eh     change       -0.1133730E-03 Eh
   gradient norm :     0.0152060 Eh/α   predicted    -0.2371155E-03 ( 109.15%)
   displ. norm   :     0.1696249 α      lambda       -0.3126925E-03
   maximum displ.:     0.0767886 α      in ANC's #6, #5, #10, ...

........................................................................
.............................. CYCLE   13 ..............................
........................................................................

 iter      E             dE          RMSdq      gap      omega  full diag
   1    -85.2038611 -0.852039E+02  0.352E-02    2.07       0.0  T
   2    -85.2038621 -0.103282E-05  0.209E-02    2.07       1.0  T
   3    -85.2038587  0.341781E-05  0.822E-03    2.07       1.6  T
   4    -85.2038627 -0.405180E-05  0.154E-03    2.07       8.7  T
   5    -85.2038628 -0.372692E-07  0.835E-04    2.07      16.1  T
   6    -85.2038628 -0.497454E-08  0.467E-04    2.07      28.9  T
     SCC iter.                  ...        0 min,  0.018 sec
     gradient                   ...        0 min,  0.006 sec
 * total energy  :   -84.0709226 Eh     change       -0.1961313E-03 Eh
   gradient norm :     0.0071692 Eh/α   predicted    -0.1608571E-03 ( -17.98%)
   displ. norm   :     0.1915767 α      lambda       -0.2836896E-03
   maximum displ.:     0.0877297 α      in ANC's #11, #13, #7, ...

........................................................................
.............................. CYCLE   14 ..............................
........................................................................

 iter      E             dE          RMSdq      gap      omega  full diag
   1    -85.2064121 -0.852064E+02  0.457E-02    2.08       0.0  T
   2    -85.2064142 -0.215969E-05  0.274E-02    2.07       1.0  T
   3    -85.2064067  0.751680E-05  0.126E-02    2.08       1.1  T
   4    -85.2064153 -0.860593E-05  0.204E-03    2.07       6.6  T
   5    -85.2064155 -0.145807E-06  0.758E-04    2.07      17.8  T
   6    -85.2064155 -0.461050E-08  0.421E-04    2.07      32.0  T
     SCC iter.                  ...        0 min,  0.018 sec
     gradient                   ...        0 min,  0.007 sec
 * total energy  :   -84.0710499 Eh     change       -0.1273352E-03 Eh
   gradient norm :     0.0086988 Eh/α   predicted    -0.1470538E-03 (  15.49%)
   displ. norm   :     0.2601405 α      lambda       -0.2056216E-03
   maximum displ.:     0.1206265 α      in ANC's #5, #10, #6, ...

........................................................................
.............................. CYCLE   15 ..............................
........................................................................

 iter      E             dE          RMSdq      gap      omega  full diag
   1    -85.2031155 -0.852031E+02  0.508E-02    2.08       0.0  T
   2    -85.2031166 -0.101854E-05  0.302E-02    2.07       1.0  T
   3    -85.2031136  0.298588E-05  0.796E-03    2.08       1.7  T
   4    -85.2031170 -0.347182E-05  0.166E-03    2.07       8.1  T
   5    -85.2031171 -0.618244E-07  0.825E-04    2.07      16.3  T
   6    -85.2031171 -0.403415E-08  0.396E-04    2.07      34.1  T
     SCC iter.                  ...        0 min,  0.018 sec
     gradient                   ...        0 min,  0.006 sec
 * total energy  :   -84.0711851 Eh     change       -0.1352434E-03 Eh
   gradient norm :     0.0062578 Eh/α   predicted    -0.1097731E-03 ( -18.83%)
   displ. norm   :     0.2470574 α      lambda       -0.1806904E-03
   maximum displ.:     0.1138931 α      in ANC's #5, #8, #13, ...

........................................................................
.............................. CYCLE   16 ..............................
........................................................................

 iter      E             dE          RMSdq      gap      omega  full diag
   1    -85.2045279 -0.852045E+02  0.564E-02    2.08       0.0  T
   2    -85.2045290 -0.107271E-05  0.334E-02    2.08       1.0  T
   3    -85.2045266  0.233382E-05  0.642E-03    2.07       2.1  T
   4    -85.2045294 -0.279205E-05  0.152E-03    2.08       8.8  T
   5    -85.2045295 -0.585954E-07  0.862E-04    2.08      15.6  T
   6    -85.2045295 -0.786528E-08  0.442E-04    2.08      30.5  T
     SCC iter.                  ...        0 min,  0.018 sec
     gradient                   ...        0 min,  0.006 sec
 * total energy  :   -84.0712936 Eh     change       -0.1085080E-03 Eh
   gradient norm :     0.0059063 Eh/α   predicted    -0.9586379E-04 ( -11.65%)
   displ. norm   :     0.2031117 α      lambda       -0.1217267E-03
   maximum displ.:     0.0948952 α      in ANC's #5, #7, #8, ...

........................................................................
.............................. CYCLE   17 ..............................
........................................................................

 iter      E             dE          RMSdq      gap      omega  full diag
   1    -85.2040201 -0.852040E+02  0.533E-02    2.08       0.0  T
   2    -85.2040208 -0.638004E-06  0.315E-02    2.08       1.0  T
   3    -85.2040188  0.197874E-05  0.561E-03    2.08       2.4  T
   4    -85.2040211 -0.232928E-05  0.102E-03    2.08      13.3  T
   5    -85.2040212 -0.202835E-07  0.598E-04    2.08      22.6  T
   6    -85.2040212 -0.573058E-08  0.264E-04    2.08      51.0  T
     SCC iter.                  ...        0 min,  0.020 sec
     gradient                   ...        0 min,  0.010 sec
 * total energy  :   -84.0713887 Eh     change       -0.9506958E-04 Eh
   gradient norm :     0.0054503 Eh/α   predicted    -0.6337576E-04 ( -33.34%)
   displ. norm   :     0.3025658 α      lambda       -0.1754688E-03
   maximum displ.:     0.1441832 α      in ANC's #5, #7, #8, ...

........................................................................
.............................. CYCLE   18 ..............................
........................................................................

 iter      E             dE          RMSdq      gap      omega  full diag
   1    -85.2036902 -0.852037E+02  0.839E-02    2.08       0.0  T
   2    -85.2036918 -0.150740E-05  0.495E-02    2.08       1.0  T
   3    -85.2036860  0.573726E-05  0.101E-02    2.07       1.3  T
   4    -85.2036926 -0.659272E-05  0.142E-03    2.08       9.5  T
   5    -85.2036927 -0.609728E-07  0.763E-04    2.08      17.7  T
   6    -85.2036927 -0.735015E-08  0.376E-04    2.08      35.9  T
     SCC iter.                  ...        0 min,  0.035 sec
     gradient                   ...        0 min,  0.008 sec
 * total energy  :   -84.0715279 Eh     change       -0.1392001E-03 Eh
   gradient norm :     0.0045326 Eh/α   predicted    -0.9576998E-04 ( -31.20%)
   displ. norm   :     0.3724766 α      lambda       -0.1914665E-03
   maximum displ.:     0.1718560 α      in ANC's #7, #5, #8, ...

........................................................................
.............................. CYCLE   19 ..............................
........................................................................

 iter      E             dE          RMSdq      gap      omega  full diag
   1    -85.2031676 -0.852032E+02  0.103E-01    2.07       0.0  T
   2    -85.2031694 -0.178534E-05  0.609E-02    2.08       1.0  T
   3    -85.2031631  0.622818E-05  0.115E-02    2.08       1.2  T
   4    -85.2031703 -0.715493E-05  0.174E-03    2.08       7.7  T
   5    -85.2031704 -0.962874E-07  0.881E-04    2.08      15.3  T
   6    -85.2031704 -0.103929E-07  0.426E-04    2.08      31.6  T
     SCC iter.                  ...        0 min,  0.044 sec
     gradient                   ...        0 min,  0.011 sec
 * total energy  :   -84.0716744 Eh     change       -0.1465289E-03 Eh
   gradient norm :     0.0044632 Eh/α   predicted    -0.1090159E-03 ( -25.60%)
   displ. norm   :     0.3448206 α      lambda       -0.1622122E-03
   maximum displ.:     0.1603151 α      in ANC's #7, #3, #5, ...

........................................................................
.............................. CYCLE   20 ..............................
........................................................................

 iter      E             dE          RMSdq      gap      omega  full diag
   1    -85.2035533 -0.852036E+02  0.943E-02    2.08       0.0  T
   2    -85.2035543 -0.103827E-05  0.554E-02    2.08       1.0  T
   3    -85.2035517  0.266955E-05  0.822E-03    2.08       1.6  T
   4    -85.2035548 -0.317072E-05  0.144E-03    2.08       9.3  T
   5    -85.2035549 -0.560227E-07  0.770E-04    2.08      17.5  T
   6    -85.2035549 -0.693048E-08  0.317E-04    2.08      42.5  T
     SCC iter.                  ...        0 min,  0.036 sec
     gradient                   ...        0 min,  0.008 sec
 * total energy  :   -84.0717986 Eh     change       -0.1242041E-03 Eh
   gradient norm :     0.0046354 Eh/α   predicted    -0.9075181E-04 ( -26.93%)
   displ. norm   :     0.3721522 α      lambda       -0.1553816E-03
   maximum displ.:     0.1636113 α      in ANC's #3, #7, #8, ...
 * RMSD in coord.:     0.6489478 α      energy gain  -0.4877697E-01 Eh

generating ANC from exact Hessian ...
Using Lindh-Hessian (1995)
 Shifting diagonal of input Hessian by   9.959076161334653E-003
 Lowest  eigenvalues of input Hessian
    0.000000    0.000000    0.000000    0.000000    0.000000    0.000000
    0.010000    0.010066    0.010319    0.010418    0.011251    0.011335
    0.011467    0.011724    0.011948    0.012166    0.012358    0.013009
 Highest eigenvalues
    1.980539    2.005688    2.020941    2.026458    2.160108    2.206608
 

........................................................................
.............................. CYCLE   21 ..............................
........................................................................

 iter      E             dE          RMSdq      gap      omega  full diag
   1    -85.2038084 -0.852038E+02  0.980E-02    2.08       0.0  T
   2    -85.2038094 -0.102445E-05  0.576E-02    2.08       1.0  T
   3    -85.2038078  0.160330E-05  0.617E-03    2.08       2.2  T
   4    -85.2038099 -0.209752E-05  0.140E-03    2.08       9.6  T
   5    -85.2038099 -0.337001E-07  0.826E-04    2.08      16.3  T
   6    -85.2038099 -0.849434E-08  0.296E-04    2.08      45.5  T
     SCC iter.                  ...        0 min,  0.026 sec
     gradient                   ...        0 min,  0.012 sec
 * total energy  :   -84.0719136 Eh     change       -0.1149289E-03 Eh
   gradient norm :     0.0050699 Eh/α   predicted     0.0000000E+00 (-100.00%)
   displ. norm   :     0.0438397 α      lambda       -0.6601395E-04
   maximum displ.:     0.0189440 α      in ANC's #20, #8, #24, ...

........................................................................
.............................. CYCLE   22 ..............................
........................................................................

 iter      E             dE          RMSdq      gap      omega  full diag
   1    -85.2056731 -0.852057E+02  0.171E-02    2.08       0.0  T
   2    -85.2056734 -0.309398E-06  0.102E-02    2.08       1.3  T
   3    -85.2056724  0.100651E-05  0.465E-03    2.08       2.9  T
   4    -85.2056735 -0.116681E-05  0.717E-04    2.08      18.8  T
   5    -85.2056736 -0.210605E-07  0.259E-04    2.08      52.1  T
   6    -85.2056736 -0.127680E-08  0.160E-04    2.08      84.4  T
     SCC iter.                  ...        0 min,  0.018 sec
     gradient                   ...        0 min,  0.007 sec
 * total energy  :   -84.0719652 Eh     change       -0.5160743E-04 Eh
   gradient norm :     0.0020243 Eh/α   predicted    -0.3369485E-04 ( -34.71%)
   displ. norm   :     0.0951429 α      lambda       -0.6926398E-04
   maximum displ.:     0.0429452 α      in ANC's #8, #20, #3, ...

........................................................................
.............................. CYCLE   23 ..............................
........................................................................

 iter      E             dE          RMSdq      gap      omega  full diag
   1    -85.2069358 -0.852069E+02  0.333E-02    2.08       0.0  T
   2    -85.2069364 -0.611268E-06  0.197E-02    2.08       1.0  T
   3    -85.2069335  0.287677E-05  0.750E-03    2.08       1.8  T
   4    -85.2069368 -0.326384E-05  0.102E-03    2.08      13.2  T
   5    -85.2069368 -0.376184E-07  0.441E-04    2.08      30.6  T
   6    -85.2069368 -0.266937E-08  0.273E-04    2.08      49.5  T
     SCC iter.                  ...        0 min,  0.021 sec
     gradient                   ...        0 min,  0.012 sec
 * total energy  :   -84.0720114 Eh     change       -0.4624605E-04 Eh
   gradient norm :     0.0020229 Eh/α   predicted    -0.3494624E-04 ( -24.43%)
   displ. norm   :     0.0977931 α      lambda       -0.3769304E-04
   maximum displ.:     0.0478969 α      in ANC's #8, #3, #7, ...

........................................................................
.............................. CYCLE   24 ..............................
........................................................................

 iter      E             dE          RMSdq      gap      omega  full diag
   1    -85.2067911 -0.852068E+02  0.324E-02    2.08       0.0  T
   2    -85.2067914 -0.266093E-06  0.191E-02    2.08       1.0  T
   3    -85.2067900  0.135637E-05  0.496E-03    2.08       2.7  T
   4    -85.2067916 -0.154763E-05  0.746E-04    2.08      18.1  T
   5    -85.2067916 -0.127541E-07  0.411E-04    2.08      32.8  T
   6    -85.2067916 -0.170508E-08  0.220E-04    2.08      61.2  T
     SCC iter.                  ...        0 min,  0.027 sec
     gradient                   ...        0 min,  0.013 sec
 * total energy  :   -84.0720421 Eh     change       -0.3071374E-04 Eh
   gradient norm :     0.0027559 Eh/α   predicted    -0.1912409E-04 ( -37.73%)
   displ. norm   :     0.2025737 α      lambda       -0.6934749E-04
   maximum displ.:     0.1012794 α      in ANC's #8, #7, #3, ...

........................................................................
.............................. CYCLE   25 ..............................
........................................................................

 iter      E             dE          RMSdq      gap      omega  full diag
   1    -85.2055189 -0.852055E+02  0.653E-02    2.08       0.0  T
   2    -85.2055197 -0.826290E-06  0.384E-02    2.08       1.0  T
   3    -85.2055171  0.261660E-05  0.680E-03    2.08       2.0  T
   4    -85.2055202 -0.311874E-05  0.137E-03    2.08       9.9  T
   5    -85.2055203 -0.311525E-07  0.813E-04    2.08      16.6  T
   6    -85.2055203 -0.917970E-08  0.366E-04    2.08      36.8  T
     SCC iter.                  ...        0 min,  0.023 sec
     gradient                   ...        0 min,  0.007 sec
 * total energy  :   -84.0720943 Eh     change       -0.5219590E-04 Eh
   gradient norm :     0.0027655 Eh/α   predicted    -0.3609677E-04 ( -30.84%)
   displ. norm   :     0.2176733 α      lambda       -0.6257078E-04
   maximum displ.:     0.1086104 α      in ANC's #8, #7, #3, ...

........................................................................
.............................. CYCLE   26 ..............................
........................................................................

 iter      E             dE          RMSdq      gap      omega  full diag
   1    -85.2041469 -0.852041E+02  0.677E-02    2.08       0.0  T
   2    -85.2041477 -0.842387E-06  0.399E-02    2.08       1.0  T
   3    -85.2041463  0.140135E-05  0.518E-03    2.08       2.6  T
   4    -85.2041481 -0.180707E-05  0.132E-03    2.08      10.2  T
   5    -85.2041482 -0.291622E-07  0.791E-04    2.08      17.1  T
   6    -85.2041482 -0.848669E-08  0.369E-04    2.08      36.5  T
     SCC iter.                  ...        0 min,  0.018 sec
     gradient                   ...        0 min,  0.007 sec
 * total energy  :   -84.0721422 Eh     change       -0.4791203E-04 Eh
   gradient norm :     0.0026689 Eh/α   predicted    -0.3276822E-04 ( -31.61%)
   displ. norm   :     0.2097733 α      lambda       -0.6282473E-04
   maximum displ.:     0.1031133 α      in ANC's #8, #7, #3, ...

........................................................................
.............................. CYCLE   27 ..............................
........................................................................

 iter      E             dE          RMSdq      gap      omega  full diag
   1    -85.2037061 -0.852037E+02  0.627E-02    2.08       0.0  T
   2    -85.2037068 -0.636566E-06  0.369E-02    2.08       1.0  T
   3    -85.2037059  0.900724E-06  0.438E-03    2.08       3.1  T
   4    -85.2037071 -0.121919E-05  0.105E-03    2.08      12.9  T
   5    -85.2037071 -0.105021E-07  0.627E-04    2.08      21.5  T
   6    -85.2037071 -0.434001E-08  0.295E-04    2.08      45.7  T
     SCC iter.                  ...        0 min,  0.018 sec
     gradient                   ...        0 min,  0.007 sec
 * total energy  :   -84.0721918 Eh     change       -0.4952021E-04 Eh
   gradient norm :     0.0027004 Eh/α   predicted    -0.3279623E-04 ( -33.77%)
   displ. norm   :     0.2483297 α      lambda       -0.7310657E-04
   maximum displ.:     0.1179436 α      in ANC's #8, #7, #3, ...

........................................................................
.............................. CYCLE   28 ..............................
........................................................................

 iter      E             dE          RMSdq      gap      omega  full diag
   1    -85.2041007 -0.852041E+02  0.730E-02    2.08       0.0  T
   2    -85.2041015 -0.802308E-06  0.430E-02    2.08       1.0  T
   3    -85.2041002  0.124827E-05  0.519E-03    2.08       2.6  T
   4    -85.2041019 -0.165326E-05  0.104E-03    2.08      12.9  T
   5    -85.2041019 -0.888001E-08  0.583E-04    2.08      23.1  T
   6    -85.2041019 -0.273135E-08  0.186E-04    2.08      72.3  T
     SCC iter.                  ...        0 min,  0.018 sec
     gradient                   ...        0 min,  0.007 sec
 * total energy  :   -84.0722475 Eh     change       -0.5577524E-04 Eh
   gradient norm :     0.0031147 Eh/α   predicted    -0.3881903E-04 ( -30.40%)
   displ. norm   :     0.2721960 α      lambda       -0.7168446E-04
   maximum displ.:     0.1258390 α      in ANC's #7, #8, #3, ...

........................................................................
.............................. CYCLE   29 ..............................
........................................................................

 iter      E             dE          RMSdq      gap      omega  full diag
   1    -85.2048407 -0.852048E+02  0.794E-02    2.08       0.0  T
   2    -85.2048416 -0.842439E-06  0.467E-02    2.08       1.0  T
   3    -85.2048401  0.150259E-05  0.551E-03    2.08       2.4  T
   4    -85.2048420 -0.194197E-05  0.103E-03    2.08      13.2  T
   5    -85.2048420 -0.650056E-08  0.597E-04    2.08      22.6  T
   6    -85.2048420 -0.349895E-08  0.223E-04    2.08      60.4  T
     SCC iter.                  ...        0 min,  0.018 sec
     gradient                   ...        0 min,  0.007 sec
 * total energy  :   -84.0723028 Eh     change       -0.5528373E-04 Eh
   gradient norm :     0.0030881 Eh/α   predicted    -0.3849803E-04 ( -30.36%)
   displ. norm   :     0.2974387 α      lambda       -0.7794239E-04
   maximum displ.:     0.1350765 α      in ANC's #7, #3, #8, ...

........................................................................
.............................. CYCLE   30 ..............................
........................................................................

 iter      E             dE          RMSdq      gap      omega  full diag
   1    -85.2059440 -0.852059E+02  0.857E-02    2.08       0.0  T
   2    -85.2059449 -0.918643E-06  0.504E-02    2.08       1.0  T
   3    -85.2059431  0.175957E-05  0.578E-03    2.08       2.3  T
   4    -85.2059454 -0.225010E-05  0.104E-03    2.08      13.0  T
   5    -85.2059454 -0.229697E-08  0.577E-04    2.08      23.4  T
   6    -85.2059454 -0.672871E-08  0.191E-04    2.08      70.5  T
     SCC iter.                  ...        0 min,  0.018 sec
     gradient                   ...        0 min,  0.006 sec
 * total energy  :   -84.0723626 Eh     change       -0.5974638E-04 Eh
   gradient norm :     0.0025499 Eh/α   predicted    -0.4242001E-04 ( -29.00%)
   displ. norm   :     0.3089942 α      lambda       -0.7339726E-04
   maximum displ.:     0.1418583 α      in ANC's #3, #7, #8, ...

........................................................................
.............................. CYCLE   31 ..............................
........................................................................

 iter      E             dE          RMSdq      gap      omega  full diag
   1    -85.2064065 -0.852064E+02  0.876E-02    2.08       0.0  T
   2    -85.2064076 -0.104528E-05  0.515E-02    2.08       1.0  T
   3    -85.2064056  0.192720E-05  0.611E-03    2.08       2.2  T
   4    -85.2064081 -0.244256E-05  0.111E-03    2.08      12.2  T
   5    -85.2064081 -0.628818E-08  0.671E-04    2.08      20.1  T
   6    -85.2064081 -0.745051E-08  0.291E-04    2.08      46.4  T
     SCC iter.                  ...        0 min,  0.018 sec
     gradient                   ...        0 min,  0.007 sec
 * total energy  :   -84.0724176 Eh     change       -0.5507700E-04 Eh
   gradient norm :     0.0019841 Eh/α   predicted    -0.4020680E-04 ( -27.00%)
   displ. norm   :     0.3775267 α      lambda       -0.5596096E-04
   maximum displ.:     0.1759904 α      in ANC's #3, #7, #8, ...

........................................................................
.............................. CYCLE   32 ..............................
........................................................................

 iter      E             dE          RMSdq      gap      omega  full diag
   1    -85.2076326 -0.852076E+02  0.104E-01    2.08       0.0  T
   2    -85.2076347 -0.212786E-05  0.613E-02    2.08       1.0  T
   3    -85.2076310  0.371722E-05  0.868E-03    2.08       1.6  T
   4    -85.2076355 -0.452259E-05  0.173E-03    2.08       7.8  T
   5    -85.2076355 -0.619418E-07  0.980E-04    2.08      13.8  T
   6    -85.2076356 -0.155664E-07  0.488E-04    2.08      27.6  T
     SCC iter.                  ...        0 min,  0.018 sec
     gradient                   ...        0 min,  0.007 sec
 * total energy  :   -84.0724635 Eh     change       -0.4588493E-04 Eh
   gradient norm :     0.0021202 Eh/α   predicted    -0.2976422E-04 ( -35.13%)
   displ. norm   :     0.2338567 α      lambda       -0.2764922E-04
   maximum displ.:     0.1115933 α      in ANC's #3, #7, #8, ...

........................................................................
.............................. CYCLE   33 ..............................
........................................................................

 iter      E             dE          RMSdq      gap      omega  full diag
   1    -85.2039140 -0.852039E+02  0.666E-02    2.08       0.0  T
   2    -85.2039149 -0.906426E-06  0.392E-02    2.08       1.0  T
   3    -85.2039139  0.102832E-05  0.469E-03    2.08       2.9  T
   4    -85.2039152 -0.133045E-05  0.103E-03    2.08      13.0  T
   5    -85.2039152 -0.217156E-07  0.602E-04    2.08      22.4  T
   6    -85.2039152 -0.267690E-08  0.310E-04    2.08      43.5  T
     SCC iter.                  ...        0 min,  0.018 sec
     gradient                   ...        0 min,  0.007 sec
 * total energy  :   -84.0724658 Eh     change       -0.2260973E-05 Eh
   gradient norm :     0.0036684 Eh/α   predicted    -0.1459315E-04 ( 545.44%)
   displ. norm   :     0.0676828 α      lambda       -0.4329147E-04
   maximum displ.:     0.0341760 α      in ANC's #8, #16, #19, ...

........................................................................
.............................. CYCLE   34 ..............................
........................................................................

 iter      E             dE          RMSdq      gap      omega  full diag
   1    -85.2062306 -0.852062E+02  0.241E-02    2.08       0.0  T
   2    -85.2062307 -0.175581E-06  0.143E-02    2.08       1.0  T
   3    -85.2062305  0.239376E-06  0.225E-03    2.08       6.0  T
   4    -85.2062308 -0.302548E-06  0.490E-04    2.08      27.5  T
   5    -85.2062308 -0.571457E-08  0.286E-04    2.08      47.2  T
     SCC iter.                  ...        0 min,  0.015 sec
     gradient                   ...        0 min,  0.007 sec
 * total energy  :   -84.0724926 Eh     change       -0.2679163E-04 Eh
   gradient norm :     0.0016779 Eh/α   predicted    -0.2174559E-04 ( -18.83%)
   displ. norm   :     0.1010543 α      lambda        0.1200224E-04
   maximum displ.:     0.0510333 α      in ANC's #8, #16, #19, ...

........................................................................
.............................. CYCLE   35 ..............................
........................................................................

 iter      E             dE          RMSdq      gap      omega  full diag
   1    -85.2094977 -0.852095E+02  0.360E-02    2.08       0.0  T
   2    -85.2094981 -0.385139E-06  0.213E-02    2.08       1.0  T
   3    -85.2094976  0.478511E-06  0.326E-03    2.08       4.1  T
   4    -85.2094982 -0.619772E-06  0.693E-04    2.08      19.5  T
   5    -85.2094982 -0.884877E-08  0.413E-04    2.08      32.6  T
     SCC iter.                  ...        0 min,  0.015 sec
     gradient                   ...        0 min,  0.007 sec
 * total energy  :   -84.0724724 Eh     change        0.2019816E-04 Eh
   gradient norm :     0.0045223 Eh/α   predicted     0.6028088E-05 ( -70.16%)
   displ. norm   :     0.1174934 α      lambda       -0.4580099E-04
   maximum displ.:     0.0565649 α      in ANC's #3, #7, #8, ...

........................................................................
.............................. CYCLE   36 ..............................
........................................................................

 iter      E             dE          RMSdq      gap      omega  full diag
   1    -85.2079636 -0.852080E+02  0.332E-02    2.08       0.0  T
   2    -85.2079640 -0.419563E-06  0.196E-02    2.08       1.0  T
   3    -85.2079631  0.892399E-06  0.410E-03    2.08       3.3  T
   4    -85.2079641 -0.101642E-05  0.894E-04    2.08      15.1  T
   5    -85.2079642 -0.289038E-07  0.375E-04    2.08      35.9  T
   6    -85.2079642 -0.236027E-08  0.193E-04    2.08      69.8  T
     SCC iter.                  ...        0 min,  0.027 sec
     gradient                   ...        0 min,  0.007 sec
 * total energy  :   -84.0725049 Eh     change       -0.3248203E-04 Eh
   gradient norm :     0.0020872 Eh/α   predicted    -0.2321857E-04 ( -28.52%)
   displ. norm   :     0.1696250 α      lambda       -0.2608484E-04
   maximum displ.:     0.0870641 α      in ANC's #3, #7, #8, ...

........................................................................
.............................. CYCLE   37 ..............................
........................................................................

 iter      E             dE          RMSdq      gap      omega  full diag
   1    -85.2057673 -0.852058E+02  0.470E-02    2.08       0.0  T
   2    -85.2057676 -0.332150E-06  0.276E-02    2.08       1.0  T
   3    -85.2057672  0.371521E-06  0.288E-03    2.08       4.7  T
   4    -85.2057677 -0.507737E-06  0.644E-04    2.08      21.0  T
   5    -85.2057678 -0.509546E-08  0.374E-04    2.08      36.1  T
     SCC iter.                  ...        0 min,  0.017 sec
     gradient                   ...        0 min,  0.006 sec
 * total energy  :   -84.0725182 Eh     change       -0.1335761E-04 Eh
   gradient norm :     0.0013179 Eh/α   predicted    -0.1342078E-04 (   0.47%)
   displ. norm   :     0.0463170 α      lambda       -0.7764866E-05
   maximum displ.:     0.0200615 α      in ANC's #3, #1, #2, ...

........................................................................
.............................. CYCLE   38 ..............................
........................................................................

 iter      E             dE          RMSdq      gap      omega  full diag
   1    -85.2062994 -0.852063E+02  0.146E-02    2.08       0.0  T
   2    -85.2062995 -0.427272E-07  0.861E-03    2.08       1.6  T
   3    -85.2062995  0.264775E-07  0.838E-04    2.08      16.1  T
   4    -85.2062995 -0.361619E-07  0.273E-04    2.08      49.4  T
     SCC iter.                  ...        0 min,  0.026 sec
     gradient                   ...        0 min,  0.007 sec
 * total energy  :   -84.0725280 Eh     change       -0.9726473E-05 Eh
   gradient norm :     0.0011629 Eh/α   predicted    -0.3887039E-05 ( -60.04%)
   displ. norm   :     0.2068133 α      lambda       -0.2259881E-04
   maximum displ.:     0.1041110 α      in ANC's #3, #1, #2, ...

........................................................................
.............................. CYCLE   39 ..............................
........................................................................

 iter      E             dE          RMSdq      gap      omega  full diag
   1    -85.2068679 -0.852069E+02  0.601E-02    2.07       0.0  T
   2    -85.2068683 -0.349793E-06  0.354E-02    2.08       1.0  T
   3    -85.2068680  0.330959E-06  0.299E-03    2.07       4.5  T
   4    -85.2068685 -0.497473E-06  0.920E-04    2.08      14.7  T
   5    -85.2068685 -0.120778E-07  0.553E-04    2.08      24.4  T
     SCC iter.                  ...        0 min,  0.032 sec
     gradient                   ...        0 min,  0.007 sec
 * total energy  :   -84.0725469 Eh     change       -0.1893338E-04 Eh
   gradient norm :     0.0011885 Eh/α   predicted    -0.1151606E-04 ( -39.18%)
   displ. norm   :     0.1392110 α      lambda       -0.7616390E-05
   maximum displ.:     0.0749067 α      in ANC's #3, #1, #2, ...

........................................................................
.............................. CYCLE   40 ..............................
........................................................................

 iter      E             dE          RMSdq      gap      omega  full diag
   1    -85.2065942 -0.852066E+02  0.366E-02    2.08       0.0  T
   2    -85.2065944 -0.194908E-06  0.215E-02    2.07       1.0  T
   3    -85.2065943  0.115766E-06  0.189E-03    2.07       7.1  T
   4    -85.2065945 -0.175473E-06  0.606E-04    2.07      22.2  T
   5    -85.2065945 -0.825932E-08  0.318E-04    2.07      42.4  T
     SCC iter.                  ...        0 min,  0.032 sec
     gradient                   ...        0 min,  0.007 sec
 * total energy  :   -84.0725534 Eh     change       -0.6480324E-05 Eh
   gradient norm :     0.0011393 Eh/α   predicted    -0.3842158E-05 ( -40.71%)
   displ. norm   :     0.0767487 α      lambda       -0.6932818E-05
   maximum displ.:     0.0378780 α      in ANC's #1, #2, #3, ...

........................................................................
.............................. CYCLE   41 ..............................
........................................................................

 iter      E             dE          RMSdq      gap      omega  full diag
   1    -85.2072489 -0.852072E+02  0.175E-02    2.08       0.0  T
   2    -85.2072490 -0.107575E-06  0.103E-02    2.07       1.3  T
   3    -85.2072489  0.100345E-06  0.150E-03    2.07       9.0  T
   4    -85.2072491 -0.129180E-06  0.420E-04    2.07      32.1  T
   5    -85.2072491 -0.493336E-08  0.214E-04    2.07      63.1  T
     SCC iter.                  ...        0 min,  0.032 sec
     gradient                   ...        0 min,  0.007 sec
 * total energy  :   -84.0725601 Eh     change       -0.6686186E-05 Eh
   gradient norm :     0.0007905 Eh/α   predicted    -0.3476044E-05 ( -48.01%)
   displ. norm   :     0.0987639 α      lambda       -0.6660567E-05
   maximum displ.:     0.0495387 α      in ANC's #1, #3, #2, ...

........................................................................
.............................. CYCLE   42 ..............................
........................................................................

 iter      E             dE          RMSdq      gap      omega  full diag
   1    -85.2072404 -0.852072E+02  0.201E-02    2.07       0.0  T
   2    -85.2072405 -0.609922E-07  0.118E-02    2.07       1.1  T
   3    -85.2072404  0.574300E-07  0.126E-03    2.07      10.7  T
   4    -85.2072405 -0.857879E-07  0.363E-04    2.07      37.1  T
   5    -85.2072405 -0.225100E-10  0.209E-04    2.07      64.5  T
     SCC iter.                  ...        0 min,  0.017 sec
     gradient                   ...        0 min,  0.007 sec
 * total energy  :   -84.0725670 Eh     change       -0.6945323E-05 Eh
   gradient norm :     0.0006144 Eh/α   predicted    -0.3349462E-05 ( -51.77%)
   displ. norm   :     0.1045503 α      lambda       -0.5830604E-05
   maximum displ.:     0.0536760 α      in ANC's #1, #2, #3, ...
 * RMSD in coord.:     0.4026271 α      energy gain  -0.7683574E-03 Eh

generating ANC from exact Hessian ...
Using Lindh-Hessian (1995)
 Shifting diagonal of input Hessian by   9.955109504919249E-003
 Lowest  eigenvalues of input Hessian
    0.000000    0.000000    0.000000    0.000000    0.000000    0.000000
    0.010000    0.010058    0.010328    0.010390    0.011187    0.011399
    0.011556    0.011687    0.011958    0.012223    0.012462    0.013003
 Highest eigenvalues
    1.979127    2.009488    2.025285    2.027246    2.159746    2.209092
 

........................................................................
.............................. CYCLE   43 ..............................
........................................................................

 iter      E             dE          RMSdq      gap      omega  full diag
   1    -85.2066407 -0.852066E+02  0.200E-02    2.07       0.0  T
   2    -85.2066408 -0.888260E-07  0.118E-02    2.07       1.1  T
   3    -85.2066407  0.883271E-07  0.148E-03    2.07       9.1  T
   4    -85.2066408 -0.123394E-06  0.370E-04    2.07      36.4  T
   5    -85.2066408 -0.634216E-09  0.226E-04    2.07      59.6  T
     SCC iter.                  ...        0 min,  0.018 sec
     gradient                   ...        0 min,  0.007 sec
 * total energy  :   -84.0725726 Eh     change       -0.5651221E-05 Eh
   gradient norm :     0.0009123 Eh/α   predicted     0.0000000E+00 (-100.00%)
   displ. norm   :     0.0152603 α      lambda       -0.2680957E-05
   maximum displ.:     0.0083424 α      in ANC's #2, #1, #23, ...

........................................................................
.............................. CYCLE   44 ..............................
........................................................................

 iter      E             dE          RMSdq      gap      omega  full diag
   1    -85.2070481 -0.852070E+02  0.394E-03    2.07       0.0  T
   2    -85.2070481 -0.267020E-07  0.241E-03    2.07       5.6  T
   3    -85.2070481  0.684656E-07  0.121E-03    2.07      11.1  T
   4    -85.2070481 -0.811464E-07  0.244E-04    2.07      55.3  T
   5    -85.2070481 -0.218097E-08  0.838E-05    2.07     161.0  T
     SCC iter.                  ...        0 min,  0.017 sec
     gradient                   ...        0 min,  0.007 sec
 * total energy  :   -84.0725755 Eh     change       -0.2831202E-05 Eh
   gradient norm :     0.0003503 Eh/α   predicted    -0.1377107E-05 ( -51.36%)
   displ. norm   :     0.0303507 α      lambda       -0.2600085E-05
   maximum displ.:     0.0173947 α      in ANC's #2, #1, #9, ...

   *** GEOMETRY OPTIMIZATION CONVERGED AFTER 44 ITERATIONS ***

------------------------------------------------------------------------
 total energy gain   :        -0.0495538 Eh      -31.0955 kcal/mol
 total RMSD          :         0.9152502 a0        0.4843 Å
 total power (kW/mol):        -2.9568978 (step)  -72.7559 (real)
------------------------------------------------------------------------

 ANCopt (total)                0 d,  0 h,  0 min,  1.788 sec
 optimizer setup                ...        0 min,  0.000 sec (  0.008%)
 model hessian                  ...        0 min,  0.109 sec (  6.107%)
 ANC generation                 ...        0 min,  0.006 sec (  0.354%)
 coordinate transformation      ...        0 min,  0.003 sec (  0.173%)
 single point calculation       ...        0 min,  1.639 sec ( 91.662%)
 optimization log               ...        0 min,  0.014 sec (  0.808%)
 hessian update                 ...        0 min,  0.009 sec (  0.514%)
 rational function              ...        0 min,  0.005 sec (  0.260%)

================
 final structure:
================
55
 xtb: 6.7.1 (edcfbbe)
O            5.78702700661103        0.88328723329267       -1.84526752247302
C            6.55700067212860        1.04051734485844       -0.68476625938593
C            5.71886955149251        1.31613766420024        0.58100509040978
N            4.67044180380158        0.33877098664219        0.75706136679673
C            5.07027346561286       -0.84095873043351        1.48741855377545
C            4.92112774362097       -0.65241693226904        3.01286091110972
O            3.67401356199669       -0.14046355507710        3.39616674157121
C            3.39601717768708        0.52676024041252        0.29716951503841
C            2.99913751396978        1.71142622810982       -0.35196614067091
C            1.71195587961526        1.90200596115803       -0.79012630588122
C            0.72186860215162        0.92503140108855       -0.63422381854641
C           -0.61413315038533        1.17995625880520       -1.09174745083471
C           -1.66965089134066        0.34341682232752       -1.04071552119841
C           -2.97539370760539        0.76397399818154       -1.52180973042291
C           -4.05668346918251       -0.34218843134359       -1.38422138323830
O           -5.19075310726827        0.08339354637108       -2.09251270113062
C           -6.32849513022122       -0.73602363463499       -1.92896353161179
O           -3.59069845266750       -1.59070554425860       -1.85691200334853
C           -3.20720735656593       -1.58156283875530       -3.21718039645001
C           -4.30181001083125       -0.44047359258189        0.11166367228036
C           -3.92363449511503       -1.55527942468854        0.84530358998510
C           -4.14199322201083       -1.58761575890020        2.21172633553258
C           -4.73426237483153       -0.51135488405647        2.84969976540973
C           -5.11237803591305        0.60222465670502        2.11735782024667
C           -4.89463109122555        0.64132705637298        0.75275026386581
O           -3.24278856597646        1.87093435731365       -1.93436774474374
C            1.11328765220654       -0.26418734113950       -0.00867481922937
C            2.39496587736945       -0.45396350808686        0.44409095368067
H            5.23724844803035        1.66360880343170       -1.97862023703498
H            7.29329436441562        1.85004699196576       -0.80109346435022
H            7.09902749900449        0.09749293529962       -0.57705563816863
H            5.29865682491257        2.32148528920852        0.54062179234897
H            6.38498287226085        1.28238408088026        1.44711251578398
H            6.11958778017838       -1.05510316908411        1.26891299096891
H            4.49310483962018       -1.70519816575215        1.15789790343009
H            5.64783020810528        0.08026634762861        3.37307580637383
H            5.12740025020401       -1.61351877306483        3.50739614839842
H            2.97153227815574       -0.71081796042189        3.06407202835608
H            3.69688352921118        2.51787976901976       -0.51206077996709
H            1.45565082399949        2.83492057350304       -1.27187328171493
H           -0.79314459144607        2.16046714778484       -1.51867601877026
H           -1.60116205616676       -0.65934640512576       -0.64990279570249
H           -7.06289831559230       -0.37002431832615       -2.64355086999643
H           -6.09424999101446       -1.78398385476178       -2.14054084823881
H           -6.73120183316494       -0.66057958314491       -0.91312853337125
H           -3.05767432476394       -2.62376036138000       -3.49355539259140
H           -2.27616648276285       -1.02233911410581       -3.36102389165044
H           -3.98666022297199       -1.13839832078081       -3.84226916037522
H           -3.47269460917369       -2.39346551513623        0.33800009149901
H           -3.84891278281298       -2.45861566305726        2.77995396418287
H           -4.90153864137358       -0.53980876908444        3.91652631399050
H           -5.57434225958833        1.44408734870267        2.61141427604616
H           -5.17968630868079        1.50425907822072        0.16922019080302
H            0.39192881079820       -1.05401496540861        0.13353839759204
H            2.61173044347827       -1.39989000664923        0.91479224161976
 
 Bond Distances (Angstroems)
 ---------------------------
O1-C2=1.4016         O1-H29=0.9638        C2-O1=1.4016         C2-C3=1.5429         C2-H30=1.1005        C2-H31=1.0930        
C3-C2=1.5429         C3-N4=1.4441         C3-H32=1.0904        C3-H33=1.0932        N4-C3=1.4441         N4-C5=1.4440         
N4-C8=1.3678         C5-N4=1.4440         C5-C6=1.5443         C5-H34=1.0930        C5-H35=1.0902        C6-C5=1.5443         
C6-O7=1.4015         C6-H36=1.0930        C6-H37=1.1004        O7-C6=1.4015         O7-H38=0.9639        C8-N4=1.3678         
C8-C9=1.4080         C8-C28=1.4091        C9-C8=1.4080         C9-C10=1.3730        C9-H39=1.0784        C10-C9=1.3730        
C10-C11=1.3997       C10-H40=1.0808       C11-C10=1.3997       C11-C12=1.4350       C11-C27=1.3996       C12-C11=1.4350       
C12-C13=1.3478       C12-H41=1.0843       C13-C12=1.3478       C13-C14=1.4537       C13-H42=1.0784       C14-C13=1.4537       
C14-C15=1.5530       C14-O26=1.2112       C15-C14=1.5530       C15-O16=1.4032       C15-O18=1.4140       C15-C20=1.5190       
O16-C15=1.4032       O16-C17=1.4116       C17-O16=1.4116       C17-H43=1.0881       C17-H44=1.0945       C17-H45=1.0953       
O18-C15=1.4140       O18-C19=1.4133       C19-O18=1.4133       C19-H46=1.0885       C19-H47=1.0956       C19-H48=1.0930       
C20-C15=1.5190       C20-C21=1.3871       C20-C25=1.3902       C21-C20=1.3871       C21-C22=1.3841       C21-H49=1.0785       
C22-C21=1.3841       C22-C23=1.3842       C22-H50=1.0805       C23-C22=1.3842       C23-C24=1.3854       C23-H51=1.0802       
C24-C23=1.3854       C24-C25=1.3824       C24-H52=1.0799       C25-C20=1.3902       C25-C24=1.3824       C25-H53=1.0800       
O26-C14=1.2112       C27-C11=1.3996       C27-C28=1.3725       C27-H54=1.0791       C28-C8=1.4091        C28-C27=1.3725       
C28-H55=1.0786       H29-O1=0.9638        H30-C2=1.1005        H31-C2=1.0930        H32-C3=1.0904        H33-C3=1.0932        
H34-C5=1.0930        H35-C5=1.0902        H36-C6=1.0930        H37-C6=1.1004        H38-O7=0.9639        H39-C9=1.0784        
H40-C10=1.0808       H41-C12=1.0843       H42-C13=1.0784       H43-C17=1.0881       H44-C17=1.0945       H45-C17=1.0953       
H46-C19=1.0885       H47-C19=1.0956       H48-C19=1.0930       H49-C21=1.0785       H50-C22=1.0805       H51-C23=1.0802       
H52-C24=1.0799       H53-C25=1.0800       H54-C27=1.0791       H55-C28=1.0786       
 C  H  Rav=1.0875 sigma=0.0073  Rmin=1.0784  Rmax=1.1005    25
 C  C  Rav=1.4248 sigma=0.0636  Rmin=1.3478  Rmax=1.5530    19
 N  C  Rav=1.4186 sigma=0.0359  Rmin=1.3678  Rmax=1.4441     3
 O  H  Rav=0.9638 sigma=0.0000  Rmin=0.9638  Rmax=0.9639     2
 O  C  Rav=1.3795 sigma=0.0689  Rmin=1.2112  Rmax=1.4140     7
 
 selected bond angles (degree)
 --------------------
H29-O1-C2=109.70               C3-C2-O1=113.63                H30-C2-O1=111.26               H30-C2-C3=108.59               
H31-C2-O1=104.91               H31-C2-C3=110.04               H31-C2-H30=108.26              N4-C3-C2=111.93                
H32-C3-C2=110.10               H32-C3-N4=110.41               H33-C3-C2=108.27               H33-C3-N4=108.96               
H33-C3-H32=107.02              C5-N4-C3=114.43                C8-N4-C3=122.85                C8-N4-C5=122.71                
C6-C5-N4=111.91                H34-C5-N4=108.95               H34-C5-C6=108.31               H35-C5-N4=110.38               
H35-C5-C6=110.13               H35-C5-H34=107.01              O7-C6-C5=113.62                H36-C6-C5=110.07               
H36-C6-O7=104.87               H37-C6-C5=108.61               H37-C6-O7=111.28               H37-C6-H36=108.22              
H38-O7-C6=109.76               C9-C8-N4=122.23                C28-C8-N4=122.09               C28-C8-C9=115.69               
C10-C9-C8=121.88               H39-C9-C8=121.02               H39-C9-C10=117.09              C11-C10-C9=122.05              
H40-C10-C9=118.97              H40-C10-C11=118.97             
 
 selected dihedral angles (degree)
 ---------------------------------
C3-C2-O1-H29= 56.49           H30-C2-O1-H29=293.57          H31-C2-O1-H29=176.73          N4-C3-C2-O1= 51.97            
N4-C3-C2-H30=176.35           N4-C3-C2-H31=294.68           H32-C3-C2-O1=288.76           H32-C3-C2-H30= 53.15          
H32-C3-C2-H31=171.47          H33-C3-C2-O1=172.09           H33-C3-C2-H30=296.47          H33-C3-C2-H31= 54.80          
C5-N4-C3-C2= 87.56            C5-N4-C3-H32=210.60           C5-N4-C3-H33=327.85           C8-N4-C3-C2=266.16            
C8-N4-C3-H32= 29.19           C8-N4-C3-H33=146.45           C6-C5-N4-C3= 86.85            C6-C5-N4-C8=268.26            
H34-C5-N4-C3=327.11           H34-C5-N4-C8=148.52           H35-C5-N4-C3=209.89           H35-C5-N4-C8= 31.29           
O7-C6-C5-N4= 49.15            O7-C6-C5-H34=169.27           O7-C6-C5-H35=285.98           H36-C6-C5-N4=291.89           
H36-C6-C5-H34= 52.01          H36-C6-C5-H35=168.72          H37-C6-C5-N4=173.57           H37-C6-C5-H34=293.69          
H37-C6-C5-H35= 50.40          H38-O7-C6-C5= 56.36           H38-O7-C6-H36=176.60          H38-O7-C6-H37=293.39          
C9-C8-N4-C3=358.09            C9-C8-N4-C5=176.57            C28-C8-N4-C3=178.14           C28-C8-N4-C5=356.62           
C10-C9-C8-N4=181.15           C10-C9-C8-C28=  1.11          H39-C9-C8-N4=  0.18           H39-C9-C8-C28=180.13          
C11-C10-C9-C8=359.15          C11-C10-C9-H39=180.08         H40-C10-C9-C8=179.25          H40-C10-C9-H39=  0.18         
           -------------------------------------------------
          |                Final Singlepoint                |
           -------------------------------------------------

          ...................................................
          :                      SETUP                      :
          :.................................................:
          :  # basis functions                 139          :
          :  # atomic orbitals                 139          :
          :  # shells                           83          :
          :  # electrons                       150          :
          :  max. iterations                   250          :
          :  Hamiltonian                  GFN2-xTB          :
          :  restarted?                      false          :
          :  GBSA solvation                  false          :
          :  PC potential                    false          :
          :  electronic temp.          300.0000000     K    :
          :  accuracy                    1.0000000          :
          :  -> integral cutoff          0.2500000E+02      :
          :  -> integral neglect         0.1000000E-07      :
          :  -> SCF convergence          0.1000000E-05 Eh   :
          :  -> wf. convergence          0.1000000E-03 e    :
          :  Broyden damping             0.4000000          :
          :  net charge                          0          :
          :  unpaired electrons                  0          :
          ...................................................

 iter      E             dE          RMSdq      gap      omega  full diag
   1    -85.2070481 -0.852070E+02  0.447E-05    2.07       0.0  T
   2    -85.2070481 -0.846967E-11  0.288E-05    2.07     467.5  T
   3    -85.2070481  0.454747E-12  0.191E-05    2.07     706.7  T

   *** convergence criteria satisfied after 3 iterations ***

         #    Occupation            Energy/Eh            Energy/eV
      -------------------------------------------------------------
         1        2.0000           -0.7046410             -19.1743
       ...           ...                  ...                  ...
        69        2.0000           -0.4118415             -11.2068
        70        2.0000           -0.4078571             -11.0984
        71        2.0000           -0.4036052             -10.9827
        72        2.0000           -0.4028076             -10.9610
        73        2.0000           -0.3981788             -10.8350
        74        2.0000           -0.3677346             -10.0066
        75        2.0000           -0.3582477              -9.7484 (HOMO)
        76                         -0.2820319              -7.6745 (LUMO)
        77                         -0.2263242              -6.1586
        78                         -0.2242287              -6.1016
        79                         -0.2213406              -6.0230
        80                         -0.2052983              -5.5865
       ...                                ...                  ...
       139                          0.7087371              19.2857
      -------------------------------------------------------------
                  HL-Gap            0.0762158 Eh            2.0739 eV
             Fermi-level           -0.3201398 Eh           -8.7114 eV

 SCC (total)                   0 d,  0 h,  0 min,  0.019 sec
 SCC setup                      ...        0 min,  0.000 sec (  0.512%)
 Dispersion                     ...        0 min,  0.000 sec (  1.454%)
 classical contributions        ...        0 min,  0.000 sec (  0.221%)
 integral evaluation            ...        0 min,  0.002 sec (  7.948%)
 iterations                     ...        0 min,  0.011 sec ( 54.756%)
 molecular gradient             ...        0 min,  0.007 sec ( 33.980%)
 printout                       ...        0 min,  0.000 sec (  1.000%)

         :::::::::::::::::::::::::::::::::::::::::::::::::::::
         ::                     SUMMARY                     ::
         :::::::::::::::::::::::::::::::::::::::::::::::::::::
         :: total energy             -84.072575480183 Eh    ::
         :: gradient norm              0.000356829535 Eh/a0 ::
         :: HOMO-LUMO gap              2.073938104348 eV    ::
         ::.................................................::
         :: SCC energy               -85.206456926776 Eh    ::
         :: -> isotropic ES            0.118447634620 Eh    ::
         :: -> anisotropic ES          0.007758653044 Eh    ::
         :: -> anisotropic XC          0.024407242323 Eh    ::
         :: -> dispersion             -0.058591754449 Eh    ::
         :: repulsion energy           1.133881446593 Eh    ::
         :: add. restraining           0.000000000000 Eh    ::
         :: total charge               0.000000000000 e     ::
         :::::::::::::::::::::::::::::::::::::::::::::::::::::

           -------------------------------------------------
          |                Property Printout                |
           -------------------------------------------------

    * Orbital Energies and Occupations

         #    Occupation            Energy/Eh            Energy/eV
      -------------------------------------------------------------
         1        2.0000           -0.7046410             -19.1743
       ...           ...                  ...                  ...
        63        2.0000           -0.4355894             -11.8530
        64        2.0000           -0.4309643             -11.7271
        65        2.0000           -0.4265333             -11.6066
        66        2.0000           -0.4217871             -11.4774
        67        2.0000           -0.4202931             -11.4368
        68        2.0000           -0.4145752             -11.2812
        69        2.0000           -0.4118415             -11.2068
        70        2.0000           -0.4078571             -11.0984
        71        2.0000           -0.4036052             -10.9827
        72        2.0000           -0.4028076             -10.9610
        73        2.0000           -0.3981788             -10.8350
        74        2.0000           -0.3677346             -10.0066
        75        2.0000           -0.3582477              -9.7484 (HOMO)
        76                         -0.2820319              -7.6745 (LUMO)
        77                         -0.2263242              -6.1586
        78                         -0.2242287              -6.1016
        79                         -0.2213406              -6.0230
        80                         -0.2052983              -5.5865
        81                         -0.1501598              -4.0861
        82                         -0.0929212              -2.5285
        83                         -0.0779435              -2.1210
        84                         -0.0277034              -0.7538
        85                          0.0193495               0.5265
        86                          0.0384833               1.0472
       ...                                ...                  ...
       139                          0.7087371              19.2857
      -------------------------------------------------------------
                  HL-Gap            0.0762158 Eh            2.0739 eV
             Fermi-level           -0.3201398 Eh           -8.7114 eV

     #   Z          covCN         q      C6AA      α(0)
     1   8 O        1.656    -0.434    21.518     6.262
     2   6 C        3.673     0.074    19.565     6.339
     3   6 C        3.747    -0.019    20.983     6.534
     4   7 N        2.736    -0.064    22.484     7.042
     5   6 C        3.747    -0.019    20.987     6.534
     6   6 C        3.673     0.074    19.564     6.339
     7   8 O        1.656    -0.434    21.526     6.263
     8   6 C        2.904     0.078    26.269     8.404
     9   6 C        2.922    -0.060    29.480     8.904
    10   6 C        2.927    -0.030    28.743     8.792
    11   6 C        2.968    -0.001    28.048     8.687
    12   6 C        2.907    -0.010    28.278     8.720
    13   6 C        2.894    -0.075    29.862     8.960
    14   6 C        2.830     0.209    23.579     7.957
    15   6 C        3.707     0.249    16.896     5.876
    16   8 O        1.701    -0.317    19.294     5.931
    17   6 C        3.647     0.047    20.111     6.444
    18   8 O        1.700    -0.338    19.662     5.987
    19   6 C        3.647     0.047    20.114     6.445
    20   6 C        2.982    -0.010    28.249     8.718
    21   6 C        2.921    -0.032    28.788     8.799
    22   6 C        2.921    -0.030    28.744     8.792
    23   6 C        2.920    -0.031    28.768     8.796
    24   6 C        2.920    -0.029    28.717     8.788
    25   6 C        2.923    -0.032    28.793     8.800
    26   8 O        0.857    -0.360    20.890     6.128
    27   6 C        2.922    -0.029    28.722     8.789
    28   6 C        2.923    -0.060    29.490     8.905
    29   1 H        0.805     0.294     0.740     1.351
    30   1 H        0.923     0.025     2.663     2.552
    31   1 H        0.924     0.051     2.302     2.373
    32   1 H        0.924     0.055     2.254     2.348
    33   1 H        0.924     0.049     2.336     2.390
    34   1 H        0.924     0.049     2.337     2.390
    35   1 H        0.924     0.055     2.259     2.351
    36   1 H        0.924     0.051     2.307     2.375
    37   1 H        0.923     0.025     2.664     2.553
    38   1 H        0.805     0.294     0.739     1.350
    39   1 H        0.926     0.024     2.680     2.560
    40   1 H        0.926     0.037     2.487     2.466
    41   1 H        0.925     0.064     2.153     2.295
    42   1 H        0.926     0.046     2.366     2.405
    43   1 H        0.925     0.058     2.224     2.332
    44   1 H        0.924     0.038     2.473     2.459
    45   1 H        0.924     0.029     2.598     2.521
    46   1 H        0.925     0.054     2.268     2.355
    47   1 H        0.924     0.028     2.620     2.531
    48   1 H        0.924     0.047     2.363     2.404
    49   1 H        0.926     0.049     2.336     2.390
    50   1 H        0.926     0.033     2.538     2.491
    51   1 H        0.926     0.034     2.537     2.491
    52   1 H        0.926     0.036     2.499     2.472
    53   1 H        0.926     0.050     2.320     2.382
    54   1 H        0.926     0.037     2.488     2.467
    55   1 H        0.926     0.023     2.683     2.562

 Mol. C6AA /au·bohr⁶  :      31875.861041
 Mol. C8AA /au·bohr⁸  :     739359.027480
 Mol. α(0) /au        :        276.546830


Wiberg/Mayer (AO) data.
largest (>0.10) Wiberg bond orders for each atom

 ---------------------------------------------------------------------------
     #   Z sym  total        # sym  WBO       # sym  WBO       # sym  WBO
 ---------------------------------------------------------------------------
     1   8 O    1.970 --     2 C    1.012    29 H    0.894
     2   6 C    3.956 --     1 O    1.012     3 C    0.977    31 H    0.970
                            30 H    0.967
     3   6 C    3.979 --     4 N    1.003     2 C    0.977    33 H    0.967
                            32 H    0.961
     4   7 N    3.432 --     8 C    1.197     5 C    1.003     3 C    1.003
     5   6 C    3.979 --     4 N    1.003     6 C    0.975    34 H    0.968
                            35 H    0.961
     6   6 C    3.956 --     7 O    1.012     5 C    0.975    36 H    0.971
                            37 H    0.967
     7   8 O    1.970 --     6 C    1.012    38 H    0.893
     8   6 C    3.960 --     9 C    1.300    28 C    1.295     4 N    1.197
     9   6 C    3.981 --    10 C    1.512     8 C    1.300    39 H    0.958
    10   6 C    3.989 --     9 C    1.512    11 C    1.327    40 H    0.968
    11   6 C    3.984 --    10 C    1.327    27 C    1.324    12 C    1.159
    12   6 C    3.971 --    13 C    1.697    11 C    1.159    41 H    0.958
    13   6 C    3.966 --    12 C    1.697    14 C    1.100    42 H    0.961
    14   6 C    3.923 --    26 O    1.791    13 C    1.100    15 C    0.895
    15   6 C    3.921 --    16 O    0.974    18 O    0.957    20 C    0.949
                            14 C    0.895
    16   8 O    2.094 --    17 C    0.984    15 C    0.974
    17   6 C    3.949 --    16 O    0.984    43 H    0.981    44 H    0.979
                            45 H    0.978
    18   8 O    2.076 --    19 C    0.983    15 C    0.957
    19   6 C    3.947 --    18 O    0.983    46 H    0.981    48 H    0.979
                            47 H    0.977
    20   6 C    3.984 --    21 C    1.413    25 C    1.404    15 C    0.949
                            23 C    0.108
    21   6 C    3.990 --    22 C    1.440    20 C    1.413    49 H    0.966
                            24 C    0.110
    22   6 C    3.991 --    23 C    1.441    21 C    1.440    50 H    0.971
                            25 C    0.111
    23   6 C    3.988 --    22 C    1.441    24 C    1.434    51 H    0.971
                            20 C    0.108
    24   6 C    3.992 --    25 C    1.449    23 C    1.434    52 H    0.971
                            21 C    0.110
    25   6 C    3.990 --    24 C    1.449    20 C    1.404    53 H    0.968
                            22 C    0.111
    26   8 O    2.053 --    14 C    1.791
    27   6 C    3.990 --    28 C    1.518    11 C    1.324    54 H    0.966
    28   6 C    3.982 --    27 C    1.518     8 C    1.295    55 H    0.958
    29   1 H    0.914 --     1 O    0.894
    30   1 H    0.998 --     2 C    0.967
    31   1 H    0.997 --     2 C    0.970
    32   1 H    0.996 --     3 C    0.961
    33   1 H    0.996 --     3 C    0.967
    34   1 H    0.996 --     5 C    0.968
    35   1 H    0.996 --     5 C    0.961
    36   1 H    0.997 --     6 C    0.971
    37   1 H    0.998 --     6 C    0.967
    38   1 H    0.913 --     7 O    0.893
    39   1 H    0.999 --     9 C    0.958
    40   1 H    0.998 --    10 C    0.968
    41   1 H    0.995 --    12 C    0.958
    42   1 H    0.998 --    13 C    0.961
    43   1 H    0.996 --    17 C    0.981
    44   1 H    0.999 --    17 C    0.979
    45   1 H    0.999 --    17 C    0.978
    46   1 H    0.997 --    19 C    0.981
    47   1 H    0.999 --    19 C    0.977
    48   1 H    0.998 --    19 C    0.979
    49   1 H    0.998 --    21 C    0.966
    50   1 H    0.998 --    22 C    0.971
    51   1 H    0.998 --    23 C    0.971
    52   1 H    0.998 --    24 C    0.971
    53   1 H    0.997 --    25 C    0.968
    54   1 H    0.998 --    27 C    0.966
    55   1 H    0.999 --    28 C    0.958
 ---------------------------------------------------------------------------

Topologies differ in total number of bonds
Writing topology from bond orders to xtbtopo.mol

molecular dipole:
                 x           y           z       tot (Debye)
 q only:        2.550      -0.839       1.086
   full:        2.529      -1.010       1.094       7.458
molecular quadrupole (traceless):
                xx          xy          yy          xz          yz          zz
 q only:       17.403      13.984      -4.862      -0.730       0.975     -12.541
  q+dip:       16.563      16.306       0.967       0.745      -2.808     -17.530
   full:       17.468      17.076      -1.974       0.003      -0.448     -15.493

           -------------------------------------------------
          |                Geometry Summary                 |
           -------------------------------------------------

      molecular mass/u    :      385.4543179
   center of mass at/Å    :       -0.2663386       0.1111693      -0.0842814
  moments of inertia/u·Å² :        0.1519242E+04   0.7271775E+04   0.8065764E+04
rotational constants/cm⁻¹ :        0.1109608E-01   0.2318228E-02   0.2090023E-02

 * 50 selected distances

     #   Z          #   Z                                           value/Å
     1   8 O        2   6 C                                       1.4015507
     3   6 C        4   7 N                                       1.4441061 (max)
     4   7 N        5   6 C                                       1.4439701
     6   6 C        7   8 O                                       1.4015398
     4   7 N        8   6 C                                       1.3678446
     8   6 C        9   6 C                                       1.4079504
     9   6 C       10   6 C                                       1.3730047
    10   6 C       11   6 C                                       1.3996636
    12   6 C       13   6 C                                       1.3477836
    15   6 C       16   8 O                                       1.4031789
    16   8 O       17   6 C                                       1.4116126
    15   6 C       18   8 O                                       1.4139922
    18   8 O       19   6 C                                       1.4133221
    20   6 C       21   6 C                                       1.3870965
    21   6 C       22   6 C                                       1.3841379
    22   6 C       23   6 C                                       1.3842437
    23   6 C       24   6 C                                       1.3854082
    20   6 C       25   6 C                                       1.3902237
    24   6 C       25   6 C                                       1.3824243
    14   6 C       26   8 O                                       1.2112248
    11   6 C       27   6 C                                       1.3995578
     8   6 C       28   6 C                                       1.4090809
    27   6 C       28   6 C                                       1.3724836
     1   8 O       29   1 H                                       0.9638160 (min)
     2   6 C       30   1 H                                       1.1004539
     2   6 C       31   1 H                                       1.0930187
     3   6 C       32   1 H                                       1.0903823
     3   6 C       33   1 H                                       1.0931553
     5   6 C       34   1 H                                       1.0930065
     5   6 C       35   1 H                                       1.0902374
     6   6 C       36   1 H                                       1.0930125
     6   6 C       37   1 H                                       1.1003774
     7   8 O       38   1 H                                       0.9638834
     9   6 C       39   1 H                                       1.0783540
    10   6 C       40   1 H                                       1.0807878
    12   6 C       41   1 H                                       1.0843039
    13   6 C       42   1 H                                       1.0784061
    17   6 C       43   1 H                                       1.0880895
    17   6 C       44   1 H                                       1.0944664
    17   6 C       45   1 H                                       1.0953472
    19   6 C       46   1 H                                       1.0885399
    19   6 C       47   1 H                                       1.0955635
    19   6 C       48   1 H                                       1.0930131
    21   6 C       49   1 H                                       1.0785452
    22   6 C       50   1 H                                       1.0804720
    23   6 C       51   1 H                                       1.0802361
    24   6 C       52   1 H                                       1.0799239
    25   6 C       53   1 H                                       1.0800073
    27   6 C       54   1 H                                       1.0790788
    28   6 C       55   1 H                                       1.0785749

 * 5 distinct bonds (by element types)

   Z      Z             #   av. dist./Å        max./Å        min./Å
   1 H    6 C          25     1.0874942     1.1004539     1.0783540
   6 C    6 C          13     1.3863891     1.4090809     1.3477836
   6 C    7 N           3     1.4186403     1.4441061     1.3678446
   1 H    8 O           2     0.9638497     0.9638834     0.9638160
   6 C    8 O           7     1.3794887     1.4139922     1.2112248


optimized geometry written to: xtbopt.xyz


           -------------------------------------------------
          | TOTAL ENERGY              -84.072575480183 Eh   |
          | GRADIENT NORM               0.000356829535 Eh/α |
          | HOMO-LUMO GAP               2.073938104348 eV   |
           -------------------------------------------------

------------------------------------------------------------------------
 * finished run on 2025/12/01 at 14:22:22.366     
------------------------------------------------------------------------
 total:
 * wall-time:     0 d,  0 h,  0 min,  1.886 sec
 *  cpu-time:     0 d,  0 h,  0 min, 43.009 sec
 * ratio c/w:    22.801 speedup
 SCF:
 * wall-time:     0 d,  0 h,  0 min,  0.064 sec
 *  cpu-time:     0 d,  0 h,  0 min,  1.472 sec
 * ratio c/w:    22.844 speedup
 ANC optimizer:
 * wall-time:     0 d,  0 h,  0 min,  1.809 sec
 *  cpu-time:     0 d,  0 h,  0 min, 41.347 sec
 * ratio c/w:    22.858 speedup

normal termination of xtb
