      -----------------------------------------------------------      
     |                   =====================                   |     
     |                           x T B                           |     
     |                   =====================                   |     
     |                         S. Grimme                         |     
     |          Mulliken Center for Theoretical Chemistry        |     
     |                    University of Bonn                     |     
      -----------------------------------------------------------      

   * xtb version 6.7.1 (edcfbbe) compiled by 'albert@albert-system' on 2024-07-22

   xtb is free software: you can redistribute it and/or modify it under
   the terms of the GNU Lesser General Public License as published by
   the Free Software Foundation, either version 3 of the License, or
   (at your option) any later version.
   
   xtb is distributed in the hope that it will be useful,
   but WITHOUT ANY WARRANTY; without even the implied warranty of
   MERCHANTABILITY or FITNESS FOR A PARTICULAR PURPOSE.  See the
   GNU Lesser General Public License for more details.
   
   Cite this work as:
   * C. Bannwarth, E. Caldeweyher, S. Ehlert, A. Hansen, P. Pracht,
     J. Seibert, S. Spicher, S. Grimme, WIREs Comput. Mol. Sci., 2020, 11,
     e01493. DOI: 10.1002/wcms.1493
   
   for GFN2-xTB:
   * C. Bannwarth, S. Ehlert and S. Grimme., J. Chem. Theory Comput., 2019,
     15, 1652-1671. DOI: 10.1021/acs.jctc.8b01176
   for GFN1-xTB:
   * S. Grimme, C. Bannwarth, P. Shushkov, J. Chem. Theory Comput., 2017,
     13, 1989-2009. DOI: 10.1021/acs.jctc.7b00118
   for GFN0-xTB:
   * P. Pracht, E. Caldeweyher, S. Ehlert, S. Grimme, ChemRxiv, 2019, preprint.
     DOI: 10.26434/chemrxiv.8326202.v1
   for GFN-FF:
   * S. Spicher and S. Grimme, Angew. Chem. Int. Ed., 2020, 59, 15665-15673.
     DOI: 10.1002/anie.202004239
   
   for ALPB and GBSA implicit solvation:
   * S. Ehlert, M. Stahn, S. Spicher, S. Grimme, J. Chem. Theory Comput.,
     2021, 17, 4250-4261. DOI: 10.1021/acs.jctc.1c00471
   
   for ddCOSMO and CPCM-X implicit solvation:
   * M. Stahn, S. Ehlert, S. Grimme, J. Phys. Chem. A,
     2023, XX, XXXX-XXXX. DOI: 10.1021/acs.jpca.3c04382
   
   for DFT-D4:
   * E. Caldeweyher, C. Bannwarth and S. Grimme, J. Chem. Phys., 2017,
     147, 034112. DOI: 10.1063/1.4993215
   * E. Caldeweyher, S. Ehlert, A. Hansen, H. Neugebauer, S. Spicher,
     C. Bannwarth and S. Grimme, J. Chem. Phys., 2019, 150, 154122.
     DOI: 10.1063/1.5090222
   * E. Caldeweyher, J.-M. Mewes, S. Ehlert and S. Grimme, Phys. Chem. Chem. Phys.
     2020, 22, 8499-8512. DOI: 10.1039/D0CP00502A
   
   for sTDA-xTB:
   * S. Grimme and C. Bannwarth, J. Chem. Phys., 2016, 145, 054103.
     DOI: 10.1063/1.4959605
   
   in the mass-spec context:
   * V. Asgeirsson, C. Bauer and S. Grimme, Chem. Sci., 2017, 8, 4879.
     DOI: 10.1039/c7sc00601b
   * J. Koopman and S. Grimme, ACS Omega 2019, 4, 12, 15120-15133.
     DOI: 10.1021/acsomega.9b02011
   
   for metadynamics refer to:
   * S. Grimme, J. Chem. Theory Comput., 2019, 155, 2847-2862
     DOI: 10.1021/acs.jctc.9b00143
   
   for SPH calculations refer to:
   * S. Spicher and S. Grimme, J. Chem. Theory Comput., 2021, 17, 1701-1714
     DOI: 10.1021/acs.jctc.0c01306
   
   for ONIOM refer to:
   * C. Plett, A. Katbashev, S. Ehlert, S. Grimme, M. Bursch,
     Phys. Chem. Chem. Phys., 2023, 25, 17860-17868. DOI: 10.1039/D3CP02178E
   
   for DIPRO refer to:
   * J. Kohn, N. Gildemeister, S. Grimme, D. Fazzi, A. Hansen,
     J. Chem. Phys., 2023, just accepted.
   
   for PTB refer to:
   * S. Grimme, M. Mueller, A. Hansen, J. Chem. Phys., 2023, 158, 124111.
     DOI: 10.1063/5.0137838
   
   with help from (in alphabetical order)
   P. Atkinson, C. Bannwarth, F. Bohle, G. Brandenburg, E. Caldeweyher
   M. Checinski, S. Dohm, S. Ehlert, S. Ehrlich, I. Gerasimov, C. Hölzer
   A. Katbashev, J. Kohn, J. Koopman, C. Lavigne, S. Lehtola, F. März, M. Müller,
   F. Musil, H. Neugebauer, J. Pisarek, C. Plett, P. Pracht, F. Pultar,
   J. Seibert, P. Shushkov, S. Spicher, M. Stahn, M. Steiner, T. Strunk,
   J. Stückrath, T. Rose, and J. Unsleber
   
 * started run on 2025/12/01 at 14:22:34.864     
   ID    Z sym.   atoms
    1    6 C      1-4, 7-9, 11-23, 25-27, 29, 31-35
    2    8 O      5, 6, 10, 24, 28, 30
    3    1 H      36-71

           -------------------------------------------------
          |                Calculation Setup                |
           -------------------------------------------------

          program call               : xtb pipeline_data/3_conformer_xyz/acrylates/rdkit/OPZLDVPRAIERSE-UHFFFAOYSA-N_conf231.xyz --opt --gfn 2-xTB --iterations 250
          coordinate file            : pipeline_data/3_conformer_xyz/acrylates/rdkit/OPZLDVPRAIERSE-UHFFFAOYSA-N_conf231.xyz
          omp threads                :                    24

########################################################################
[WARNING] Please study the warnings concerning your input carefully
-1- readin_getIntValue: could not parse '2-xTB'
########################################################################

           -------------------------------------------------
          |                 G F N 2 - x T B                 |
           -------------------------------------------------

        Reference                      10.1021/acs.jctc.8b01176
      * Hamiltonian:
        H0-scaling (s, p, d)           1.850000    2.230000    2.230000
        zeta-weighting                 0.500000
      * Dispersion:
        s8                             2.700000
        a1                             0.520000
        a2                             5.000000
        s9                             5.000000
      * Repulsion:
        kExp                           1.500000    1.000000
        rExp                           1.000000
      * Coulomb:
        alpha                          2.000000
        third order                    shell-resolved
        anisotropic                    true
        a3                             3.000000
        a5                             4.000000
        cn-shift                       1.200000
        cn-exp                         4.000000
        max-rad                        5.000000

q/qsh data taken from xtbrestart
CAMM data taken from xtbrestart

          ...................................................
          :                      SETUP                      :
          :.................................................:
          :  # basis functions                 176          :
          :  # atomic orbitals                 176          :
          :  # shells                          106          :
          :  # electrons                       188          :
          :  max. iterations                   250          :
          :  Hamiltonian                  GFN2-xTB          :
          :  restarted?                       true          :
          :  GBSA solvation                  false          :
          :  PC potential                    false          :
          :  electronic temp.          300.0000000     K    :
          :  accuracy                    1.0000000          :
          :  -> integral cutoff          0.2500000E+02      :
          :  -> integral neglect         0.1000000E-07      :
          :  -> SCF convergence          0.1000000E-05 Eh   :
          :  -> wf. convergence          0.1000000E-03 e    :
          :  Broyden damping             0.4000000          :
          :  net charge                          0          :
          :  unpaired electrons                  0          :
          ...................................................

 iter      E             dE          RMSdq      gap      omega  full diag
   1   -106.1711403 -0.106171E+03  0.386E+00    2.41       0.0  T
   2   -106.1820670 -0.109268E-01  0.228E+00    2.34       1.0  T
   3   -106.1677875  0.142796E-01  0.520E-01    2.41       1.0  T
   4   -106.1856459 -0.178584E-01  0.139E-01    2.40       1.0  T
   5   -106.1861393 -0.493421E-03  0.813E-02    2.42       1.0  T
   6   -106.1862405 -0.101191E-03  0.349E-02    2.42       1.0  T
   7   -106.1862696 -0.291467E-04  0.771E-03    2.42       1.5  T
   8   -106.1862721 -0.248807E-05  0.371E-03    2.42       3.2  T
   9   -106.1862725 -0.382096E-06  0.152E-03    2.42       7.8  T
  10   -106.1862726 -0.483944E-07  0.795E-04    2.42      14.9  T
  11   -106.1862726 -0.182590E-07  0.363E-04    2.42      32.7  T

   *** convergence criteria satisfied after 11 iterations ***

         #    Occupation            Energy/Eh            Energy/eV
      -------------------------------------------------------------
         1        2.0000           -0.7337573             -19.9666
       ...           ...                  ...                  ...
        88        2.0000           -0.4072441             -11.0817
        89        2.0000           -0.4065861             -11.0638
        90        2.0000           -0.4048710             -11.0171
        91        2.0000           -0.4014925             -10.9252
        92        2.0000           -0.3997691             -10.8783
        93        2.0000           -0.3752779             -10.2118
        94        2.0000           -0.3714406             -10.1074 (HOMO)
        95                         -0.2826811              -7.6921 (LUMO)
        96                         -0.2805021              -7.6329
        97                         -0.2200784              -5.9886
        98                         -0.2181549              -5.9363
        99                         -0.2150435              -5.8516
       ...                                ...                  ...
       176                          0.6813997              18.5418
      -------------------------------------------------------------
                  HL-Gap            0.0887595 Eh            2.4153 eV
             Fermi-level           -0.3270609 Eh           -8.8998 eV

 SCC (total)                   0 d,  0 h,  0 min,  0.093 sec
 SCC setup                      ...        0 min,  0.000 sec (  0.458%)
 Dispersion                     ...        0 min,  0.002 sec (  1.900%)
 classical contributions        ...        0 min,  0.000 sec (  0.109%)
 integral evaluation            ...        0 min,  0.005 sec (  5.055%)
 iterations                     ...        0 min,  0.074 sec ( 80.141%)
 molecular gradient             ...        0 min,  0.011 sec ( 11.780%)
 printout                       ...        0 min,  0.000 sec (  0.511%)

         :::::::::::::::::::::::::::::::::::::::::::::::::::::
         ::                     SUMMARY                     ::
         :::::::::::::::::::::::::::::::::::::::::::::::::::::
         :: total energy            -104.772669557454 Eh    ::
         :: gradient norm              0.212681818522 Eh/a0 ::
         :: HOMO-LUMO gap              2.415268300822 eV    ::
         ::.................................................::
         :: SCC energy              -106.186588130257 Eh    ::
         :: -> isotropic ES            0.131135402831 Eh    ::
         :: -> anisotropic ES          0.007137447020 Eh    ::
         :: -> anisotropic XC          0.034857072044 Eh    ::
         :: -> dispersion             -0.068110077029 Eh    ::
         :: repulsion energy           1.413918572803 Eh    ::
         :: add. restraining           0.000000000000 Eh    ::
         :: total charge               0.000000000000 e     ::
         :::::::::::::::::::::::::::::::::::::::::::::::::::::

      ----------------------------------------------------------- 
     |                   =====================                   |
     |                        A N C O P T                        |
     |                   =====================                   |
     |               Approximate Normal Coordinate               |
     |                Rational Function Optimizer                |
      ----------------------------------------------------------- 
      ----------------------------------------------------------- 
     |                   =====================                   |
     |                        A N C O P T                        |
     |                   =====================                   |
     |               Approximate Normal Coordinate               |
     |                Rational Function Optimizer                |
      ----------------------------------------------------------- 

          ...................................................
          :                      SETUP                      :
          :.................................................:
          :   optimization level            normal          :
          :   max. optcycles                   213          :
          :   ANC micro-cycles                  20          :
          :   degrees of freedom               207          :
          :.................................................:
          :   RF solver                   davidson          :
          :   write xtbopt.log                true          :
          :   linear?                        false          :
          :   energy convergence         0.5000000E-05 Eh   :
          :   grad. convergence          0.1000000E-02 Eh/α :
          :   maxmium RF displ.          1.0000000          :
          :   Hlow (freq-cutoff)         0.1000000E-01      :
          :   Hmax (freq-cutoff)         5.0000000          :
          :   S6 in model hess.         20.0000000          :
          ...................................................

generating ANC from exact Hessian ...
Using Lindh-Hessian (1995)
 Shifting diagonal of input Hessian by   9.976676412985297E-003
 Lowest  eigenvalues of input Hessian
    0.000000    0.000000    0.000000    0.000000    0.000000    0.000000
    0.010000    0.010087    0.010153    0.010192    0.010254    0.010347
    0.010430    0.010867    0.010979    0.011205    0.011438    0.011684
 Highest eigenvalues
    2.034824    2.046483    2.093894    2.143765    2.155040    2.161601
 

........................................................................
.............................. CYCLE    1 ..............................
........................................................................

 iter      E             dE          RMSdq      gap      omega  full diag
   1   -106.1862726 -0.106186E+03  0.162E-04    2.42       0.0  T
   2   -106.1862726 -0.325812E-09  0.121E-04    2.42      98.0  T
   3   -106.1862726 -0.717435E-09  0.633E-05    2.42     187.5  T
     SCC iter.                  ...        0 min,  0.024 sec
     gradient                   ...        0 min,  0.011 sec
 * total energy  :  -104.7726696 Eh     change       -0.3368569E-08 Eh
   gradient norm :     0.2126816 Eh/α   predicted     0.0000000E+00 (-100.00%)
   displ. norm   :     0.4447155 α      lambda       -0.5730257E-01
   maximum displ.:     0.1422407 α      in ANC's #55, #74, #110, ...

........................................................................
.............................. CYCLE    2 ..............................
........................................................................

 iter      E             dE          RMSdq      gap      omega  full diag
   1   -106.2462535 -0.106246E+03  0.270E-01    2.62       0.0  T
   2   -106.2468604 -0.606986E-03  0.167E-01    2.58       1.0  T
   3   -106.2467029  0.157548E-03  0.826E-02    2.58       1.0  T
   4   -106.2469362 -0.233299E-03  0.285E-02    2.56       1.0  T
   5   -106.2469829 -0.466939E-04  0.932E-03    2.56       1.3  T
   6   -106.2469856 -0.272152E-05  0.492E-03    2.57       2.4  T
   7   -106.2469859 -0.277216E-06  0.244E-03    2.57       4.9  T
   8   -106.2469861 -0.212108E-06  0.858E-04    2.57      13.8  T
   9   -106.2469861 -0.130706E-07  0.341E-04    2.57      34.8  T
     SCC iter.                  ...        0 min,  0.044 sec
     gradient                   ...        0 min,  0.011 sec
 * total energy  :  -104.8134530 Eh     change       -0.4078348E-01 Eh
   gradient norm :     0.0898557 Eh/α   predicted    -0.3435078E-01 ( -15.77%)
   displ. norm   :     0.4284037 α      lambda       -0.1978386E-01
   maximum displ.:     0.1663143 α      in ANC's #55, #38, #29, ...

........................................................................
.............................. CYCLE    3 ..............................
........................................................................

 iter      E             dE          RMSdq      gap      omega  full diag
   1   -106.2762860 -0.106276E+03  0.190E-01    2.71       0.0  T
   2   -106.2765735 -0.287569E-03  0.117E-01    2.69       1.0  T
   3   -106.2764787  0.947976E-04  0.604E-02    2.69       1.0  T
   4   -106.2766168 -0.138087E-03  0.197E-02    2.68       1.0  T
   5   -106.2766390 -0.222105E-04  0.633E-03    2.68       1.9  T
   6   -106.2766403 -0.130987E-05  0.321E-03    2.68       3.7  T
   7   -106.2766405 -0.193998E-06  0.156E-03    2.68       7.6  T
   8   -106.2766406 -0.741923E-07  0.578E-04    2.68      20.6  T
   9   -106.2766406 -0.469245E-08  0.248E-04    2.68      47.9  T
     SCC iter.                  ...        0 min,  0.044 sec
     gradient                   ...        0 min,  0.012 sec
 * total energy  :  -104.8256145 Eh     change       -0.1216146E-01 Eh
   gradient norm :     0.0214084 Eh/α   predicted    -0.1170740E-01 (  -3.73%)
   displ. norm   :     0.3922718 α      lambda       -0.4284925E-02
   maximum displ.:     0.1477373 α      in ANC's #38, #29, #24, ...

........................................................................
.............................. CYCLE    4 ..............................
........................................................................

 iter      E             dE          RMSdq      gap      omega  full diag
   1   -106.2766104 -0.106277E+03  0.895E-02    2.66       0.0  T
   2   -106.2766315 -0.211291E-04  0.539E-02    2.67       1.0  T
   3   -106.2766079  0.236161E-04  0.210E-02    2.67       1.0  T
   4   -106.2766362 -0.282830E-04  0.485E-03    2.67       2.4  T
   5   -106.2766378 -0.155724E-05  0.171E-03    2.67       7.0  T
   6   -106.2766378 -0.662926E-07  0.100E-03    2.67      11.8  T
   7   -106.2766379 -0.194337E-07  0.464E-04    2.67      25.6  T
   8   -106.2766379 -0.669863E-08  0.184E-04    2.67      64.6  T
     SCC iter.                  ...        0 min,  0.040 sec
     gradient                   ...        0 min,  0.012 sec
 * total energy  :  -104.8286989 Eh     change       -0.3084435E-02 Eh
   gradient norm :     0.0127245 Eh/α   predicted    -0.2472257E-02 ( -19.85%)
   displ. norm   :     0.4446870 α      lambda       -0.2465204E-02
   maximum displ.:     0.1497317 α      in ANC's #14, #24, #29, ...

........................................................................
.............................. CYCLE    5 ..............................
........................................................................

 iter      E             dE          RMSdq      gap      omega  full diag
   1   -106.2785457 -0.106279E+03  0.766E-02    2.67       0.0  T
   2   -106.2785550 -0.920843E-05  0.455E-02    2.67       1.0  T
   3   -106.2785441  0.108630E-04  0.141E-02    2.67       1.0  T
   4   -106.2785570 -0.129130E-04  0.378E-03    2.67       3.1  T
   5   -106.2785576 -0.648240E-06  0.172E-03    2.67       6.9  T
   6   -106.2785577 -0.839119E-07  0.889E-04    2.67      13.4  T
   7   -106.2785577 -0.108843E-07  0.326E-04    2.67      36.4  T
     SCC iter.                  ...        0 min,  0.034 sec
     gradient                   ...        0 min,  0.013 sec
 * total energy  :  -104.8304618 Eh     change       -0.1762851E-02 Eh
   gradient norm :     0.0094630 Eh/α   predicted    -0.1476361E-02 ( -16.25%)
   displ. norm   :     0.4143882 α      lambda       -0.1361477E-02
   maximum displ.:     0.1683311 α      in ANC's #14, #24, #29, ...

........................................................................
.............................. CYCLE    6 ..............................
........................................................................

 iter      E             dE          RMSdq      gap      omega  full diag
   1   -106.2818060 -0.106282E+03  0.722E-02    2.66       0.0  T
   2   -106.2818099 -0.380832E-05  0.426E-02    2.66       1.0  T
   3   -106.2818035  0.635044E-05  0.110E-02    2.66       1.1  T
   4   -106.2818112 -0.768409E-05  0.279E-03    2.66       4.2  T
   5   -106.2818114 -0.243432E-06  0.144E-03    2.66       8.2  T
   6   -106.2818115 -0.394877E-07  0.689E-04    2.66      17.2  T
   7   -106.2818115 -0.815382E-08  0.207E-04    2.66      57.3  T
     SCC iter.                  ...        0 min,  0.038 sec
     gradient                   ...        0 min,  0.012 sec
 * total energy  :  -104.8314456 Eh     change       -0.9837865E-03 Eh
   gradient norm :     0.0087974 Eh/α   predicted    -0.7976344E-03 ( -18.92%)
   displ. norm   :     0.4123490 α      lambda       -0.9680301E-03
   maximum displ.:     0.1863465 α      in ANC's #14, #4, #15, ...

........................................................................
.............................. CYCLE    7 ..............................
........................................................................

 iter      E             dE          RMSdq      gap      omega  full diag
   1   -106.2855463 -0.106286E+03  0.794E-02    2.67       0.0  T
   2   -106.2855502 -0.394915E-05  0.468E-02    2.67       1.0  T
   3   -106.2855441  0.613153E-05  0.101E-02    2.67       1.2  T
   4   -106.2855513 -0.723914E-05  0.281E-03    2.67       4.2  T
   5   -106.2855516 -0.312637E-06  0.131E-03    2.67       9.1  T
   6   -106.2855517 -0.107083E-07  0.750E-04    2.67      15.8  T
   7   -106.2855517 -0.191856E-07  0.203E-04    2.67      58.4  T
     SCC iter.                  ...        0 min,  0.036 sec
     gradient                   ...        0 min,  0.010 sec
 * total energy  :  -104.8321299 Eh     change       -0.6843485E-03 Eh
   gradient norm :     0.0084291 Eh/α   predicted    -0.5663200E-03 ( -17.25%)
   displ. norm   :     0.4241777 α      lambda       -0.7751816E-03
   maximum displ.:     0.1994298 α      in ANC's #14, #4, #15, ...

........................................................................
.............................. CYCLE    8 ..............................
........................................................................

 iter      E             dE          RMSdq      gap      omega  full diag
   1   -106.2882988 -0.106288E+03  0.845E-02    2.66       0.0  T
   2   -106.2883017 -0.296236E-05  0.499E-02    2.67       1.0  T
   3   -106.2882952  0.656648E-05  0.102E-02    2.66       1.2  T
   4   -106.2883029 -0.776624E-05  0.243E-03    2.67       4.9  T
   5   -106.2883031 -0.185704E-06  0.123E-03    2.66       9.7  T
   6   -106.2883031 -0.895865E-08  0.680E-04    2.66      17.5  T
   7   -106.2883031 -0.165009E-07  0.199E-04    2.66      59.6  T
     SCC iter.                  ...        0 min,  0.032 sec
     gradient                   ...        0 min,  0.013 sec
 * total energy  :  -104.8326666 Eh     change       -0.5366732E-03 Eh
   gradient norm :     0.0077233 Eh/α   predicted    -0.4573500E-03 ( -14.78%)
   displ. norm   :     0.4178513 α      lambda       -0.5937127E-03
   maximum displ.:     0.1904327 α      in ANC's #14, #12, #15, ...

........................................................................
.............................. CYCLE    9 ..............................
........................................................................

 iter      E             dE          RMSdq      gap      omega  full diag
   1   -106.2893874 -0.106289E+03  0.845E-02    2.68       0.0  T
   2   -106.2893905 -0.309657E-05  0.497E-02    2.68       1.0  T
   3   -106.2893863  0.424943E-05  0.864E-03    2.67       1.4  T
   4   -106.2893912 -0.490041E-05  0.258E-03    2.67       4.6  T
   5   -106.2893915 -0.311667E-06  0.103E-03    2.67      11.5  T
   6   -106.2893915 -0.123850E-08  0.587E-04    2.67      20.2  T
   7   -106.2893915 -0.129604E-07  0.148E-04    2.68      80.1  T
     SCC iter.                  ...        0 min,  0.037 sec
     gradient                   ...        0 min,  0.023 sec
 * total energy  :  -104.8331159 Eh     change       -0.4493319E-03 Eh
   gradient norm :     0.0071300 Eh/α   predicted    -0.3486966E-03 ( -22.40%)
   displ. norm   :     0.4677103 α      lambda       -0.5531062E-03
   maximum displ.:     0.1948507 α      in ANC's #14, #12, #15, ...

........................................................................
.............................. CYCLE   10 ..............................
........................................................................

 iter      E             dE          RMSdq      gap      omega  full diag
   1   -106.2884955 -0.106288E+03  0.976E-02    2.67       0.0  T
   2   -106.2884977 -0.223311E-05  0.574E-02    2.67       1.0  T
   3   -106.2884967  0.102274E-05  0.560E-03    2.67       2.1  T
   4   -106.2884984 -0.170808E-05  0.210E-03    2.67       5.6  T
   5   -106.2884985 -0.126232E-06  0.111E-03    2.67      10.7  T
   6   -106.2884986 -0.144613E-07  0.492E-04    2.67      24.1  T
   7   -106.2884986 -0.685473E-08  0.154E-04    2.67      76.9  T
     SCC iter.                  ...        0 min,  0.030 sec
     gradient                   ...        0 min,  0.008 sec
 * total energy  :  -104.8335305 Eh     change       -0.4145736E-03 Eh
   gradient norm :     0.0064338 Eh/α   predicted    -0.3370694E-03 ( -18.69%)
   displ. norm   :     0.4803853 α      lambda       -0.5028691E-03
   maximum displ.:     0.2070291 α      in ANC's #12, #14, #15, ...

........................................................................
.............................. CYCLE   11 ..............................
........................................................................

 iter      E             dE          RMSdq      gap      omega  full diag
   1   -106.2889631 -0.106289E+03  0.103E-01    2.70       0.0  T
   2   -106.2889701 -0.694436E-05  0.606E-02    2.69       1.0  T
   3   -106.2889684  0.172603E-05  0.694E-03    2.69       1.7  T
   4   -106.2889704 -0.206022E-05  0.338E-03    2.69       3.5  T
   5   -106.2889711 -0.630038E-06  0.122E-03    2.69       9.7  T
   6   -106.2889711 -0.190506E-07  0.627E-04    2.69      18.9  T
   7   -106.2889711 -0.607834E-08  0.170E-04    2.69      69.7  T
     SCC iter.                  ...        0 min,  0.032 sec
     gradient                   ...        0 min,  0.022 sec
 * total energy  :  -104.8338515 Eh     change       -0.3210515E-03 Eh
   gradient norm :     0.0105632 Eh/α   predicted    -0.3094610E-03 (  -3.61%)
   displ. norm   :     0.4291488 α      lambda       -0.4080288E-03
   maximum displ.:     0.1915611 α      in ANC's #12, #10, #15, ...

........................................................................
.............................. CYCLE   12 ..............................
........................................................................

 iter      E             dE          RMSdq      gap      omega  full diag
   1   -106.2864567 -0.106286E+03  0.973E-02    2.67       0.0  T
   2   -106.2864628 -0.614720E-05  0.572E-02    2.67       1.0  T
   3   -106.2864613  0.150404E-05  0.650E-03    2.68       1.8  T
   4   -106.2864630 -0.169961E-05  0.337E-03    2.68       3.5  T
   5   -106.2864636 -0.641833E-06  0.109E-03    2.68      10.9  T
   6   -106.2864636 -0.760927E-08  0.547E-04    2.68      21.7  T
   7   -106.2864637 -0.536404E-08  0.147E-04    2.68      80.5  T
     SCC iter.                  ...        0 min,  0.068 sec
     gradient                   ...        0 min,  0.019 sec
 * total energy  :  -104.8341231 Eh     change       -0.2715417E-03 Eh
   gradient norm :     0.0076021 Eh/α   predicted    -0.2416009E-03 ( -11.03%)
   displ. norm   :     0.3408717 α      lambda       -0.3588567E-03
   maximum displ.:     0.1612651 α      in ANC's #12, #10, #4, ...

........................................................................
.............................. CYCLE   13 ..............................
........................................................................

 iter      E             dE          RMSdq      gap      omega  full diag
   1   -106.2902723 -0.106290E+03  0.797E-02    2.68       0.0  T
   2   -106.2902758 -0.354511E-05  0.469E-02    2.68       1.0  T
   3   -106.2902700  0.582694E-05  0.101E-02    2.68       1.2  T
   4   -106.2902764 -0.639336E-05  0.267E-03    2.68       4.4  T
   5   -106.2902767 -0.370439E-06  0.834E-04    2.68      14.2  T
   6   -106.2902768 -0.595237E-08  0.468E-04    2.68      25.4  T
     SCC iter.                  ...        0 min,  0.058 sec
     gradient                   ...        0 min,  0.010 sec
 * total energy  :  -104.8343886 Eh     change       -0.2655187E-03 Eh
   gradient norm :     0.0086987 Eh/α   predicted    -0.2002824E-03 ( -24.57%)
   displ. norm   :     0.4813040 α      lambda       -0.5102822E-03
   maximum displ.:     0.2278942 α      in ANC's #10, #12, #7, ...

........................................................................
.............................. CYCLE   14 ..............................
........................................................................

 iter      E             dE          RMSdq      gap      omega  full diag
   1   -106.2910396 -0.106291E+03  0.114E-01    2.68       0.0  T
   2   -106.2910439 -0.432385E-05  0.672E-02    2.68       1.0  T
   3   -106.2910414  0.253531E-05  0.685E-03    2.68       1.7  T
   4   -106.2910449 -0.352637E-05  0.211E-03    2.68       5.6  T
   5   -106.2910451 -0.170155E-06  0.109E-03    2.68      10.9  T
   6   -106.2910451 -0.139168E-07  0.508E-04    2.68      23.4  T
   7   -106.2910451 -0.868918E-08  0.173E-04    2.68      68.4  T
     SCC iter.                  ...        0 min,  0.068 sec
     gradient                   ...        0 min,  0.017 sec
 * total energy  :  -104.8347415 Eh     change       -0.3528704E-03 Eh
   gradient norm :     0.0074621 Eh/α   predicted    -0.3142514E-03 ( -10.94%)
   displ. norm   :     0.4714023 α      lambda       -0.4235443E-03
   maximum displ.:     0.2484850 α      in ANC's #10, #12, #4, ...

........................................................................
.............................. CYCLE   15 ..............................
........................................................................

 iter      E             dE          RMSdq      gap      omega  full diag
   1   -106.2898016 -0.106290E+03  0.110E-01    2.68       0.0  T
   2   -106.2898039 -0.228085E-05  0.648E-02    2.68       1.0  T
   3   -106.2897965  0.744627E-05  0.108E-02    2.68       1.1  T
   4   -106.2898051 -0.866554E-05  0.204E-03    2.68       5.8  T
   5   -106.2898052 -0.101181E-06  0.110E-03    2.68      10.8  T
   6   -106.2898052 -0.773225E-08  0.511E-04    2.68      23.2  T
   7   -106.2898052 -0.109276E-07  0.125E-04    2.68      95.2  T
     SCC iter.                  ...        0 min,  0.070 sec
     gradient                   ...        0 min,  0.011 sec
 * total energy  :  -104.8350770 Eh     change       -0.3355440E-03 Eh
   gradient norm :     0.0070201 Eh/α   predicted    -0.2588427E-03 ( -22.86%)
   displ. norm   :     0.4946704 α      lambda       -0.5088986E-03
   maximum displ.:     0.2611274 α      in ANC's #10, #12, #7, ...

........................................................................
.............................. CYCLE   16 ..............................
........................................................................

 iter      E             dE          RMSdq      gap      omega  full diag
   1   -106.2933217 -0.106293E+03  0.113E-01    2.68       0.0  T
   2   -106.2933244 -0.271612E-05  0.664E-02    2.68       1.0  T
   3   -106.2933208  0.359130E-05  0.746E-03    2.68       1.6  T
   4   -106.2933254 -0.461402E-05  0.202E-03    2.68       5.9  T
   5   -106.2933255 -0.110802E-06  0.112E-03    2.68      10.6  T
   6   -106.2933255 -0.196673E-07  0.505E-04    2.68      23.5  T
   7   -106.2933255 -0.634054E-08  0.182E-04    2.68      65.0  T
     SCC iter.                  ...        0 min,  0.054 sec
     gradient                   ...        0 min,  0.012 sec
 * total energy  :  -104.8354510 Eh     change       -0.3739837E-03 Eh
   gradient norm :     0.0078213 Eh/α   predicted    -0.3167199E-03 ( -15.31%)
   displ. norm   :     0.6611530 α      lambda       -0.5192164E-03
   maximum displ.:     0.3554332 α      in ANC's #10, #12, #4, ...

........................................................................
.............................. CYCLE   17 ..............................
........................................................................

 iter      E             dE          RMSdq      gap      omega  full diag
   1   -106.2828496 -0.106283E+03  0.149E-01    2.68       0.0  T
   2   -106.2828538 -0.424741E-05  0.875E-02    2.67       1.0  T
   3   -106.2828503  0.353402E-05  0.884E-03    2.67       1.3  T
   4   -106.2828552 -0.489475E-05  0.294E-03    2.67       4.0  T
   5   -106.2828554 -0.244935E-06  0.154E-03    2.67       7.7  T
   6   -106.2828555 -0.323933E-07  0.642E-04    2.67      18.5  T
   7   -106.2828555 -0.956599E-08  0.175E-04    2.67      67.8  T
     SCC iter.                  ...        0 min,  0.029 sec
     gradient                   ...        0 min,  0.012 sec
 * total energy  :  -104.8357844 Eh     change       -0.3333737E-03 Eh
   gradient norm :     0.0105813 Eh/α   predicted    -0.3730930E-03 (  11.91%)
   displ. norm   :     0.3735537 α      lambda       -0.5318887E-03
   maximum displ.:     0.1776061 α      in ANC's #10, #14, #5, ...

........................................................................
.............................. CYCLE   18 ..............................
........................................................................

 iter      E             dE          RMSdq      gap      omega  full diag
   1   -106.2881220 -0.106288E+03  0.730E-02    2.67       0.0  T
   2   -106.2881244 -0.234409E-05  0.433E-02    2.68       1.0  T
   3   -106.2881183  0.604876E-05  0.103E-02    2.68       1.2  T
   4   -106.2881252 -0.684908E-05  0.223E-03    2.68       5.3  T
   5   -106.2881254 -0.197578E-06  0.984E-04    2.68      12.1  T
   6   -106.2881254 -0.120927E-07  0.488E-04    2.68      24.3  T
     SCC iter.                  ...        0 min,  0.025 sec
     gradient                   ...        0 min,  0.014 sec
 * total energy  :  -104.8360949 Eh     change       -0.3104882E-03 Eh
   gradient norm :     0.0085179 Eh/α   predicted    -0.3030598E-03 (  -2.39%)
   displ. norm   :     0.4582951 α      lambda       -0.3729366E-03
   maximum displ.:     0.2262604 α      in ANC's #10, #12, #4, ...

........................................................................
.............................. CYCLE   19 ..............................
........................................................................

 iter      E             dE          RMSdq      gap      omega  full diag
   1   -106.2872069 -0.106287E+03  0.960E-02    2.68       0.0  T
   2   -106.2872089 -0.199030E-05  0.565E-02    2.68       1.0  T
   3   -106.2872070  0.185705E-05  0.650E-03    2.68       1.8  T
   4   -106.2872094 -0.241499E-05  0.215E-03    2.68       5.5  T
   5   -106.2872096 -0.160632E-06  0.104E-03    2.68      11.4  T
   6   -106.2872096 -0.876919E-08  0.393E-04    2.68      30.2  T
   7   -106.2872096 -0.384220E-08  0.118E-04    2.68     101.0  T
     SCC iter.                  ...        0 min,  0.030 sec
     gradient                   ...        0 min,  0.012 sec
 * total energy  :  -104.8363701 Eh     change       -0.2752703E-03 Eh
   gradient norm :     0.0083350 Eh/α   predicted    -0.2256364E-03 ( -18.03%)
   displ. norm   :     0.4445872 α      lambda       -0.4732596E-03
   maximum displ.:     0.2013866 α      in ANC's #10, #4, #5, ...

........................................................................
.............................. CYCLE   20 ..............................
........................................................................

 iter      E             dE          RMSdq      gap      omega  full diag
   1   -106.2924081 -0.106292E+03  0.876E-02    2.68       0.0  T
   2   -106.2924106 -0.243532E-05  0.515E-02    2.68       1.0  T
   3   -106.2924089  0.167293E-05  0.567E-03    2.68       2.1  T
   4   -106.2924109 -0.206022E-05  0.232E-03    2.68       5.1  T
   5   -106.2924112 -0.260841E-06  0.948E-04    2.68      12.5  T
   6   -106.2924112 -0.495125E-08  0.447E-04    2.68      26.5  T
     SCC iter.                  ...        0 min,  0.026 sec
     gradient                   ...        0 min,  0.010 sec
 * total energy  :  -104.8366866 Eh     change       -0.3164712E-03 Eh
   gradient norm :     0.0068393 Eh/α   predicted    -0.2834042E-03 ( -10.45%)
   displ. norm   :     0.5582805 α      lambda       -0.3735453E-03
   maximum displ.:     0.2539294 α      in ANC's #10, #4, #5, ...
 * RMSD in coord.:     0.7864551 α      energy gain  -0.6401705E-01 Eh

generating ANC from exact Hessian ...
Using Lindh-Hessian (1995)
 Shifting diagonal of input Hessian by   9.974318946455838E-003
 Lowest  eigenvalues of input Hessian
    0.000000    0.000000    0.000000    0.000000    0.000000    0.000000
    0.010000    0.010103    0.010166    0.010169    0.010272    0.010408
    0.010502    0.010769    0.011124    0.011254    0.011452    0.011685
 Highest eigenvalues
    2.007013    2.012413    2.116363    2.118562    2.363752    2.380334
 

........................................................................
.............................. CYCLE   21 ..............................
........................................................................

 iter      E             dE          RMSdq      gap      omega  full diag
   1   -106.2893432 -0.106289E+03  0.108E-01    2.67       0.0  T
   2   -106.2893466 -0.341560E-05  0.637E-02    2.67       1.0  T
   3   -106.2893463  0.335389E-06  0.465E-03    2.67       2.6  T
   4   -106.2893472 -0.892419E-06  0.223E-03    2.67       5.3  T
   5   -106.2893474 -0.169051E-06  0.114E-03    2.67      10.4  T
   6   -106.2893474 -0.160310E-07  0.531E-04    2.67      22.3  T
   7   -106.2893474 -0.870119E-08  0.131E-04    2.67      90.8  T
     SCC iter.                  ...        0 min,  0.030 sec
     gradient                   ...        0 min,  0.011 sec
 * total energy  :  -104.8369326 Eh     change       -0.2459551E-03 Eh
   gradient norm :     0.0097925 Eh/α   predicted     0.0000000E+00 (-100.00%)
   displ. norm   :     0.0756821 α      lambda       -0.2441231E-03
   maximum displ.:     0.0369650 α      in ANC's #5, #25, #14, ...

........................................................................
.............................. CYCLE   22 ..............................
........................................................................

 iter      E             dE          RMSdq      gap      omega  full diag
   1   -106.2943829 -0.106294E+03  0.209E-02    2.68       0.0  T
   2   -106.2943841 -0.121376E-05  0.122E-02    2.68       1.0  T
   3   -106.2943836  0.494334E-06  0.371E-03    2.68       3.2  T
   4   -106.2943842 -0.572979E-06  0.136E-03    2.68       8.7  T
   5   -106.2943843 -0.107646E-06  0.460E-04    2.68      25.8  T
   6   -106.2943843 -0.338089E-08  0.267E-04    2.68      44.4  T
     SCC iter.                  ...        0 min,  0.030 sec
     gradient                   ...        0 min,  0.013 sec
 * total energy  :  -104.8371084 Eh     change       -0.1758580E-03 Eh
   gradient norm :     0.0036138 Eh/α   predicted    -0.1228066E-03 ( -30.17%)
   displ. norm   :     0.1430853 α      lambda       -0.1816181E-03
   maximum displ.:     0.0754687 α      in ANC's #5, #25, #14, ...

........................................................................
.............................. CYCLE   23 ..............................
........................................................................

 iter      E             dE          RMSdq      gap      omega  full diag
   1   -106.2976010 -0.106298E+03  0.287E-02    2.69       0.0  T
   2   -106.2976019 -0.875935E-06  0.170E-02    2.69       1.0  T
   3   -106.2976007  0.114827E-05  0.462E-03    2.69       2.6  T
   4   -106.2976021 -0.130528E-05  0.138E-03    2.69       8.6  T
   5   -106.2976021 -0.924455E-07  0.525E-04    2.69      22.6  T
   6   -106.2976022 -0.412749E-08  0.287E-04    2.69      41.3  T
     SCC iter.                  ...        0 min,  0.026 sec
     gradient                   ...        0 min,  0.013 sec
 * total energy  :  -104.8372430 Eh     change       -0.1345797E-03 Eh
   gradient norm :     0.0029968 Eh/α   predicted    -0.9267435E-04 ( -31.14%)
   displ. norm   :     0.2727240 α      lambda       -0.2295708E-03
   maximum displ.:     0.1364999 α      in ANC's #5, #25, #29, ...

........................................................................
.............................. CYCLE   24 ..............................
........................................................................

 iter      E             dE          RMSdq      gap      omega  full diag
   1   -106.2984051 -0.106298E+03  0.493E-02    2.70       0.0  T
   2   -106.2984062 -0.114849E-05  0.292E-02    2.70       1.0  T
   3   -106.2984041  0.214565E-05  0.628E-03    2.70       1.9  T
   4   -106.2984066 -0.251832E-05  0.170E-03    2.70       7.0  T
   5   -106.2984067 -0.106161E-06  0.813E-04    2.70      14.6  T
   6   -106.2984067 -0.502611E-08  0.382E-04    2.70      31.1  T
     SCC iter.                  ...        0 min,  0.025 sec
     gradient                   ...        0 min,  0.012 sec
 * total energy  :  -104.8374391 Eh     change       -0.1961135E-03 Eh
   gradient norm :     0.0061089 Eh/α   predicted    -0.1234250E-03 ( -37.06%)
   displ. norm   :     0.6132507 α      lambda       -0.4802761E-03
   maximum displ.:     0.2963906 α      in ANC's #5, #25, #29, ...

........................................................................
.............................. CYCLE   25 ..............................
........................................................................

 iter      E             dE          RMSdq      gap      omega  full diag
   1   -106.2925471 -0.106293E+03  0.111E-01    2.71       0.0  T
   2   -106.2925584 -0.112531E-04  0.648E-02    2.71       1.0  T
   3   -106.2925501  0.824723E-05  0.140E-02    2.71       1.0  T
   4   -106.2925595 -0.934733E-05  0.515E-03    2.71       2.3  T
   5   -106.2925608 -0.136702E-05  0.193E-03    2.71       6.1  T
   6   -106.2925608 -0.156666E-08  0.868E-04    2.71      13.7  T
   7   -106.2925609 -0.307435E-07  0.216E-04    2.71      55.0  T
     SCC iter.                  ...        0 min,  0.029 sec
     gradient                   ...        0 min,  0.012 sec
 * total energy  :  -104.8376791 Eh     change       -0.2399431E-03 Eh
   gradient norm :     0.0138341 Eh/α   predicted    -0.3304629E-03 (  37.73%)
   displ. norm   :     0.0602993 α      lambda       -0.2953587E-03
   maximum displ.:     0.0256300 α      in ANC's #5, #10, #20, ...

........................................................................
.............................. CYCLE   26 ..............................
........................................................................

 iter      E             dE          RMSdq      gap      omega  full diag
   1   -106.2936094 -0.106294E+03  0.220E-02    2.71       0.0  T
   2   -106.2936115 -0.211425E-05  0.125E-02    2.71       1.0  T
   3   -106.2936114  0.106550E-06  0.371E-03    2.71       3.2  T
   4   -106.2936116 -0.194357E-06  0.125E-03    2.71       9.5  T
   5   -106.2936117 -0.977287E-07  0.476E-04    2.71      24.9  T
   6   -106.2936117 -0.129457E-08  0.275E-04    2.71      43.1  T
     SCC iter.                  ...        0 min,  0.026 sec
     gradient                   ...        0 min,  0.011 sec
 * total energy  :  -104.8378921 Eh     change       -0.2130407E-03 Eh
   gradient norm :     0.0074519 Eh/α   predicted    -0.1482294E-03 ( -30.42%)
   displ. norm   :     0.4013068 α      lambda       -0.4298399E-03
   maximum displ.:     0.2325555 α      in ANC's #5, #25, #10, ...

........................................................................
.............................. CYCLE   27 ..............................
........................................................................

 iter      E             dE          RMSdq      gap      omega  full diag
   1   -106.2907797 -0.106291E+03  0.790E-02    2.71       0.0  T
   2   -106.2907819 -0.215327E-05  0.466E-02    2.71       1.0  T
   3   -106.2907754  0.643940E-05  0.106E-02    2.71       1.1  T
   4   -106.2907829 -0.748580E-05  0.234E-03    2.71       5.1  T
   5   -106.2907831 -0.165040E-06  0.119E-03    2.71      10.0  T
   6   -106.2907831 -0.830201E-08  0.526E-04    2.71      22.6  T
   7   -106.2907831 -0.652999E-08  0.161E-04    2.71      73.9  T
     SCC iter.                  ...        0 min,  0.031 sec
     gradient                   ...        0 min,  0.011 sec
 * total energy  :  -104.8382074 Eh     change       -0.3153128E-03 Eh
   gradient norm :     0.0056259 Eh/α   predicted    -0.2495334E-03 ( -20.86%)
   displ. norm   :     0.4245614 α      lambda       -0.3081538E-03
   maximum displ.:     0.2494766 α      in ANC's #5, #25, #10, ...

........................................................................
.............................. CYCLE   28 ..............................
........................................................................

 iter      E             dE          RMSdq      gap      omega  full diag
   1   -106.2892689 -0.106289E+03  0.792E-02    2.72       0.0  T
   2   -106.2892717 -0.278726E-05  0.467E-02    2.72       1.0  T
   3   -106.2892635  0.818695E-05  0.121E-02    2.72       1.0  T
   4   -106.2892728 -0.931573E-05  0.241E-03    2.72       4.9  T
   5   -106.2892730 -0.207131E-06  0.115E-03    2.72      10.4  T
   6   -106.2892731 -0.580773E-08  0.545E-04    2.72      21.8  T
   7   -106.2892731 -0.550504E-08  0.139E-04    2.72      85.2  T
     SCC iter.                  ...        0 min,  0.031 sec
     gradient                   ...        0 min,  0.011 sec
 * total energy  :  -104.8384285 Eh     change       -0.2210598E-03 Eh
   gradient norm :     0.0089525 Eh/α   predicted    -0.1818580E-03 ( -17.73%)
   displ. norm   :     0.3360567 α      lambda       -0.2907323E-03
   maximum displ.:     0.2073343 α      in ANC's #5, #10, #25, ...

........................................................................
.............................. CYCLE   29 ..............................
........................................................................

 iter      E             dE          RMSdq      gap      omega  full diag
   1   -106.2934514 -0.106293E+03  0.605E-02    2.73       0.0  T
   2   -106.2934531 -0.175830E-05  0.357E-02    2.73       1.0  T
   3   -106.2934487  0.441712E-05  0.870E-03    2.72       1.4  T
   4   -106.2934537 -0.497794E-05  0.201E-03    2.72       5.9  T
   5   -106.2934539 -0.165983E-06  0.825E-04    2.72      14.4  T
   6   -106.2934539 -0.358320E-08  0.421E-04    2.72      28.2  T
     SCC iter.                  ...        0 min,  0.027 sec
     gradient                   ...        0 min,  0.012 sec
 * total energy  :  -104.8386343 Eh     change       -0.2058197E-03 Eh
   gradient norm :     0.0087972 Eh/α   predicted    -0.1617836E-03 ( -21.40%)
   displ. norm   :     0.4593105 α      lambda       -0.2905483E-03
   maximum displ.:     0.2813969 α      in ANC's #5, #10, #25, ...

........................................................................
.............................. CYCLE   30 ..............................
........................................................................

 iter      E             dE          RMSdq      gap      omega  full diag
   1   -106.2925771 -0.106293E+03  0.790E-02    2.72       0.0  T
   2   -106.2925795 -0.234331E-05  0.466E-02    2.72       1.0  T
   3   -106.2925783  0.121083E-05  0.576E-03    2.72       2.1  T
   4   -106.2925799 -0.163288E-05  0.241E-03    2.72       4.9  T
   5   -106.2925802 -0.245826E-06  0.108E-03    2.72      11.0  T
   6   -106.2925802 -0.441793E-08  0.406E-04    2.72      29.3  T
   7   -106.2925802 -0.559902E-08  0.125E-04    2.72      94.7  T
     SCC iter.                  ...        0 min,  0.044 sec
     gradient                   ...        0 min,  0.020 sec
 * total energy  :  -104.8388318 Eh     change       -0.1975016E-03 Eh
   gradient norm :     0.0111206 Eh/α   predicted    -0.1759268E-03 ( -10.92%)
   displ. norm   :     0.3650111 α      lambda       -0.4257974E-03
   maximum displ.:     0.2237225 α      in ANC's #5, #10, #15, ...

........................................................................
.............................. CYCLE   31 ..............................
........................................................................

 iter      E             dE          RMSdq      gap      omega  full diag
   1   -106.2998490 -0.106300E+03  0.607E-02    2.74       0.0  T
   2   -106.2998525 -0.349794E-05  0.358E-02    2.74       1.0  T
   3   -106.2998509  0.159674E-05  0.586E-03    2.74       2.0  T
   4   -106.2998527 -0.186025E-05  0.220E-03    2.74       5.4  T
   5   -106.2998530 -0.272880E-06  0.859E-04    2.74      13.8  T
   6   -106.2998530 -0.106406E-07  0.474E-04    2.74      25.0  T
     SCC iter.                  ...        0 min,  0.032 sec
     gradient                   ...        0 min,  0.012 sec
 * total energy  :  -104.8390684 Eh     change       -0.2366508E-03 Eh
   gradient norm :     0.0065998 Eh/α   predicted    -0.2412769E-03 (   1.95%)
   displ. norm   :     0.4543383 α      lambda       -0.2356146E-03
   maximum displ.:     0.2894790 α      in ANC's #5, #10, #8, ...

........................................................................
.............................. CYCLE   32 ..............................
........................................................................

 iter      E             dE          RMSdq      gap      omega  full diag
   1   -106.2955740 -0.106296E+03  0.760E-02    2.73       0.0  T
   2   -106.2955764 -0.236797E-05  0.448E-02    2.74       1.0  T
   3   -106.2955756  0.813475E-06  0.522E-03    2.73       2.3  T
   4   -106.2955769 -0.126759E-05  0.214E-03    2.74       5.6  T
   5   -106.2955770 -0.165379E-06  0.109E-03    2.74      10.9  T
   6   -106.2955770 -0.106799E-07  0.482E-04    2.73      24.6  T
   7   -106.2955770 -0.776855E-08  0.131E-04    2.73      90.4  T
     SCC iter.                  ...        0 min,  0.029 sec
     gradient                   ...        0 min,  0.015 sec
 * total energy  :  -104.8392219 Eh     change       -0.1534876E-03 Eh
   gradient norm :     0.0074865 Eh/α   predicted    -0.1421255E-03 (  -7.40%)
   displ. norm   :     0.2719206 α      lambda       -0.1938799E-03
   maximum displ.:     0.1805273 α      in ANC's #5, #10, #8, ...

........................................................................
.............................. CYCLE   33 ..............................
........................................................................

 iter      E             dE          RMSdq      gap      omega  full diag
   1   -106.2953462 -0.106295E+03  0.467E-02    2.74       0.0  T
   2   -106.2953479 -0.172271E-05  0.275E-02    2.74       1.0  T
   3   -106.2953462  0.170046E-05  0.567E-03    2.75       2.1  T
   4   -106.2953481 -0.191126E-05  0.181E-03    2.74       6.6  T
   5   -106.2953483 -0.172638E-06  0.672E-04    2.74      17.6  T
   6   -106.2953483 -0.929971E-08  0.346E-04    2.74      34.3  T
     SCC iter.                  ...        0 min,  0.036 sec
     gradient                   ...        0 min,  0.011 sec
 * total energy  :  -104.8393706 Eh     change       -0.1486743E-03 Eh
   gradient norm :     0.0054351 Eh/α   predicted    -0.1041086E-03 ( -29.98%)
   displ. norm   :     0.3432538 α      lambda       -0.2007555E-03
   maximum displ.:     0.2338915 α      in ANC's #5, #10, #2, ...

........................................................................
.............................. CYCLE   34 ..............................
........................................................................

 iter      E             dE          RMSdq      gap      omega  full diag
   1   -106.2965394 -0.106297E+03  0.601E-02    2.75       0.0  T
   2   -106.2965409 -0.151381E-05  0.354E-02    2.75       1.0  T
   3   -106.2965383  0.264451E-05  0.683E-03    2.75       1.7  T
   4   -106.2965413 -0.300395E-05  0.196E-03    2.75       6.0  T
   5   -106.2965414 -0.169846E-06  0.788E-04    2.75      15.1  T
   6   -106.2965415 -0.671645E-08  0.355E-04    2.75      33.4  T
     SCC iter.                  ...        0 min,  0.028 sec
     gradient                   ...        0 min,  0.010 sec
 * total energy  :  -104.8395157 Eh     change       -0.1450835E-03 Eh
   gradient norm :     0.0048117 Eh/α   predicted    -0.1122059E-03 ( -22.66%)
   displ. norm   :     0.4421045 α      lambda       -0.1554433E-03
   maximum displ.:     0.3052675 α      in ANC's #5, #10, #2, ...

........................................................................
.............................. CYCLE   35 ..............................
........................................................................

 iter      E             dE          RMSdq      gap      omega  full diag
   1   -106.2954873 -0.106295E+03  0.741E-02    2.75       0.0  T
   2   -106.2954887 -0.144035E-05  0.437E-02    2.75       1.0  T
   3   -106.2954882  0.484506E-06  0.403E-03    2.75       2.9  T
   4   -106.2954889 -0.733666E-06  0.202E-03    2.75       5.9  T
   5   -106.2954891 -0.169579E-06  0.867E-04    2.75      13.7  T
   6   -106.2954891 -0.359692E-08  0.300E-04    2.75      39.5  T
     SCC iter.                  ...        0 min,  0.032 sec
     gradient                   ...        0 min,  0.012 sec
 * total energy  :  -104.8396332 Eh     change       -0.1174732E-03 Eh
   gradient norm :     0.0052895 Eh/α   predicted    -0.9291346E-04 ( -20.91%)
   displ. norm   :     0.3959089 α      lambda       -0.1966325E-03
   maximum displ.:     0.2739881 α      in ANC's #5, #10, #2, ...

........................................................................
.............................. CYCLE   36 ..............................
........................................................................

 iter      E             dE          RMSdq      gap      omega  full diag
   1   -106.3003611 -0.106300E+03  0.761E-02    2.75       0.0  T
   2   -106.3003633 -0.226110E-05  0.447E-02    2.75       1.0  T
   3   -106.3003605  0.281475E-05  0.759E-03    2.76       1.6  T
   4   -106.3003638 -0.332518E-05  0.221E-03    2.75       5.4  T
   5   -106.3003640 -0.201678E-06  0.102E-03    2.75      11.7  T
   6   -106.3003641 -0.999013E-08  0.433E-04    2.75      27.4  T
   7   -106.3003641 -0.324314E-08  0.139E-04    2.75      85.5  T
     SCC iter.                  ...        0 min,  0.037 sec
     gradient                   ...        0 min,  0.012 sec
 * total energy  :  -104.8397325 Eh     change       -0.9930346E-04 Eh
   gradient norm :     0.0055811 Eh/α   predicted    -0.1137347E-03 (  14.53%)
   displ. norm   :     0.5863990 α      lambda       -0.2074574E-03
   maximum displ.:     0.4057177 α      in ANC's #5, #10, #2, ...

........................................................................
.............................. CYCLE   37 ..............................
........................................................................

 iter      E             dE          RMSdq      gap      omega  full diag
   1   -106.2945274 -0.106295E+03  0.100E-01    2.76       0.0  T
   2   -106.2945326 -0.520030E-05  0.590E-02    2.75       1.0  T
   3   -106.2945301  0.255624E-05  0.808E-03    2.75       1.5  T
   4   -106.2945333 -0.319167E-05  0.329E-03    2.75       3.6  T
   5   -106.2945337 -0.473779E-06  0.139E-03    2.75       8.5  T
   6   -106.2945338 -0.286374E-07  0.693E-04    2.75      17.1  T
   7   -106.2945338 -0.656148E-08  0.205E-04    2.75      57.9  T
     SCC iter.                  ...        0 min,  0.034 sec
     gradient                   ...        0 min,  0.012 sec
 * total energy  :  -104.8398128 Eh     change       -0.8028855E-04 Eh
   gradient norm :     0.0072330 Eh/α   predicted    -0.1393988E-03 (  73.62%)
   displ. norm   :     0.0609638 α      lambda       -0.1103612E-03
   maximum displ.:     0.0218759 α      in ANC's #10, #9, #15, ...

........................................................................
.............................. CYCLE   38 ..............................
........................................................................

 iter      E             dE          RMSdq      gap      omega  full diag
   1   -106.2973852 -0.106297E+03  0.179E-02    2.75       0.0  T
   2   -106.2973859 -0.705363E-06  0.105E-02    2.75       1.1  T
   3   -106.2973856  0.292940E-06  0.285E-03    2.75       4.2  T
   4   -106.2973859 -0.302499E-06  0.117E-03    2.75      10.2  T
   5   -106.2973860 -0.821870E-07  0.326E-04    2.75      36.4  T
   6   -106.2973860 -0.170256E-08  0.161E-04    2.75      73.7  T
     SCC iter.                  ...        0 min,  0.026 sec
     gradient                   ...        0 min,  0.012 sec
 * total energy  :  -104.8398877 Eh     change       -0.7499007E-04 Eh
   gradient norm :     0.0036285 Eh/α   predicted    -0.5539031E-04 ( -26.14%)
   displ. norm   :     0.2919799 α      lambda       -0.1153470E-03
   maximum displ.:     0.1877208 α      in ANC's #5, #2, #10, ...

........................................................................
.............................. CYCLE   39 ..............................
........................................................................

 iter      E             dE          RMSdq      gap      omega  full diag
   1   -106.2987236 -0.106299E+03  0.591E-02    2.74       0.0  T
   2   -106.2987250 -0.136350E-05  0.348E-02    2.74       1.0  T
   3   -106.2987202  0.476953E-05  0.892E-03    2.74       1.3  T
   4   -106.2987255 -0.525955E-05  0.150E-03    2.74       7.9  T
   5   -106.2987256 -0.101532E-06  0.555E-04    2.74      21.4  T
   6   -106.2987256 -0.404413E-09  0.258E-04    2.74      46.1  T
     SCC iter.                  ...        0 min,  0.026 sec
     gradient                   ...        0 min,  0.012 sec
 * total energy  :  -104.8399641 Eh     change       -0.7635040E-04 Eh
   gradient norm :     0.0038154 Eh/α   predicted    -0.6259230E-04 ( -18.02%)
   displ. norm   :     0.4367783 α      lambda       -0.1136416E-03
   maximum displ.:     0.2828698 α      in ANC's #5, #2, #7, ...

........................................................................
.............................. CYCLE   40 ..............................
........................................................................

 iter      E             dE          RMSdq      gap      omega  full diag
   1   -106.2972924 -0.106297E+03  0.895E-02    2.73       0.0  T
   2   -106.2972941 -0.175909E-05  0.528E-02    2.73       1.0  T
   3   -106.2972878  0.631388E-05  0.103E-02    2.73       1.2  T
   4   -106.2972950 -0.719782E-05  0.195E-03    2.73       6.1  T
   5   -106.2972951 -0.111009E-06  0.953E-04    2.73      12.5  T
   6   -106.2972951 -0.467365E-08  0.346E-04    2.73      34.3  T
     SCC iter.                  ...        0 min,  0.032 sec
     gradient                   ...        0 min,  0.012 sec
 * total energy  :  -104.8400348 Eh     change       -0.7072122E-04 Eh
   gradient norm :     0.0055308 Eh/α   predicted    -0.6766625E-04 (  -4.32%)
   displ. norm   :     0.3604746 α      lambda       -0.9943457E-04
   maximum displ.:     0.2143770 α      in ANC's #5, #2, #1, ...

........................................................................
.............................. CYCLE   41 ..............................
........................................................................

 iter      E             dE          RMSdq      gap      omega  full diag
   1   -106.2975221 -0.106298E+03  0.770E-02    2.72       0.0  T
   2   -106.2975239 -0.182250E-05  0.453E-02    2.72       1.0  T
   3   -106.2975219  0.202298E-05  0.613E-03    2.72       1.9  T
   4   -106.2975242 -0.233049E-05  0.197E-03    2.72       6.0  T
   5   -106.2975244 -0.182793E-06  0.743E-04    2.72      16.0  T
   6   -106.2975244 -0.428611E-08  0.366E-04    2.72      32.4  T
     SCC iter.                  ...        0 min,  0.032 sec
     gradient                   ...        0 min,  0.012 sec
 * total energy  :  -104.8400877 Eh     change       -0.5292335E-04 Eh
   gradient norm :     0.0047685 Eh/α   predicted    -0.5618159E-04 (   6.16%)
   displ. norm   :     0.2418355 α      lambda       -0.9163184E-04
   maximum displ.:     0.1225204 α      in ANC's #5, #7, #2, ...

........................................................................
.............................. CYCLE   42 ..............................
........................................................................

 iter      E             dE          RMSdq      gap      omega  full diag
   1   -106.2976309 -0.106298E+03  0.548E-02    2.72       0.0  T
   2   -106.2976317 -0.847006E-06  0.322E-02    2.72       1.0  T
   3   -106.2976315  0.187888E-06  0.273E-03    2.72       4.3  T
   4   -106.2976319 -0.342036E-06  0.116E-03    2.72      10.2  T
   5   -106.2976319 -0.470863E-07  0.588E-04    2.72      20.2  T
   6   -106.2976319 -0.386200E-08  0.279E-04    2.72      42.6  T
     SCC iter.                  ...        0 min,  0.030 sec
     gradient                   ...        0 min,  0.011 sec
 * total energy  :  -104.8401340 Eh     change       -0.4629152E-04 Eh
   gradient norm :     0.0043714 Eh/α   predicted    -0.4850056E-04 (   4.77%)
   displ. norm   :     0.1362615 α      lambda       -0.6096089E-04
   maximum displ.:     0.0506010 α      in ANC's #2, #7, #5, ...
 * RMSD in coord.:     0.7441928 α      energy gain  -0.3447422E-02 Eh

generating ANC from exact Hessian ...
Using Lindh-Hessian (1995)
 Shifting diagonal of input Hessian by   9.973988090077570E-003
 Lowest  eigenvalues of input Hessian
    0.000000    0.000000    0.000000    0.000000    0.000000    0.000000
    0.010000    0.010110    0.010143    0.010167    0.010300    0.010394
    0.010510    0.010715    0.011157    0.011287    0.011517    0.011698
 Highest eigenvalues
    2.011435    2.014149    2.120874    2.123183    2.377276    2.380291
 

........................................................................
.............................. CYCLE   43 ..............................
........................................................................

 iter      E             dE          RMSdq      gap      omega  full diag
   1   -106.2988814 -0.106299E+03  0.319E-02    2.72       0.0  T
   2   -106.2988820 -0.594103E-06  0.187E-02    2.72       1.0  T
   3   -106.2988818  0.209288E-06  0.224E-03    2.72       5.3  T
   4   -106.2988820 -0.228030E-06  0.108E-03    2.73      10.9  T
   5   -106.2988821 -0.703611E-07  0.341E-04    2.73      34.8  T
   6   -106.2988821 -0.123083E-08  0.162E-04    2.73      73.0  T
     SCC iter.                  ...        0 min,  0.028 sec
     gradient                   ...        0 min,  0.009 sec
 * total energy  :  -104.8401723 Eh     change       -0.3823114E-04 Eh
   gradient norm :     0.0029053 Eh/α   predicted     0.0000000E+00 (-100.00%)
   displ. norm   :     0.0364278 α      lambda       -0.3185938E-04
   maximum displ.:     0.0174325 α      in ANC's #7, #12, #11, ...

........................................................................
.............................. CYCLE   44 ..............................
........................................................................

 iter      E             dE          RMSdq      gap      omega  full diag
   1   -106.2986771 -0.106299E+03  0.115E-02    2.73       0.0  T
   2   -106.2986772 -0.118401E-06  0.678E-03    2.73       1.7  T
   3   -106.2986769  0.347557E-06  0.252E-03    2.73       4.7  T
   4   -106.2986773 -0.395990E-06  0.505E-04    2.73      23.5  T
   5   -106.2986773 -0.110225E-07  0.193E-04    2.73      61.5  T
     SCC iter.                  ...        0 min,  0.026 sec
     gradient                   ...        0 min,  0.009 sec
 * total energy  :  -104.8401968 Eh     change       -0.2458314E-04 Eh
   gradient norm :     0.0012988 Eh/α   predicted    -0.1625743E-04 ( -33.87%)
   displ. norm   :     0.1493565 α      lambda       -0.5073900E-04
   maximum displ.:     0.0721784 α      in ANC's #7, #12, #11, ...

........................................................................
.............................. CYCLE   45 ..............................
........................................................................

 iter      E             dE          RMSdq      gap      omega  full diag
   1   -106.2980711 -0.106298E+03  0.358E-02    2.73       0.0  T
   2   -106.2980721 -0.105837E-05  0.210E-02    2.73       1.0  T
   3   -106.2980703  0.179147E-05  0.589E-03    2.73       2.0  T
   4   -106.2980725 -0.211841E-05  0.146E-03    2.73       8.1  T
   5   -106.2980725 -0.841108E-07  0.669E-04    2.73      17.7  T
   6   -106.2980726 -0.824187E-08  0.336E-04    2.73      35.3  T
     SCC iter.                  ...        0 min,  0.025 sec
     gradient                   ...        0 min,  0.020 sec
 * total energy  :  -104.8402340 Eh     change       -0.3716183E-04 Eh
   gradient norm :     0.0035313 Eh/α   predicted    -0.2562283E-04 ( -31.05%)
   displ. norm   :     0.0646874 α      lambda       -0.2695766E-04
   maximum displ.:     0.0334657 α      in ANC's #7, #12, #11, ...

........................................................................
.............................. CYCLE   46 ..............................
........................................................................

 iter      E             dE          RMSdq      gap      omega  full diag
   1   -106.2982658 -0.106298E+03  0.159E-02    2.73       0.0  T
   2   -106.2982658 -0.768596E-07  0.934E-03    2.73       1.3  T
   3   -106.2982659 -0.376411E-08  0.714E-04    2.73      16.6  T
   4   -106.2982659 -0.196530E-07  0.380E-04    2.73      31.2  T
     SCC iter.                  ...        0 min,  0.037 sec
     gradient                   ...        0 min,  0.011 sec
 * total energy  :  -104.8402566 Eh     change       -0.2257166E-04 Eh
   gradient norm :     0.0028127 Eh/α   predicted    -0.1353796E-04 ( -40.02%)
   displ. norm   :     0.1865728 α      lambda       -0.6534220E-04
   maximum displ.:     0.0952828 α      in ANC's #7, #11, #6, ...

........................................................................
.............................. CYCLE   47 ..............................
........................................................................

 iter      E             dE          RMSdq      gap      omega  full diag
   1   -106.2986685 -0.106299E+03  0.448E-02    2.74       0.0  T
   2   -106.2986690 -0.525980E-06  0.263E-02    2.74       1.0  T
   3   -106.2986688  0.177647E-06  0.265E-03    2.74       4.5  T
   4   -106.2986692 -0.387958E-06  0.105E-03    2.74      11.3  T
   5   -106.2986692 -0.186765E-07  0.616E-04    2.74      19.3  T
   6   -106.2986693 -0.609229E-08  0.258E-04    2.74      46.0  T
     SCC iter.                  ...        0 min,  0.027 sec
     gradient                   ...        0 min,  0.011 sec
 * total energy  :  -104.8403012 Eh     change       -0.4464059E-04 Eh
   gradient norm :     0.0018572 Eh/α   predicted    -0.3380895E-04 ( -24.26%)
   displ. norm   :     0.2260385 α      lambda       -0.2918336E-04
   maximum displ.:     0.1183248 α      in ANC's #7, #6, #11, ...

........................................................................
.............................. CYCLE   48 ..............................
........................................................................

 iter      E             dE          RMSdq      gap      omega  full diag
   1   -106.2985796 -0.106299E+03  0.537E-02    2.74       0.0  T
   2   -106.2985803 -0.672744E-06  0.316E-02    2.74       1.0  T
   3   -106.2985802  0.742077E-07  0.264E-03    2.73       4.5  T
   4   -106.2985806 -0.340633E-06  0.111E-03    2.74      10.7  T
   5   -106.2985806 -0.150740E-07  0.663E-04    2.74      17.9  T
   6   -106.2985806 -0.845120E-08  0.282E-04    2.74      42.0  T
     SCC iter.                  ...        0 min,  0.026 sec
     gradient                   ...        0 min,  0.010 sec
 * total energy  :  -104.8403286 Eh     change       -0.2738358E-04 Eh
   gradient norm :     0.0025729 Eh/α   predicted    -0.1492341E-04 ( -45.50%)
   displ. norm   :     0.0981086 α      lambda       -0.2292308E-04
   maximum displ.:     0.0527422 α      in ANC's #7, #6, #1, ...

........................................................................
.............................. CYCLE   49 ..............................
........................................................................

 iter      E             dE          RMSdq      gap      omega  full diag
   1   -106.2988624 -0.106299E+03  0.226E-02    2.73       0.0  T
   2   -106.2988626 -0.149627E-06  0.133E-02    2.73       1.0  T
   3   -106.2988626  0.106668E-07  0.954E-04    2.73      12.4  T
   4   -106.2988626 -0.382249E-07  0.508E-04    2.73      23.4  T
     SCC iter.                  ...        0 min,  0.018 sec
     gradient                   ...        0 min,  0.010 sec
 * total energy  :  -104.8403480 Eh     change       -0.1939529E-04 Eh
   gradient norm :     0.0017219 Eh/α   predicted    -0.1158142E-04 ( -40.29%)
   displ. norm   :     0.3346485 α      lambda       -0.5132421E-04
   maximum displ.:     0.1796449 α      in ANC's #7, #1, #6, ...

........................................................................
.............................. CYCLE   50 ..............................
........................................................................

 iter      E             dE          RMSdq      gap      omega  full diag
   1   -106.2991035 -0.106299E+03  0.765E-02    2.73       0.0  T
   2   -106.2991047 -0.117515E-05  0.449E-02    2.73       1.0  T
   3   -106.2991048 -0.126415E-06  0.218E-03    2.73       5.4  T
   4   -106.2991050 -0.183748E-06  0.111E-03    2.73      10.7  T
   5   -106.2991050 -0.278318E-07  0.627E-04    2.73      18.9  T
   6   -106.2991050 -0.435591E-08  0.278E-04    2.73      42.7  T
     SCC iter.                  ...        0 min,  0.025 sec
     gradient                   ...        0 min,  0.010 sec
 * total energy  :  -104.8403948 Eh     change       -0.4678060E-04 Eh
   gradient norm :     0.0033284 Eh/α   predicted    -0.2693954E-04 ( -42.41%)
   displ. norm   :     0.1906819 α      lambda       -0.3205649E-04
   maximum displ.:     0.1054258 α      in ANC's #7, #1, #6, ...

........................................................................
.............................. CYCLE   51 ..............................
........................................................................

 iter      E             dE          RMSdq      gap      omega  full diag
   1   -106.2982977 -0.106298E+03  0.425E-02    2.73       0.0  T
   2   -106.2982979 -0.274605E-06  0.250E-02    2.73       1.0  T
   3   -106.2982967  0.119275E-05  0.448E-03    2.73       2.6  T
   4   -106.2982981 -0.138244E-05  0.733E-04    2.73      16.2  T
   5   -106.2982981 -0.815201E-08  0.382E-04    2.73      31.0  T
   6   -106.2982981 -0.108943E-08  0.150E-04    2.73      79.2  T
     SCC iter.                  ...        0 min,  0.026 sec
     gradient                   ...        0 min,  0.011 sec
 * total energy  :  -104.8404202 Eh     change       -0.2539618E-04 Eh
   gradient norm :     0.0025652 Eh/α   predicted    -0.1661596E-04 ( -34.57%)
   displ. norm   :     0.2262246 α      lambda       -0.4301233E-04
   maximum displ.:     0.1247242 α      in ANC's #7, #1, #6, ...

........................................................................
.............................. CYCLE   52 ..............................
........................................................................

 iter      E             dE          RMSdq      gap      omega  full diag
   1   -106.2982658 -0.106298E+03  0.500E-02    2.73       0.0  T
   2   -106.2982662 -0.350556E-06  0.293E-02    2.73       1.0  T
   3   -106.2982652  0.100863E-05  0.420E-03    2.73       2.8  T
   4   -106.2982663 -0.119141E-05  0.794E-04    2.73      14.9  T
   5   -106.2982664 -0.138968E-07  0.396E-04    2.73      30.0  T
   6   -106.2982664 -0.198200E-08  0.173E-04    2.73      68.5  T
     SCC iter.                  ...        0 min,  0.026 sec
     gradient                   ...        0 min,  0.013 sec
 * total energy  :  -104.8404558 Eh     change       -0.3564984E-04 Eh
   gradient norm :     0.0016242 Eh/α   predicted    -0.2260922E-04 ( -36.58%)
   displ. norm   :     0.4615784 α      lambda       -0.5396420E-04
   maximum displ.:     0.2547231 α      in ANC's #7, #1, #6, ...

........................................................................
.............................. CYCLE   53 ..............................
........................................................................

 iter      E             dE          RMSdq      gap      omega  full diag
   1   -106.2976705 -0.106298E+03  0.105E-01    2.72       0.0  T
   2   -106.2976720 -0.144008E-05  0.613E-02    2.72       1.0  T
   3   -106.2976683  0.367592E-05  0.812E-03    2.72       1.5  T
   4   -106.2976726 -0.436062E-05  0.155E-03    2.72       7.6  T
   5   -106.2976727 -0.609191E-07  0.748E-04    2.72      15.9  T
   6   -106.2976727 -0.779733E-08  0.322E-04    2.72      36.8  T
     SCC iter.                  ...        0 min,  0.040 sec
     gradient                   ...        0 min,  0.013 sec
 * total energy  :  -104.8405047 Eh     change       -0.4890062E-04 Eh
   gradient norm :     0.0022180 Eh/α   predicted    -0.2953958E-04 ( -39.59%)
   displ. norm   :     0.1186295 α      lambda       -0.2471985E-04
   maximum displ.:     0.0630682 α      in ANC's #7, #1, #6, ...

........................................................................
.............................. CYCLE   54 ..............................
........................................................................

 iter      E             dE          RMSdq      gap      omega  full diag
   1   -106.2986914 -0.106299E+03  0.265E-02    2.72       0.0  T
   2   -106.2986915 -0.858033E-07  0.156E-02    2.72       1.0  T
   3   -106.2986913  0.192140E-06  0.189E-03    2.72       6.3  T
   4   -106.2986915 -0.233588E-06  0.391E-04    2.72      30.4  T
   5   -106.2986915 -0.385300E-08  0.197E-04    2.72      60.4  T
     SCC iter.                  ...        0 min,  0.021 sec
     gradient                   ...        0 min,  0.011 sec
 * total energy  :  -104.8405247 Eh     change       -0.1998196E-04 Eh
   gradient norm :     0.0016389 Eh/α   predicted    -0.1253651E-04 ( -37.26%)
   displ. norm   :     0.5127556 α      lambda       -0.5441892E-04
   maximum displ.:     0.2842172 α      in ANC's #7, #1, #6, ...

........................................................................
.............................. CYCLE   55 ..............................
........................................................................

 iter      E             dE          RMSdq      gap      omega  full diag
   1   -106.2982813 -0.106298E+03  0.115E-01    2.72       0.0  T
   2   -106.2982826 -0.126633E-05  0.673E-02    2.72       1.0  T
   3   -106.2982815  0.113125E-05  0.520E-03    2.72       2.3  T
   4   -106.2982831 -0.168198E-05  0.144E-03    2.72       8.2  T
   5   -106.2982832 -0.397484E-07  0.687E-04    2.72      17.3  T
   6   -106.2982832 -0.789950E-08  0.276E-04    2.72      43.1  T
     SCC iter.                  ...        0 min,  0.026 sec
     gradient                   ...        0 min,  0.011 sec
 * total energy  :  -104.8405776 Eh     change       -0.5292694E-04 Eh
   gradient norm :     0.0023261 Eh/α   predicted    -0.3039017E-04 ( -42.58%)
   displ. norm   :     0.1730952 α      lambda       -0.3678359E-04
   maximum displ.:     0.0875585 α      in ANC's #7, #1, #6, ...

........................................................................
.............................. CYCLE   56 ..............................
........................................................................

 iter      E             dE          RMSdq      gap      omega  full diag
   1   -106.2994397 -0.106299E+03  0.352E-02    2.72       0.0  T
   2   -106.2994399 -0.206357E-06  0.207E-02    2.72       1.0  T
   3   -106.2994393  0.535870E-06  0.308E-03    2.72       3.9  T
   4   -106.2994399 -0.626207E-06  0.614E-04    2.72      19.3  T
   5   -106.2994400 -0.105332E-07  0.300E-04    2.72      39.6  T
     SCC iter.                  ...        0 min,  0.021 sec
     gradient                   ...        0 min,  0.012 sec
 * total energy  :  -104.8406052 Eh     change       -0.2760038E-04 Eh
   gradient norm :     0.0016156 Eh/α   predicted    -0.1894410E-04 ( -31.36%)
   displ. norm   :     0.5678755 α      lambda       -0.5040964E-04
   maximum displ.:     0.3109877 α      in ANC's #7, #1, #6, ...

........................................................................
.............................. CYCLE   57 ..............................
........................................................................

 iter      E             dE          RMSdq      gap      omega  full diag
   1   -106.2970647 -0.106297E+03  0.117E-01    2.71       0.0  T
   2   -106.2970666 -0.190357E-05  0.689E-02    2.71       1.0  T
   3   -106.2970577  0.887559E-05  0.123E-02    2.71       1.0  T
   4   -106.2970679 -0.101191E-04  0.185E-03    2.71       6.4  T
   5   -106.2970679 -0.807092E-07  0.896E-04    2.71      13.2  T
   6   -106.2970680 -0.800136E-08  0.332E-04    2.71      35.7  T
     SCC iter.                  ...        0 min,  0.025 sec
     gradient                   ...        0 min,  0.011 sec
 * total energy  :  -104.8406347 Eh     change       -0.2944122E-04 Eh
   gradient norm :     0.0037144 Eh/α   predicted    -0.2881762E-04 (  -2.12%)
   displ. norm   :     0.0782136 α      lambda       -0.4054165E-04
   maximum displ.:     0.0351755 α      in ANC's #11, #10, #13, ...

........................................................................
.............................. CYCLE   58 ..............................
........................................................................

 iter      E             dE          RMSdq      gap      omega  full diag
   1   -106.2993792 -0.106299E+03  0.213E-02    2.72       0.0  T
   2   -106.2993795 -0.221106E-06  0.126E-02    2.72       1.0  T
   3   -106.2993778  0.166635E-05  0.533E-03    2.72       2.2  T
   4   -106.2993796 -0.185649E-05  0.580E-04    2.72      20.5  T
   5   -106.2993797 -0.131551E-07  0.233E-04    2.72      50.9  T
   6   -106.2993797  0.251831E-09  0.112E-04    2.72     105.9  T
     SCC iter.                  ...        0 min,  0.029 sec
     gradient                   ...        0 min,  0.011 sec
 * total energy  :  -104.8406567 Eh     change       -0.2205112E-04 Eh
[...]
         :: -> isotropic ES            0.123337495170 Eh    ::
         :: -> anisotropic ES          0.009959420727 Eh    ::
         :: -> anisotropic XC          0.035389704437 Eh    ::
         :: -> dispersion             -0.068937109626 Eh    ::
         :: repulsion energy           1.459169950712 Eh    ::
         :: add. restraining           0.000000000000 Eh    ::
         :: total charge              -0.000000000000 e     ::
         :::::::::::::::::::::::::::::::::::::::::::::::::::::

           -------------------------------------------------
          |                Property Printout                |
           -------------------------------------------------

    * Orbital Energies and Occupations

         #    Occupation            Energy/Eh            Energy/eV
      -------------------------------------------------------------
         1        2.0000           -0.7394309             -20.1209
       ...           ...                  ...                  ...
        82        2.0000           -0.4315716             -11.7437
        83        2.0000           -0.4273040             -11.6275
        84        2.0000           -0.4191815             -11.4065
        85        2.0000           -0.4174502             -11.3594
        86        2.0000           -0.4163587             -11.3297
        87        2.0000           -0.4116288             -11.2010
        88        2.0000           -0.4103043             -11.1649
        89        2.0000           -0.4080233             -11.1029
        90        2.0000           -0.4074987             -11.0886
        91        2.0000           -0.4003331             -10.8936
        92        2.0000           -0.3985258             -10.8444
        93        2.0000           -0.3739443             -10.1755
        94        2.0000           -0.3678350             -10.0093 (HOMO)
        95                         -0.2678124              -7.2875 (LUMO)
        96                         -0.2671480              -7.2695
        97                         -0.2191522              -5.9634
        98                         -0.2159400              -5.8760
        99                         -0.2094787              -5.7002
       100                         -0.2062812              -5.6132
       101                         -0.1615242              -4.3953
       102                         -0.1612332              -4.3874
       103                         -0.0859334              -2.3384
       104                         -0.0848523              -2.3089
       105                         -0.0008492              -0.0231
       ...                                ...                  ...
       176                          0.7033174              19.1382
      -------------------------------------------------------------
                  HL-Gap            0.1000226 Eh            2.7218 eV
             Fermi-level           -0.3178237 Eh           -8.6484 eV

     #   Z          covCN         q      C6AA      α(0)
     1   6 C        3.759    -0.111    22.668     6.788
     2   6 C        2.937    -0.008    28.215     8.712
     3   6 C        2.844    -0.083    30.058     8.985
     4   6 C        2.726     0.351    21.046     7.510
     5   8 O        0.856    -0.411    21.893     6.273
     6   8 O        1.704    -0.270    18.473     5.803
     7   6 C        3.703     0.079    19.407     6.299
     8   6 C        3.800    -0.070    21.849     6.655
     9   6 C        3.694     0.083    19.365     6.296
    10   8 O        1.706    -0.278    18.613     5.825
    11   6 C        2.864     0.139    24.962     8.190
    12   6 C        2.917    -0.071    29.764     8.946
    13   6 C        2.925    -0.041    29.020     8.834
    14   6 C        2.978     0.000    28.018     8.683
    15   6 C        2.927    -0.035    28.861     8.810
    16   6 C        2.919    -0.055    29.368     8.887
    17   6 C        3.909     0.018    20.214     6.390
    18   6 C        3.763    -0.104    22.524     6.765
    19   6 C        3.763    -0.104    22.529     6.766
    20   6 C        2.978     0.001    28.011     8.682
    21   6 C        2.925    -0.040    29.006     8.832
    22   6 C        2.917    -0.070    29.749     8.944
    23   6 C        2.864     0.138    24.976     8.192
    24   8 O        1.706    -0.282    18.683     5.836
    25   6 C        3.694     0.082    19.384     6.299
    26   6 C        3.800    -0.070    21.834     6.653
    27   6 C        3.705     0.078    19.427     6.301
    28   8 O        1.705    -0.262    18.342     5.782
    29   6 C        2.732     0.350    21.059     7.513
    30   8 O        0.856    -0.420    22.088     6.301
    31   6 C        2.938    -0.009    28.245     8.716
    32   6 C        3.757    -0.112    22.700     6.793
    33   6 C        2.850    -0.078    29.945     8.969
    34   6 C        2.919    -0.056    29.387     8.890
    35   6 C        2.927    -0.035    28.869     8.811
    36   1 H        0.925     0.070     2.090     2.261
    37   1 H        0.925     0.051     2.313     2.378
    38   1 H        0.925     0.061     2.184     2.311
    39   1 H        0.926     0.055     2.254     2.348
    40   1 H        0.926     0.062     2.180     2.309
    41   1 H        0.924     0.070     2.084     2.258
    42   1 H        0.924     0.056     2.247     2.344
    43   1 H        0.924     0.075     2.028     2.227
    44   1 H        0.924     0.050     2.324     2.384
    45   1 H        0.923     0.028     2.618     2.530
    46   1 H        0.923     0.036     2.508     2.477
    47   1 H        0.926     0.027     2.626     2.534
    48   1 H        0.926     0.038     2.481     2.463
    49   1 H        0.926     0.035     2.515     2.480
    50   1 H        0.926     0.047     2.355     2.400
    51   1 H        0.925     0.040     2.453     2.449
    52   1 H        0.925     0.036     2.499     2.472
    53   1 H        0.925     0.038     2.474     2.459
    54   1 H        0.925     0.036     2.496     2.471
    55   1 H        0.925     0.039     2.461     2.453
    56   1 H        0.925     0.040     2.454     2.450
    57   1 H        0.926     0.039     2.466     2.456
    58   1 H        0.926     0.030     2.593     2.518
    59   1 H        0.923     0.036     2.507     2.476
    60   1 H        0.923     0.034     2.533     2.489
    61   1 H        0.924     0.062     2.175     2.306
    62   1 H        0.924     0.062     2.181     2.309
    63   1 H        0.924     0.056     2.250     2.346
    64   1 H        0.924     0.069     2.099     2.266
    65   1 H        0.925     0.061     2.183     2.311
    66   1 H        0.925     0.052     2.297     2.370
    67   1 H        0.925     0.061     2.187     2.313
    68   1 H        0.926     0.071     2.075     2.252
    69   1 H        0.926     0.057     2.235     2.338
    70   1 H        0.926     0.044     2.399     2.422
    71   1 H        0.926     0.034     2.526     2.485

 Mol. C6AA /au·bohr⁶  :      51179.444420
 Mol. C8AA /au·bohr⁸  :    1185485.445693
 Mol. α(0) /au        :        349.045797


Wiberg/Mayer (AO) data.
largest (>0.10) Wiberg bond orders for each atom

 ---------------------------------------------------------------------------
     #   Z sym  total        # sym  WBO       # sym  WBO       # sym  WBO
 ---------------------------------------------------------------------------
     1   6 C    3.994 --     2 C    1.029    37 H    0.985    36 H    0.967
                            38 H    0.966
     2   6 C    3.987 --     3 C    1.880     1 C    1.029     4 C    0.992
     3   6 C    3.989 --     2 C    1.880    39 H    0.974    40 H    0.973
     4   6 C    3.917 --     5 O    1.732     6 O    1.118     2 C    0.992
     5   8 O    2.035 --     4 C    1.732     6 O    0.169
     6   8 O    2.302 --     4 C    1.118     7 C    0.945     5 O    0.169
     7   6 C    3.928 --     8 C    0.998    42 H    0.971    41 H    0.967
                             6 O    0.945
     8   6 C    3.992 --     9 C    1.002     7 C    0.998    44 H    0.975
                            43 H    0.972
     9   6 C    3.953 --     8 C    1.002    10 O    0.976    45 H    0.966
                            46 H    0.966
    10   8 O    2.221 --    11 C    1.051     9 C    0.976
    11   6 C    3.930 --    12 C    1.386    16 C    1.342    10 O    1.051
    12   6 C    3.986 --    13 C    1.425    11 C    1.386    47 H    0.967
                            15 C    0.104
    13   6 C    3.991 --    14 C    1.432    12 C    1.425    48 H    0.966
                            16 C    0.107
    14   6 C    3.986 --    13 C    1.432    15 C    1.381    17 C    0.978
    15   6 C    3.991 --    16 C    1.483    14 C    1.381    49 H    0.967
                            12 C    0.104
    16   6 C    3.987 --    15 C    1.483    11 C    1.342    50 H    0.968
                            13 C    0.107
    17   6 C    3.991 --    19 C    0.985    18 C    0.985    14 C    0.978
                            20 C    0.977
    18   6 C    3.995 --    52 H    0.985    53 H    0.985    17 C    0.985
                            51 H    0.982
    19   6 C    3.995 --    54 H    0.985    17 C    0.985    55 H    0.985
                            56 H    0.982
    20   6 C    3.986 --    21 C    1.431    35 C    1.383    17 C    0.977
    21   6 C    3.991 --    20 C    1.431    22 C    1.427    57 H    0.966
                            34 C    0.107
    22   6 C    3.987 --    21 C    1.427    23 C    1.386    58 H    0.967
                            35 C    0.104
    23   6 C    3.930 --    22 C    1.386    34 C    1.343    24 O    1.050
    24   8 O    2.217 --    23 C    1.050    25 C    0.973
    25   6 C    3.952 --    26 C    1.002    24 O    0.973    59 H    0.967
                            60 H    0.966
    26   6 C    3.991 --    25 C    1.002    27 C    0.998    61 H    0.974
                            62 H    0.973
    27   6 C    3.929 --    26 C    0.998    64 H    0.970    63 H    0.967
                            28 O    0.947
    28   8 O    2.311 --    29 C    1.124    27 C    0.947    30 O    0.170
    29   6 C    3.917 --    30 O    1.720    28 O    1.124    31 C    0.994
    30   8 O    2.028 --    29 C    1.720    28 O    0.170
    31   6 C    3.986 --    33 C    1.876    32 C    1.030    29 C    0.994
    32   6 C    3.995 --    31 C    1.030    66 H    0.984    65 H    0.968
                            67 H    0.968
    33   6 C    3.985 --    31 C    1.876    69 H    0.975    68 H    0.971
    34   6 C    3.987 --    35 C    1.482    23 C    1.343    70 H    0.968
                            21 C    0.107
    35   6 C    3.991 --    34 C    1.482    20 C    1.383    71 H    0.967
                            22 C    0.104
    36   1 H    0.995 --     1 C    0.967
    37   1 H    0.997 --     1 C    0.985
    38   1 H    0.996 --     1 C    0.966
    39   1 H    0.997 --     3 C    0.974
    40   1 H    0.996 --     3 C    0.973
    41   1 H    0.995 --     7 C    0.967
    42   1 H    0.997 --     7 C    0.971
    43   1 H    0.994 --     8 C    0.972
    44   1 H    0.997 --     8 C    0.975
    45   1 H    0.999 --     9 C    0.966
    46   1 H    0.999 --     9 C    0.966
    47   1 H    0.999 --    12 C    0.967
    48   1 H    0.999 --    13 C    0.966
    49   1 H    0.998 --    15 C    0.967
    50   1 H    0.997 --    16 C    0.968
    51   1 H    0.997 --    18 C    0.982
    52   1 H    0.998 --    18 C    0.985
    53   1 H    0.999 --    18 C    0.985
    54   1 H    0.998 --    19 C    0.985
    55   1 H    0.998 --    19 C    0.985
    56   1 H    0.997 --    19 C    0.982
    57   1 H    0.998 --    21 C    0.966
    58   1 H    0.999 --    22 C    0.967
    59   1 H    0.999 --    25 C    0.967
    60   1 H    0.999 --    25 C    0.966
    61   1 H    0.996 --    26 C    0.974
    62   1 H    0.996 --    26 C    0.973
    63   1 H    0.997 --    27 C    0.967
    64   1 H    0.995 --    27 C    0.970
    65   1 H    0.996 --    32 C    0.968
    66   1 H    0.997 --    32 C    0.984
    67   1 H    0.996 --    32 C    0.968
    68   1 H    0.995 --    33 C    0.971
    69   1 H    0.996 --    33 C    0.975
    70   1 H    0.998 --    34 C    0.968
    71   1 H    0.998 --    35 C    0.967
 ---------------------------------------------------------------------------

Topologies differ in total number of bonds
Writing topology from bond orders to xtbtopo.mol

molecular dipole:
                 x           y           z       tot (Debye)
 q only:        0.504      -0.303       1.029
   full:        0.527      -0.232       1.196       3.374
molecular quadrupole (traceless):
                xx          xy          yy          xz          yz          zz
 q only:        4.747      10.629       5.465       6.082      -3.314     -10.213
  q+dip:        2.095      10.981       5.800      13.071      -3.536      -7.895
   full:        2.213      11.603       6.660      10.669      -2.085      -8.873

           -------------------------------------------------
          |                Geometry Summary                 |
           -------------------------------------------------

      molecular mass/u    :      480.5936376
   center of mass at/Å    :       -0.0338783      -0.0738298      -0.1406271
  moments of inertia/u·Å² :        0.3066169E+04   0.2078626E+05   0.2300341E+05
rotational constants/cm⁻¹ :        0.5497947E-02   0.8109990E-03   0.7328319E-03

 * 66 selected distances

     #   Z          #   Z                                           value/Å
     2   6 C        3   6 C                                       1.3281607
     4   6 C        5   8 O                                       1.2065906
     4   6 C        6   8 O                                       1.3414509
     6   8 O        7   6 C                                       1.4243180
     7   6 C        8   6 C                                       1.5281476
     8   6 C        9   6 C                                       1.5243761
     9   6 C       10   8 O                                       1.4093617
    10   8 O       11   6 C                                       1.3642782
    11   6 C       12   6 C                                       1.3872556
    12   6 C       13   6 C                                       1.3872793
    13   6 C       14   6 C                                       1.3843018
    14   6 C       15   6 C                                       1.3943916
    11   6 C       16   6 C                                       1.3956306
    15   6 C       16   6 C                                       1.3762461
    17   6 C       18   6 C                                       1.5356677 (max)
    17   6 C       19   6 C                                       1.5356385
    20   6 C       21   6 C                                       1.3845663
    21   6 C       22   6 C                                       1.3870712
    22   6 C       23   6 C                                       1.3872882
    23   6 C       24   8 O                                       1.3647372
    24   8 O       25   6 C                                       1.4115563
    25   6 C       26   6 C                                       1.5237957
    26   6 C       27   6 C                                       1.5279333
    27   6 C       28   8 O                                       1.4224906
    28   8 O       29   6 C                                       1.3403277
    29   6 C       30   8 O                                       1.2079181
    31   6 C       33   6 C                                       1.3291906
    23   6 C       34   6 C                                       1.3955018
    20   6 C       35   6 C                                       1.3941563
    34   6 C       35   6 C                                       1.3763682
     1   6 C       36   1 H                                       1.0881598
     1   6 C       37   1 H                                       1.0859964
     1   6 C       38   1 H                                       1.0892151
     3   6 C       39   1 H                                       1.0773664
     3   6 C       40   1 H                                       1.0754595 (min)
     7   6 C       41   1 H                                       1.0938617
     7   6 C       42   1 H                                       1.0923330
     8   6 C       43   1 H                                       1.0905736
     8   6 C       44   1 H                                       1.0917171
     9   6 C       45   1 H                                       1.1004758
     9   6 C       46   1 H                                       1.0989196
    12   6 C       47   1 H                                       1.0789891
    13   6 C       48   1 H                                       1.0783697
    15   6 C       49   1 H                                       1.0801918
    16   6 C       50   1 H                                       1.0784253
    18   6 C       51   1 H                                       1.0875146
    18   6 C       52   1 H                                       1.0884418
    18   6 C       53   1 H                                       1.0870255
    19   6 C       54   1 H                                       1.0883640
    19   6 C       55   1 H                                       1.0868823
    19   6 C       56   1 H                                       1.0874720
    21   6 C       57   1 H                                       1.0783749
    22   6 C       58   1 H                                       1.0788722
    25   6 C       59   1 H                                       1.0988907
    25   6 C       60   1 H                                       1.0986364
    26   6 C       61   1 H                                       1.0909528
    26   6 C       62   1 H                                       1.0907709
    27   6 C       63   1 H                                       1.0958612
    27   6 C       64   1 H                                       1.0909612
    32   6 C       65   1 H                                       1.0882852
    32   6 C       66   1 H                                       1.0866530
    32   6 C       67   1 H                                       1.0883988
    33   6 C       68   1 H                                       1.0766577
    33   6 C       69   1 H                                       1.0764019
    34   6 C       70   1 H                                       1.0786966
    35   6 C       71   1 H                                       1.0802843

 * 3 distinct bonds (by element types)

   Z      Z             #   av. dist./Å        max./Å        min./Å
   1 H    6 C          36     1.0867903     1.1004758     1.0754595
   6 C    6 C          20     1.4241484     1.5356677     1.3281607
   6 C    8 O          10     1.3493029     1.4243180     1.2065906


optimized geometry written to: xtbopt.xyz


           -------------------------------------------------
          | TOTAL ENERGY             -104.840930274717 Eh   |
          | GRADIENT NORM               0.000647803592 Eh/α |
          | HOMO-LUMO GAP               2.721753376373 eV   |
           -------------------------------------------------

------------------------------------------------------------------------
 * finished run on 2025/12/01 at 14:22:38.723     
------------------------------------------------------------------------
 total:
 * wall-time:     0 d,  0 h,  0 min,  3.859 sec
 *  cpu-time:     0 d,  0 h,  1 min, 28.229 sec
 * ratio c/w:    22.863 speedup
 SCF:
 * wall-time:     0 d,  0 h,  0 min,  0.093 sec
 *  cpu-time:     0 d,  0 h,  0 min,  2.116 sec
 * ratio c/w:    22.747 speedup
 ANC optimizer:
 * wall-time:     0 d,  0 h,  0 min,  3.740 sec
 *  cpu-time:     0 d,  0 h,  1 min, 25.812 sec
 * ratio c/w:    22.942 speedup

normal termination of xtb
