      -----------------------------------------------------------      
     |                   =====================                   |     
     |                           x T B                           |     
     |                   =====================                   |     
     |                         S. Grimme                         |     
     |          Mulliken Center for Theoretical Chemistry        |     
     |                    University of Bonn                     |     
      -----------------------------------------------------------      

   * xtb version 6.7.1 (edcfbbe) compiled by 'albert@albert-system' on 2024-07-22

   xtb is free software: you can redistribute it and/or modify it under
   the terms of the GNU Lesser General Public License as published by
   the Free Software Foundation, either version 3 of the License, or
   (at your option) any later version.
   
   xtb is distributed in the hope that it will be useful,
   but WITHOUT ANY WARRANTY; without even the implied warranty of
   MERCHANTABILITY or FITNESS FOR A PARTICULAR PURPOSE.  See the
   GNU Lesser General Public License for more details.
   
   Cite this work as:
   * C. Bannwarth, E. Caldeweyher, S. Ehlert, A. Hansen, P. Pracht,
     J. Seibert, S. Spicher, S. Grimme, WIREs Comput. Mol. Sci., 2020, 11,
     e01493. DOI: 10.1002/wcms.1493
   
   for GFN2-xTB:
   * C. Bannwarth, S. Ehlert and S. Grimme., J. Chem. Theory Comput., 2019,
     15, 1652-1671. DOI: 10.1021/acs.jctc.8b01176
   for GFN1-xTB:
   * S. Grimme, C. Bannwarth, P. Shushkov, J. Chem. Theory Comput., 2017,
     13, 1989-2009. DOI: 10.1021/acs.jctc.7b00118
   for GFN0-xTB:
   * P. Pracht, E. Caldeweyher, S. Ehlert, S. Grimme, ChemRxiv, 2019, preprint.
     DOI: 10.26434/chemrxiv.8326202.v1
   for GFN-FF:
   * S. Spicher and S. Grimme, Angew. Chem. Int. Ed., 2020, 59, 15665-15673.
     DOI: 10.1002/anie.202004239
   
   for ALPB and GBSA implicit solvation:
   * S. Ehlert, M. Stahn, S. Spicher, S. Grimme, J. Chem. Theory Comput.,
     2021, 17, 4250-4261. DOI: 10.1021/acs.jctc.1c00471
   
   for ddCOSMO and CPCM-X implicit solvation:
   * M. Stahn, S. Ehlert, S. Grimme, J. Phys. Chem. A,
     2023, XX, XXXX-XXXX. DOI: 10.1021/acs.jpca.3c04382
   
   for DFT-D4:
   * E. Caldeweyher, C. Bannwarth and S. Grimme, J. Chem. Phys., 2017,
     147, 034112. DOI: 10.1063/1.4993215
   * E. Caldeweyher, S. Ehlert, A. Hansen, H. Neugebauer, S. Spicher,
     C. Bannwarth and S. Grimme, J. Chem. Phys., 2019, 150, 154122.
     DOI: 10.1063/1.5090222
   * E. Caldeweyher, J.-M. Mewes, S. Ehlert and S. Grimme, Phys. Chem. Chem. Phys.
     2020, 22, 8499-8512. DOI: 10.1039/D0CP00502A
   
   for sTDA-xTB:
   * S. Grimme and C. Bannwarth, J. Chem. Phys., 2016, 145, 054103.
     DOI: 10.1063/1.4959605
   
   in the mass-spec context:
   * V. Asgeirsson, C. Bauer and S. Grimme, Chem. Sci., 2017, 8, 4879.
     DOI: 10.1039/c7sc00601b
   * J. Koopman and S. Grimme, ACS Omega 2019, 4, 12, 15120-15133.
     DOI: 10.1021/acsomega.9b02011
   
   for metadynamics refer to:
   * S. Grimme, J. Chem. Theory Comput., 2019, 155, 2847-2862
     DOI: 10.1021/acs.jctc.9b00143
   
   for SPH calculations refer to:
   * S. Spicher and S. Grimme, J. Chem. Theory Comput., 2021, 17, 1701-1714
     DOI: 10.1021/acs.jctc.0c01306
   
   for ONIOM refer to:
   * C. Plett, A. Katbashev, S. Ehlert, S. Grimme, M. Bursch,
     Phys. Chem. Chem. Phys., 2023, 25, 17860-17868. DOI: 10.1039/D3CP02178E
   
   for DIPRO refer to:
   * J. Kohn, N. Gildemeister, S. Grimme, D. Fazzi, A. Hansen,
     J. Chem. Phys., 2023, just accepted.
   
   for PTB refer to:
   * S. Grimme, M. Mueller, A. Hansen, J. Chem. Phys., 2023, 158, 124111.
     DOI: 10.1063/5.0137838
   
   with help from (in alphabetical order)
   P. Atkinson, C. Bannwarth, F. Bohle, G. Brandenburg, E. Caldeweyher
   M. Checinski, S. Dohm, S. Ehlert, S. Ehrlich, I. Gerasimov, C. Hölzer
   A. Katbashev, J. Kohn, J. Koopman, C. Lavigne, S. Lehtola, F. März, M. Müller,
   F. Musil, H. Neugebauer, J. Pisarek, C. Plett, P. Pracht, F. Pultar,
   J. Seibert, P. Shushkov, S. Spicher, M. Stahn, M. Steiner, T. Strunk,
   J. Stückrath, T. Rose, and J. Unsleber
   
 * started run on 2025/12/01 at 14:22:27.323     
   ID    Z sym.   atoms
    1    6 C      1-4, 7-9, 11-23, 25-27, 29, 31-35
    2    8 O      5, 6, 10, 24, 28, 30
    3    1 H      36-71

           -------------------------------------------------
          |                Calculation Setup                |
           -------------------------------------------------

          program call               : xtb pipeline_data/3_conformer_xyz/acrylates/rdkit/OPZLDVPRAIERSE-UHFFFAOYSA-N_conf229.xyz --opt --gfn 2-xTB --iterations 250
          coordinate file            : pipeline_data/3_conformer_xyz/acrylates/rdkit/OPZLDVPRAIERSE-UHFFFAOYSA-N_conf229.xyz
          omp threads                :                    24

########################################################################
[WARNING] Please study the warnings concerning your input carefully
-1- readin_getIntValue: could not parse '2-xTB'
########################################################################

           -------------------------------------------------
          |                 G F N 2 - x T B                 |
           -------------------------------------------------

        Reference                      10.1021/acs.jctc.8b01176
      * Hamiltonian:
        H0-scaling (s, p, d)           1.850000    2.230000    2.230000
        zeta-weighting                 0.500000
      * Dispersion:
        s8                             2.700000
        a1                             0.520000
        a2                             5.000000
        s9                             5.000000
      * Repulsion:
        kExp                           1.500000    1.000000
        rExp                           1.000000
      * Coulomb:
        alpha                          2.000000
        third order                    shell-resolved
        anisotropic                    true
        a3                             3.000000
        a5                             4.000000
        cn-shift                       1.200000
        cn-exp                         4.000000
        max-rad                        5.000000

q/qsh data taken from xtbrestart
CAMM data taken from xtbrestart

          ...................................................
          :                      SETUP                      :
          :.................................................:
          :  # basis functions                 176          :
          :  # atomic orbitals                 176          :
          :  # shells                          106          :
          :  # electrons                       188          :
          :  max. iterations                   250          :
          :  Hamiltonian                  GFN2-xTB          :
          :  restarted?                       true          :
          :  GBSA solvation                  false          :
          :  PC potential                    false          :
          :  electronic temp.          300.0000000     K    :
          :  accuracy                    1.0000000          :
          :  -> integral cutoff          0.2500000E+02      :
          :  -> integral neglect         0.1000000E-07      :
          :  -> SCF convergence          0.1000000E-05 Eh   :
          :  -> wf. convergence          0.1000000E-03 e    :
          :  Broyden damping             0.4000000          :
          :  net charge                          0          :
          :  unpaired electrons                  0          :
          ...................................................

 iter      E             dE          RMSdq      gap      omega  full diag
   1   -106.1536121 -0.106154E+03  0.445E+00    2.58       0.0  T
   2   -106.1671888 -0.135767E-01  0.264E+00    2.43       1.0  T
   3   -106.1502685  0.169204E-01  0.521E-01    2.40       1.0  T
   4   -106.1720112 -0.217427E-01  0.153E-01    2.35       1.0  T
   5   -106.1725621 -0.550892E-03  0.821E-02    2.37       1.0  T
   6   -106.1726074 -0.452766E-04  0.447E-02    2.37       1.0  T
   7   -106.1726776 -0.701704E-04  0.130E-02    2.37       1.0  T
   8   -106.1726839 -0.637243E-05  0.578E-03    2.37       2.1  T
   9   -106.1726847 -0.739048E-06  0.225E-03    2.37       5.3  T
  10   -106.1726848 -0.875477E-07  0.108E-03    2.37      11.0  T
  11   -106.1726848 -0.244290E-07  0.537E-04    2.37      22.1  T
  12   -106.1726848 -0.591136E-08  0.257E-04    2.37      46.3  T

   *** convergence criteria satisfied after 12 iterations ***

         #    Occupation            Energy/Eh            Energy/eV
      -------------------------------------------------------------
         1        2.0000           -0.7377781             -20.0760
       ...           ...                  ...                  ...
        88        2.0000           -0.4105627             -11.1720
        89        2.0000           -0.4075395             -11.0897
        90        2.0000           -0.4072103             -11.0808
        91        2.0000           -0.4011238             -10.9151
        92        2.0000           -0.3995920             -10.8735
        93        2.0000           -0.3741076             -10.1800
        94        2.0000           -0.3719352             -10.1209 (HOMO)
        95                         -0.2849628              -7.7542 (LUMO)
        96                         -0.2830786              -7.7030
        97                         -0.2223760              -6.0512
        98                         -0.2197038              -5.9784
        99                         -0.2098409              -5.7101
       ...                                ...                  ...
       176                          0.6875073              18.7080
      -------------------------------------------------------------
                  HL-Gap            0.0869724 Eh            2.3666 eV
             Fermi-level           -0.3284490 Eh           -8.9376 eV

 SCC (total)                   0 d,  0 h,  0 min,  0.081 sec
 SCC setup                      ...        0 min,  0.000 sec (  0.418%)
 Dispersion                     ...        0 min,  0.001 sec (  1.441%)
 classical contributions        ...        0 min,  0.000 sec (  0.100%)
 integral evaluation            ...        0 min,  0.003 sec (  4.162%)
 iterations                     ...        0 min,  0.067 sec ( 82.061%)
 molecular gradient             ...        0 min,  0.009 sec ( 11.276%)
 printout                       ...        0 min,  0.000 sec (  0.501%)

         :::::::::::::::::::::::::::::::::::::::::::::::::::::
         ::                     SUMMARY                     ::
         :::::::::::::::::::::::::::::::::::::::::::::::::::::
         :: total energy            -104.775459289617 Eh    ::
         :: gradient norm              0.210034738660 Eh/a0 ::
         :: HOMO-LUMO gap              2.366640813988 eV    ::
         ::.................................................::
         :: SCC energy              -106.173137785883 Eh    ::
         :: -> isotropic ES            0.131132308557 Eh    ::
         :: -> anisotropic ES          0.007266543173 Eh    ::
         :: -> anisotropic XC          0.037412292525 Eh    ::
         :: -> dispersion             -0.068059300346 Eh    ::
         :: repulsion energy           1.397678496265 Eh    ::
         :: add. restraining           0.000000000000 Eh    ::
         :: total charge               0.000000000000 e     ::
         :::::::::::::::::::::::::::::::::::::::::::::::::::::

      ----------------------------------------------------------- 
     |                   =====================                   |
     |                        A N C O P T                        |
     |                   =====================                   |
     |               Approximate Normal Coordinate               |
     |                Rational Function Optimizer                |
      ----------------------------------------------------------- 
      ----------------------------------------------------------- 
     |                   =====================                   |
     |                        A N C O P T                        |
     |                   =====================                   |
     |               Approximate Normal Coordinate               |
     |                Rational Function Optimizer                |
      ----------------------------------------------------------- 

          ...................................................
          :                      SETUP                      :
          :.................................................:
          :   optimization level            normal          :
          :   max. optcycles                   213          :
          :   ANC micro-cycles                  20          :
          :   degrees of freedom               207          :
          :.................................................:
          :   RF solver                   davidson          :
          :   write xtbopt.log                true          :
          :   linear?                        false          :
          :   energy convergence         0.5000000E-05 Eh   :
          :   grad. convergence          0.1000000E-02 Eh/α :
          :   maxmium RF displ.          1.0000000          :
          :   Hlow (freq-cutoff)         0.1000000E-01      :
          :   Hmax (freq-cutoff)         5.0000000          :
          :   S6 in model hess.         20.0000000          :
          ...................................................

generating ANC from exact Hessian ...
Using Lindh-Hessian (1995)
 Shifting diagonal of input Hessian by   9.968686437325730E-003
 Lowest  eigenvalues of input Hessian
    0.000000    0.000000    0.000000    0.000000    0.000000    0.000000
    0.010000    0.010065    0.010112    0.010172    0.010242    0.010392
    0.010442    0.010670    0.010922    0.011396    0.011411    0.011824
 Highest eigenvalues
    2.021639    2.045134    2.088984    2.114331    2.132108    2.161040
 

........................................................................
.............................. CYCLE    1 ..............................
........................................................................

 iter      E             dE          RMSdq      gap      omega  full diag
   1   -106.1726848 -0.106173E+03  0.116E-04    2.37       0.0  T
   2   -106.1726848 -0.126136E-09  0.828E-05    2.37     143.4  T
   3   -106.1726848 -0.217454E-09  0.506E-05    2.37     234.5  T
     SCC iter.                  ...        0 min,  0.013 sec
     gradient                   ...        0 min,  0.011 sec
 * total energy  :  -104.7754593 Eh     change       -0.2173593E-08 Eh
   gradient norm :     0.2100378 Eh/α   predicted     0.0000000E+00 (-100.00%)
   displ. norm   :     0.4296519 α      lambda       -0.5178369E-01
   maximum displ.:     0.1635318 α      in ANC's #57, #40, #53, ...

........................................................................
.............................. CYCLE    2 ..............................
........................................................................

 iter      E             dE          RMSdq      gap      omega  full diag
   1   -106.2455334 -0.106246E+03  0.250E-01    2.60       0.0  T
   2   -106.2462461 -0.712746E-03  0.160E-01    2.56       1.0  T
   3   -106.2461751  0.710301E-04  0.833E-02    2.57       1.0  T
   4   -106.2463624 -0.187297E-03  0.287E-02    2.55       1.0  T
   5   -106.2464051 -0.427233E-04  0.903E-03    2.55       1.3  T
   6   -106.2464082 -0.312125E-05  0.430E-03    2.55       2.8  T
   7   -106.2464086 -0.374338E-06  0.213E-03    2.55       5.6  T
   8   -106.2464087 -0.130859E-06  0.785E-04    2.55      15.1  T
   9   -106.2464087 -0.849691E-08  0.348E-04    2.55      34.1  T
     SCC iter.                  ...        0 min,  0.037 sec
     gradient                   ...        0 min,  0.011 sec
 * total energy  :  -104.8125122 Eh     change       -0.3705287E-01 Eh
   gradient norm :     0.0891215 Eh/α   predicted    -0.3071202E-01 ( -17.11%)
   displ. norm   :     0.4376474 α      lambda       -0.1873430E-01
   maximum displ.:     0.1806156 α      in ANC's #57, #40, #18, ...

........................................................................
.............................. CYCLE    3 ..............................
........................................................................

 iter      E             dE          RMSdq      gap      omega  full diag
   1   -106.2811589 -0.106281E+03  0.180E-01    2.67       0.0  T
   2   -106.2815163 -0.357393E-03  0.114E-01    2.65       1.0  T
   3   -106.2814761  0.402585E-04  0.603E-02    2.66       1.0  T
   4   -106.2815782 -0.102126E-03  0.201E-02    2.64       1.0  T
   5   -106.2815974 -0.192130E-04  0.641E-03    2.65       1.9  T
   6   -106.2815989 -0.146853E-05  0.307E-03    2.65       3.9  T
   7   -106.2815991 -0.250083E-06  0.142E-03    2.65       8.3  T
   8   -106.2815992 -0.550323E-07  0.562E-04    2.65      21.1  T
   9   -106.2815992 -0.359201E-08  0.267E-04    2.65      44.4  T
     SCC iter.                  ...        0 min,  0.051 sec
     gradient                   ...        0 min,  0.011 sec
 * total energy  :  -104.8240042 Eh     change       -0.1149206E-01 Eh
   gradient norm :     0.0240250 Eh/α   predicted    -0.1116129E-01 (  -2.88%)
   displ. norm   :     0.4047517 α      lambda       -0.4367737E-02
   maximum displ.:     0.1640067 α      in ANC's #18, #40, #11, ...

........................................................................
.............................. CYCLE    4 ..............................
........................................................................

 iter      E             dE          RMSdq      gap      omega  full diag
   1   -106.2790279 -0.106279E+03  0.909E-02    2.64       0.0  T
   2   -106.2790563 -0.284065E-04  0.554E-02    2.64       1.0  T
   3   -106.2790250  0.313588E-04  0.278E-02    2.65       1.0  T
   4   -106.2790627 -0.377634E-04  0.692E-03    2.65       1.7  T
   5   -106.2790650 -0.223370E-05  0.248E-03    2.65       4.8  T
   6   -106.2790652 -0.252455E-06  0.102E-03    2.65      11.7  T
   7   -106.2790652 -0.127823E-07  0.434E-04    2.65      27.3  T
   8   -106.2790652 -0.455812E-08  0.182E-04    2.65      65.1  T
     SCC iter.                  ...        0 min,  0.033 sec
     gradient                   ...        0 min,  0.011 sec
 * total energy  :  -104.8271946 Eh     change       -0.3190418E-02 Eh
   gradient norm :     0.0138106 Eh/α   predicted    -0.2541657E-02 ( -20.33%)
   displ. norm   :     0.4746625 α      lambda       -0.2756557E-02
   maximum displ.:     0.1812825 α      in ANC's #11, #18, #28, ...

........................................................................
.............................. CYCLE    5 ..............................
........................................................................

 iter      E             dE          RMSdq      gap      omega  full diag
   1   -106.2772228 -0.106277E+03  0.818E-02    2.64       0.0  T
   2   -106.2772395 -0.167292E-04  0.486E-02    2.64       1.0  T
   3   -106.2772322  0.738278E-05  0.146E-02    2.65       1.0  T
   4   -106.2772402 -0.804787E-05  0.558E-03    2.64       2.1  T
   5   -106.2772419 -0.169568E-05  0.175E-03    2.65       6.8  T
   6   -106.2772420 -0.769511E-07  0.897E-04    2.64      13.2  T
   7   -106.2772420 -0.106568E-07  0.347E-04    2.64      34.2  T
     SCC iter.                  ...        0 min,  0.029 sec
     gradient                   ...        0 min,  0.016 sec
 * total energy  :  -104.8292105 Eh     change       -0.2015837E-02 Eh
   gradient norm :     0.0119232 Eh/α   predicted    -0.1688823E-02 ( -16.22%)
   displ. norm   :     0.4610996 α      lambda       -0.1720084E-02
   maximum displ.:     0.2159213 α      in ANC's #11, #28, #18, ...

........................................................................
.............................. CYCLE    6 ..............................
........................................................................

 iter      E             dE          RMSdq      gap      omega  full diag
   1   -106.2783068 -0.106278E+03  0.734E-02    2.64       0.0  T
   2   -106.2783133 -0.656510E-05  0.435E-02    2.65       1.0  T
   3   -106.2783099  0.343856E-05  0.850E-03    2.64       1.4  T
   4   -106.2783141 -0.425433E-05  0.321E-03    2.65       3.7  T
   5   -106.2783147 -0.556729E-06  0.137E-03    2.64       8.7  T
   6   -106.2783147 -0.159114E-07  0.799E-04    2.64      14.9  T
   7   -106.2783147 -0.149721E-07  0.264E-04    2.64      45.0  T
     SCC iter.                  ...        0 min,  0.029 sec
     gradient                   ...        0 min,  0.011 sec
 * total energy  :  -104.8304837 Eh     change       -0.1273204E-02 Eh
   gradient norm :     0.0130364 Eh/α   predicted    -0.1042899E-02 ( -18.09%)
   displ. norm   :     0.4417166 α      lambda       -0.1268174E-02
   maximum displ.:     0.2399906 α      in ANC's #11, #29, #19, ...

........................................................................
.............................. CYCLE    7 ..............................
........................................................................

 iter      E             dE          RMSdq      gap      omega  full diag
   1   -106.2826118 -0.106283E+03  0.723E-02    2.66       0.0  T
   2   -106.2826141 -0.230759E-05  0.430E-02    2.66       1.0  T
   3   -106.2826027  0.114416E-04  0.141E-02    2.65       1.0  T
   4   -106.2826159 -0.131973E-04  0.225E-03    2.65       5.3  T
   5   -106.2826160 -0.628419E-07  0.133E-03    2.65       8.9  T
   6   -106.2826160 -0.286383E-07  0.629E-04    2.65      18.9  T
   7   -106.2826160 -0.128487E-07  0.174E-04    2.65      68.2  T
     SCC iter.                  ...        0 min,  0.029 sec
     gradient                   ...        0 min,  0.011 sec
 * total energy  :  -104.8314101 Eh     change       -0.9264055E-03 Eh
   gradient norm :     0.0110341 Eh/α   predicted    -0.7578064E-03 ( -18.20%)
   displ. norm   :     0.4114357 α      lambda       -0.8888788E-03
   maximum displ.:     0.2388090 α      in ANC's #11, #9, #12, ...

........................................................................
.............................. CYCLE    8 ..............................
........................................................................

 iter      E             dE          RMSdq      gap      omega  full diag
   1   -106.2862734 -0.106286E+03  0.707E-02    2.66       0.0  T
   2   -106.2862771 -0.375581E-05  0.419E-02    2.66       1.0  T
   3   -106.2862718  0.534866E-05  0.103E-02    2.66       1.2  T
   4   -106.2862779 -0.615756E-05  0.294E-03    2.66       4.0  T
   5   -106.2862783 -0.375260E-06  0.122E-03    2.66       9.8  T
   6   -106.2862783 -0.118935E-07  0.658E-04    2.66      18.0  T
   7   -106.2862783 -0.956824E-08  0.210E-04    2.66      56.6  T
     SCC iter.                  ...        0 min,  0.046 sec
     gradient                   ...        0 min,  0.012 sec
 * total energy  :  -104.8320316 Eh     change       -0.6215584E-03 Eh
   gradient norm :     0.0088477 Eh/α   predicted    -0.5196749E-03 ( -16.39%)
   displ. norm   :     0.3588933 α      lambda       -0.5683382E-03
   maximum displ.:     0.2111501 α      in ANC's #11, #9, #12, ...

........................................................................
.............................. CYCLE    9 ..............................
........................................................................

 iter      E             dE          RMSdq      gap      omega  full diag
   1   -106.2891279 -0.106289E+03  0.638E-02    2.68       0.0  T
   2   -106.2891315 -0.356203E-05  0.378E-02    2.68       1.0  T
   3   -106.2891266  0.484979E-05  0.999E-03    2.68       1.2  T
   4   -106.2891321 -0.543178E-05  0.281E-03    2.68       4.2  T
   5   -106.2891324 -0.377398E-06  0.986E-04    2.68      12.0  T
   6   -106.2891324 -0.716608E-08  0.510E-04    2.68      23.3  T
     SCC iter.                  ...        0 min,  0.024 sec
     gradient                   ...        0 min,  0.013 sec
 * total energy  :  -104.8324142 Eh     change       -0.3825352E-03 Eh
   gradient norm :     0.0060356 Eh/α   predicted    -0.3207765E-03 ( -16.14%)
   displ. norm   :     0.3330730 α      lambda       -0.3591825E-03
   maximum displ.:     0.1865952 α      in ANC's #11, #12, #9, ...

........................................................................
.............................. CYCLE   10 ..............................
........................................................................

 iter      E             dE          RMSdq      gap      omega  full diag
   1   -106.2874016 -0.106287E+03  0.641E-02    2.66       0.0  T
   2   -106.2874058 -0.422693E-05  0.380E-02    2.66       1.0  T
   3   -106.2874015  0.436247E-05  0.948E-03    2.67       1.3  T
   4   -106.2874062 -0.475580E-05  0.330E-03    2.67       3.6  T
   5   -106.2874068 -0.543823E-06  0.999E-04    2.67      11.9  T
   6   -106.2874068 -0.435774E-08  0.562E-04    2.67      21.1  T
     SCC iter.                  ...        0 min,  0.024 sec
     gradient                   ...        0 min,  0.010 sec
 * total energy  :  -104.8326388 Eh     change       -0.2246108E-03 Eh
   gradient norm :     0.0073336 Eh/α   predicted    -0.1995157E-03 ( -11.17%)
   displ. norm   :     0.2886330 α      lambda       -0.2913707E-03
   maximum displ.:     0.1493827 α      in ANC's #11, #12, #9, ...

........................................................................
.............................. CYCLE   11 ..............................
........................................................................

 iter      E             dE          RMSdq      gap      omega  full diag
   1   -106.2888768 -0.106289E+03  0.560E-02    2.70       0.0  T
   2   -106.2888841 -0.732504E-05  0.332E-02    2.70       1.0  T
   3   -106.2888810  0.310393E-05  0.900E-03    2.69       1.3  T
   4   -106.2888840 -0.300730E-05  0.400E-03    2.69       3.0  T
   5   -106.2888850 -0.917880E-06  0.881E-04    2.69      13.5  T
   6   -106.2888850 -0.115816E-07  0.488E-04    2.69      24.3  T
     SCC iter.                  ...        0 min,  0.026 sec
     gradient                   ...        0 min,  0.011 sec
 * total energy  :  -104.8327884 Eh     change       -0.1495944E-03 Eh
   gradient norm :     0.0075027 Eh/α   predicted    -0.1578230E-03 (   5.50%)
   displ. norm   :     0.1773452 α      lambda       -0.1480331E-03
   maximum displ.:     0.0764601 α      in ANC's #11, #12, #9, ...

........................................................................
.............................. CYCLE   12 ..............................
........................................................................

 iter      E             dE          RMSdq      gap      omega  full diag
   1   -106.2872739 -0.106287E+03  0.366E-02    2.69       0.0  T
   2   -106.2872749 -0.993492E-06  0.217E-02    2.69       1.0  T
   3   -106.2872737  0.121895E-05  0.495E-03    2.69       2.4  T
   4   -106.2872751 -0.138185E-05  0.156E-03    2.69       7.6  T
   5   -106.2872752 -0.110747E-06  0.564E-04    2.69      21.0  T
   6   -106.2872752 -0.257772E-08  0.287E-04    2.69      41.3  T
     SCC iter.                  ...        0 min,  0.027 sec
     gradient                   ...        0 min,  0.011 sec
 * total energy  :  -104.8328894 Eh     change       -0.1010079E-03 Eh
   gradient norm :     0.0046340 Eh/α   predicted    -0.7634483E-04 ( -24.42%)
   displ. norm   :     0.2421225 α      lambda       -0.2016620E-03
   maximum displ.:     0.0965500 α      in ANC's #12, #9, #11, ...

........................................................................
.............................. CYCLE   13 ..............................
........................................................................

 iter      E             dE          RMSdq      gap      omega  full diag
   1   -106.2884106 -0.106288E+03  0.510E-02    2.68       0.0  T
   2   -106.2884143 -0.366265E-05  0.302E-02    2.68       1.0  T
   3   -106.2884112  0.310726E-05  0.836E-03    2.68       1.4  T
   4   -106.2884145 -0.331236E-05  0.303E-03    2.68       3.9  T
   5   -106.2884150 -0.485449E-06  0.827E-04    2.68      14.4  T
   6   -106.2884150 -0.481354E-08  0.429E-04    2.68      27.7  T
     SCC iter.                  ...        0 min,  0.024 sec
     gradient                   ...        0 min,  0.011 sec
 * total energy  :  -104.8329600 Eh     change       -0.7061283E-04 Eh
   gradient norm :     0.0081577 Eh/α   predicted    -0.1067442E-03 (  51.17%)
   displ. norm   :     0.1647414 α      lambda       -0.1773661E-03
   maximum displ.:     0.0691245 α      in ANC's #12, #5, #27, ...

........................................................................
.............................. CYCLE   14 ..............................
........................................................................

 iter      E             dE          RMSdq      gap      omega  full diag
   1   -106.2872711 -0.106287E+03  0.349E-02    2.69       0.0  T
   2   -106.2872728 -0.166059E-05  0.206E-02    2.69       1.0  T
   3   -106.2872706  0.217434E-05  0.651E-03    2.69       1.8  T
   4   -106.2872730 -0.238195E-05  0.194E-03    2.69       6.1  T
   5   -106.2872731 -0.185210E-06  0.573E-04    2.69      20.7  T
   6   -106.2872732 -0.129397E-08  0.341E-04    2.69      34.8  T
     SCC iter.                  ...        0 min,  0.042 sec
     gradient                   ...        0 min,  0.018 sec
 * total energy  :  -104.8330725 Eh     change       -0.1125185E-03 Eh
   gradient norm :     0.0048749 Eh/α   predicted    -0.9109147E-04 ( -19.04%)
   displ. norm   :     0.1843673 α      lambda       -0.1355298E-03
   maximum displ.:     0.0755362 α      in ANC's #12, #5, #27, ...

........................................................................
.............................. CYCLE   15 ..............................
........................................................................

 iter      E             dE          RMSdq      gap      omega  full diag
   1   -106.2873682 -0.106287E+03  0.350E-02    2.69       0.0  T
   2   -106.2873690 -0.713427E-06  0.208E-02    2.69       1.0  T
   3   -106.2873667  0.230245E-05  0.653E-03    2.69       1.8  T
   4   -106.2873692 -0.255010E-05  0.112E-03    2.69      10.6  T
   5   -106.2873693 -0.561207E-07  0.439E-04    2.69      27.0  T
   6   -106.2873693 -0.737842E-09  0.219E-04    2.69      54.1  T
     SCC iter.                  ...        0 min,  0.028 sec
     gradient                   ...        0 min,  0.013 sec
 * total energy  :  -104.8331816 Eh     change       -0.1090608E-03 Eh
   gradient norm :     0.0044557 Eh/α   predicted    -0.7007247E-04 ( -35.75%)
   displ. norm   :     0.4356348 α      lambda       -0.2784639E-03
   maximum displ.:     0.1689647 α      in ANC's #12, #5, #27, ...

........................................................................
.............................. CYCLE   16 ..............................
........................................................................

 iter      E             dE          RMSdq      gap      omega  full diag
   1   -106.2871084 -0.106287E+03  0.804E-02    2.70       0.0  T
   2   -106.2871112 -0.274530E-05  0.476E-02    2.70       1.0  T
   3   -106.2871022  0.897045E-05  0.129E-02    2.70       1.0  T
   4   -106.2871122 -0.999451E-05  0.231E-03    2.70       5.1  T
   5   -106.2871124 -0.222637E-06  0.946E-04    2.70      12.5  T
   6   -106.2871124 -0.495197E-08  0.420E-04    2.70      28.3  T
     SCC iter.                  ...        0 min,  0.025 sec
     gradient                   ...        0 min,  0.011 sec
 * total energy  :  -104.8333888 Eh     change       -0.2071682E-03 Eh
   gradient norm :     0.0073641 Eh/α   predicted    -0.1656599E-03 ( -20.04%)
   displ. norm   :     0.4395841 α      lambda       -0.2475167E-03
   maximum displ.:     0.1609304 α      in ANC's #12, #5, #27, ...

........................................................................
.............................. CYCLE   17 ..............................
........................................................................

 iter      E             dE          RMSdq      gap      omega  full diag
   1   -106.2868451 -0.106287E+03  0.802E-02    2.69       0.0  T
   2   -106.2868469 -0.174507E-05  0.474E-02    2.69       1.0  T
   3   -106.2868433  0.358362E-05  0.837E-03    2.69       1.4  T
   4   -106.2868474 -0.413582E-05  0.195E-03    2.69       6.1  T
   5   -106.2868476 -0.149747E-06  0.860E-04    2.69      13.8  T
   6   -106.2868476 -0.436164E-08  0.323E-04    2.69      36.7  T
     SCC iter.                  ...        0 min,  0.024 sec
     gradient                   ...        0 min,  0.013 sec
 * total energy  :  -104.8335776 Eh     change       -0.1888801E-03 Eh
   gradient norm :     0.0082385 Eh/α   predicted    -0.1476740E-03 ( -21.82%)
   displ. norm   :     0.4276455 α      lambda       -0.2694294E-03
   maximum displ.:     0.1482185 α      in ANC's #5, #12, #9, ...

........................................................................
.............................. CYCLE   18 ..............................
........................................................................

 iter      E             dE          RMSdq      gap      omega  full diag
   1   -106.2886288 -0.106289E+03  0.783E-02    2.69       0.0  T
   2   -106.2886298 -0.105932E-05  0.462E-02    2.69       1.0  T
   3   -106.2886287  0.114241E-05  0.505E-03    2.69       2.4  T
   4   -106.2886302 -0.154927E-05  0.154E-03    2.69       7.7  T
   5   -106.2886303 -0.568644E-07  0.780E-04    2.69      15.2  T
   6   -106.2886303 -0.503482E-08  0.318E-04    2.69      37.3  T
     SCC iter.                  ...        0 min,  0.024 sec
     gradient                   ...        0 min,  0.010 sec
 * total energy  :  -104.8337808 Eh     change       -0.2031775E-03 Eh
   gradient norm :     0.0067198 Eh/α   predicted    -0.1593551E-03 ( -21.57%)
   displ. norm   :     0.5573915 α      lambda       -0.2782696E-03
   maximum displ.:     0.2062880 α      in ANC's #12, #9, #5, ...

........................................................................
.............................. CYCLE   19 ..............................
........................................................................

 iter      E             dE          RMSdq      gap      omega  full diag
   1   -106.2841869 -0.106284E+03  0.105E-01    2.68       0.0  T
   2   -106.2841902 -0.333277E-05  0.617E-02    2.68       1.0  T
   3   -106.2841870  0.316804E-05  0.821E-03    2.68       1.4  T
   4   -106.2841910 -0.395606E-05  0.271E-03    2.68       4.4  T
   5   -106.2841913 -0.264649E-06  0.123E-03    2.68       9.6  T
   6   -106.2841913 -0.130140E-07  0.593E-04    2.68      20.0  T
   7   -106.2841913 -0.875173E-08  0.157E-04    2.68      75.5  T
     SCC iter.                  ...        0 min,  0.029 sec
     gradient                   ...        0 min,  0.012 sec
 * total energy  :  -104.8339428 Eh     change       -0.1619574E-03 Eh
   gradient norm :     0.0088903 Eh/α   predicted    -0.1823646E-03 (  12.60%)
   displ. norm   :     0.3177189 α      lambda       -0.4391356E-03
   maximum displ.:     0.1083296 α      in ANC's #16, #7, #5, ...

........................................................................
.............................. CYCLE   20 ..............................
........................................................................

 iter      E             dE          RMSdq      gap      omega  full diag
   1   -106.2974997 -0.106297E+03  0.677E-02    2.67       0.0  T
   2   -106.2975101 -0.104162E-04  0.395E-02    2.68       1.0  T
   3   -106.2975053  0.478875E-05  0.119E-02    2.68       1.0  T
   4   -106.2975106 -0.527723E-05  0.408E-03    2.68       2.9  T
   5   -106.2975116 -0.959136E-06  0.130E-03    2.68       9.1  T
   6   -106.2975116 -0.379223E-07  0.622E-04    2.68      19.1  T
   7   -106.2975116 -0.424561E-08  0.234E-04    2.68      50.8  T
     SCC iter.                  ...        0 min,  0.028 sec
     gradient                   ...        0 min,  0.010 sec
 * total energy  :  -104.8339688 Eh     change       -0.2599845E-04 Eh
   gradient norm :     0.0121222 Eh/α   predicted    -0.2417359E-03 ( 829.81%)
   displ. norm   :     0.2764212 α      lambda       -0.3862239E-03
   maximum displ.:     0.1073839 α      in ANC's #12, #9, #5, ...
 * RMSD in coord.:     0.6108272 α      energy gain  -0.5850948E-01 Eh

generating ANC from exact Hessian ...
Using Lindh-Hessian (1995)
 Shifting diagonal of input Hessian by   9.966774744717561E-003
 Lowest  eigenvalues of input Hessian
    0.000000    0.000000    0.000000    0.000000    0.000000    0.000000
    0.010000    0.010081    0.010142    0.010187    0.010225    0.010455
    0.010523    0.010707    0.011035    0.011220    0.011464    0.011763
 Highest eigenvalues
    2.008699    2.012812    2.120203    2.123820    2.375230    2.385022
 

........................................................................
.............................. CYCLE   21 ..............................
........................................................................

 iter      E             dE          RMSdq      gap      omega  full diag
   1   -106.2894537 -0.106289E+03  0.565E-02    2.69       0.0  T
   2   -106.2894587 -0.495512E-05  0.332E-02    2.68       1.0  T
   3   -106.2894539  0.483318E-05  0.103E-02    2.68       1.2  T
   4   -106.2894591 -0.519599E-05  0.327E-03    2.68       3.6  T
   5   -106.2894596 -0.575106E-06  0.869E-04    2.68      13.7  T
   6   -106.2894596 -0.373848E-08  0.481E-04    2.68      24.7  T
     SCC iter.                  ...        0 min,  0.025 sec
     gradient                   ...        0 min,  0.013 sec
 * total energy  :  -104.8341882 Eh     change       -0.2194298E-03 Eh
   gradient norm :     0.0061882 Eh/α   predicted     0.0000000E+00 (-100.00%)
   displ. norm   :     0.0534586 α      lambda       -0.1211626E-03
   maximum displ.:     0.0228021 α      in ANC's #24, #8, #14, ...

........................................................................
.............................. CYCLE   22 ..............................
........................................................................

 iter      E             dE          RMSdq      gap      omega  full diag
   1   -106.2912716 -0.106291E+03  0.160E-02    2.69       0.0  T
   2   -106.2912721 -0.458410E-06  0.965E-03    2.69       1.2  T
   3   -106.2912710  0.102895E-05  0.478E-03    2.69       2.5  T
   4   -106.2912722 -0.118813E-05  0.974E-04    2.69      12.2  T
   5   -106.2912723 -0.397270E-07  0.318E-04    2.69      37.3  T
   6   -106.2912723 -0.141225E-08  0.175E-04    2.69      67.9  T
     SCC iter.                  ...        0 min,  0.026 sec
     gradient                   ...        0 min,  0.012 sec
 * total energy  :  -104.8342663 Eh     change       -0.7806007E-04 Eh
   gradient norm :     0.0026445 Eh/α   predicted    -0.6079232E-04 ( -22.12%)
   displ. norm   :     0.0936673 α      lambda       -0.9377855E-04
   maximum displ.:     0.0404559 α      in ANC's #24, #8, #14, ...

........................................................................
.............................. CYCLE   23 ..............................
........................................................................

 iter      E             dE          RMSdq      gap      omega  full diag
   1   -106.2927818 -0.106293E+03  0.178E-02    2.70       0.0  T
   2   -106.2927823 -0.480053E-06  0.106E-02    2.70       1.1  T
   3   -106.2927809  0.140489E-05  0.567E-03    2.70       2.1  T
   4   -106.2927825 -0.164230E-05  0.963E-04    2.70      12.3  T
   5   -106.2927825 -0.403042E-07  0.326E-04    2.70      36.4  T
   6   -106.2927825 -0.185551E-08  0.175E-04    2.70      68.0  T
     SCC iter.                  ...        0 min,  0.066 sec
     gradient                   ...        0 min,  0.015 sec
 * total energy  :  -104.8343277 Eh     change       -0.6140649E-04 Eh
   gradient norm :     0.0025617 Eh/α   predicted    -0.4734987E-04 ( -22.89%)
   displ. norm   :     0.1250102 α      lambda       -0.7127661E-04
   maximum displ.:     0.0519988 α      in ANC's #24, #8, #14, ...

........................................................................
.............................. CYCLE   24 ..............................
........................................................................

 iter      E             dE          RMSdq      gap      omega  full diag
   1   -106.2926190 -0.106293E+03  0.182E-02    2.70       0.0  T
   2   -106.2926192 -0.231369E-06  0.108E-02    2.70       1.1  T
   3   -106.2926185  0.700637E-06  0.369E-03    2.70       3.2  T
   4   -106.2926193 -0.780538E-06  0.668E-04    2.70      17.8  T
   5   -106.2926193 -0.190198E-07  0.251E-04    2.70      47.4  T
     SCC iter.                  ...        0 min,  0.021 sec
     gradient                   ...        0 min,  0.011 sec
 * total energy  :  -104.8343839 Eh     change       -0.5628194E-04 Eh
   gradient norm :     0.0035570 Eh/α   predicted    -0.3619892E-04 ( -35.68%)
   displ. norm   :     0.2356996 α      lambda       -0.1112315E-03
   maximum displ.:     0.0984223 α      in ANC's #8, #24, #29, ...

........................................................................
.............................. CYCLE   25 ..............................
........................................................................

 iter      E             dE          RMSdq      gap      omega  full diag
   1   -106.2909944 -0.106291E+03  0.337E-02    2.70       0.0  T
   2   -106.2909950 -0.619035E-06  0.201E-02    2.70       1.0  T
   3   -106.2909943  0.672189E-06  0.360E-03    2.70       3.3  T
   4   -106.2909951 -0.771777E-06  0.110E-03    2.70      10.8  T
   5   -106.2909951 -0.543372E-07  0.441E-04    2.70      26.9  T
   6   -106.2909951 -0.131379E-08  0.248E-04    2.70      47.9  T
     SCC iter.                  ...        0 min,  0.026 sec
     gradient                   ...        0 min,  0.012 sec
 * total energy  :  -104.8344587 Eh     change       -0.7480333E-04 Eh
   gradient norm :     0.0040351 Eh/α   predicted    -0.5871821E-04 ( -21.50%)
   displ. norm   :     0.1593079 α      lambda       -0.5974419E-04
   maximum displ.:     0.0692579 α      in ANC's #8, #29, #24, ...

........................................................................
.............................. CYCLE   26 ..............................
........................................................................

 iter      E             dE          RMSdq      gap      omega  full diag
   1   -106.2902837 -0.106290E+03  0.235E-02    2.70       0.0  T
   2   -106.2902839 -0.221224E-06  0.140E-02    2.70       1.0  T
   3   -106.2902836  0.295421E-06  0.220E-03    2.70       5.4  T
   4   -106.2902840 -0.349605E-06  0.612E-04    2.70      19.4  T
   5   -106.2902840 -0.161341E-07  0.285E-04    2.70      41.6  T
     SCC iter.                  ...        0 min,  0.022 sec
     gradient                   ...        0 min,  0.011 sec
 * total energy  :  -104.8345029 Eh     change       -0.4415076E-04 Eh
   gradient norm :     0.0034871 Eh/α   predicted    -0.3068952E-04 ( -30.49%)
   displ. norm   :     0.1711496 α      lambda       -0.7168693E-04
   maximum displ.:     0.0748595 α      in ANC's #8, #29, #27, ...

........................................................................
.............................. CYCLE   27 ..............................
........................................................................

 iter      E             dE          RMSdq      gap      omega  full diag
   1   -106.2904174 -0.106290E+03  0.272E-02    2.70       0.0  T
   2   -106.2904178 -0.366156E-06  0.162E-02    2.70       1.0  T
   3   -106.2904172  0.588445E-06  0.307E-03    2.70       3.9  T
   4   -106.2904179 -0.685087E-06  0.747E-04    2.70      15.9  T
   5   -106.2904179 -0.233764E-07  0.361E-04    2.70      32.9  T
     SCC iter.                  ...        0 min,  0.022 sec
     gradient                   ...        0 min,  0.012 sec
 * total energy  :  -104.8345550 Eh     change       -0.5210737E-04 Eh
   gradient norm :     0.0028373 Eh/α   predicted    -0.3689575E-04 ( -29.19%)
   displ. norm   :     0.1760638 α      lambda       -0.6659482E-04
   maximum displ.:     0.0742236 α      in ANC's #8, #28, #25, ...

........................................................................
.............................. CYCLE   28 ..............................
........................................................................

 iter      E             dE          RMSdq      gap      omega  full diag
   1   -106.2909993 -0.106291E+03  0.275E-02    2.70       0.0  T
   2   -106.2909996 -0.304646E-06  0.163E-02    2.70       1.0  T
   3   -106.2909993  0.267480E-06  0.218E-03    2.70       5.4  T
   4   -106.2909997 -0.342338E-06  0.630E-04    2.70      18.8  T
   5   -106.2909997 -0.145806E-07  0.326E-04    2.70      36.4  T
     SCC iter.                  ...        0 min,  0.021 sec
     gradient                   ...        0 min,  0.012 sec
 * total energy  :  -104.8346049 Eh     change       -0.4991445E-04 Eh
   gradient norm :     0.0032933 Eh/α   predicted    -0.3434235E-04 ( -31.20%)
   displ. norm   :     0.2271905 α      lambda       -0.7310985E-04
   maximum displ.:     0.0901289 α      in ANC's #8, #28, #25, ...

........................................................................
.............................. CYCLE   29 ..............................
........................................................................

 iter      E             dE          RMSdq      gap      omega  full diag
   1   -106.2912070 -0.106291E+03  0.346E-02    2.70       0.0  T
   2   -106.2912073 -0.308827E-06  0.205E-02    2.70       1.0  T
   3   -106.2912071  0.246452E-06  0.241E-03    2.70       4.9  T
   4   -106.2912074 -0.340934E-06  0.840E-04    2.70      14.1  T
   5   -106.2912074 -0.190312E-07  0.430E-04    2.70      27.6  T
     SCC iter.                  ...        0 min,  0.021 sec
     gradient                   ...        0 min,  0.011 sec
 * total energy  :  -104.8346593 Eh     change       -0.5442449E-04 Eh
   gradient norm :     0.0039086 Eh/α   predicted    -0.3844369E-04 ( -29.36%)
   displ. norm   :     0.2309094 α      lambda       -0.8109860E-04
   maximum displ.:     0.0988954 α      in ANC's #28, #8, #25, ...

........................................................................
.............................. CYCLE   30 ..............................
........................................................................

 iter      E             dE          RMSdq      gap      omega  full diag
   1   -106.2922968 -0.106292E+03  0.354E-02    2.70       0.0  T
   2   -106.2922971 -0.294052E-06  0.210E-02    2.70       1.0  T
   3   -106.2922966  0.480399E-06  0.316E-03    2.70       3.8  T
   4   -106.2922973 -0.624787E-06  0.885E-04    2.70      13.4  T
   5   -106.2922973 -0.129342E-07  0.495E-04    2.70      24.0  T
     SCC iter.                  ...        0 min,  0.021 sec
     gradient                   ...        0 min,  0.010 sec
 * total energy  :  -104.8347141 Eh     change       -0.5472787E-04 Eh
   gradient norm :     0.0033637 Eh/α   predicted    -0.4271376E-04 ( -21.95%)
   displ. norm   :     0.3258520 α      lambda       -0.6965046E-04
   maximum displ.:     0.1215704 α      in ANC's #28, #8, #25, ...

........................................................................
.............................. CYCLE   31 ..............................
........................................................................

 iter      E             dE          RMSdq      gap      omega  full diag
   1   -106.2894471 -0.106289E+03  0.487E-02    2.71       0.0  T
   2   -106.2894493 -0.215364E-05  0.288E-02    2.71       1.0  T
   3   -106.2894479  0.135229E-05  0.574E-03    2.71       2.1  T
   4   -106.2894494 -0.146803E-05  0.219E-03    2.71       5.4  T
   5   -106.2894496 -0.242670E-06  0.709E-04    2.71      16.7  T
   6   -106.2894496 -0.348669E-08  0.359E-04    2.71      33.1  T
     SCC iter.                  ...        0 min,  0.024 sec
     gradient                   ...        0 min,  0.009 sec
 * total energy  :  -104.8347292 Eh     change       -0.1513326E-04 Eh
   gradient norm :     0.0054287 Eh/α   predicted    -0.3853612E-04 ( 154.65%)
   displ. norm   :     0.0870777 α      lambda       -0.1039571E-03
   maximum displ.:     0.0285097 α      in ANC's #8, #10, #27, ...

........................................................................
.............................. CYCLE   32 ..............................
........................................................................

 iter      E             dE          RMSdq      gap      omega  full diag
   1   -106.2927630 -0.106293E+03  0.201E-02    2.71       0.0  T
   2   -106.2927642 -0.121837E-05  0.115E-02    2.71       1.0  T
   3   -106.2927641  0.734531E-07  0.289E-03    2.71       4.1  T
   4   -106.2927643 -0.153915E-06  0.105E-03    2.71      11.3  T
   5   -106.2927643 -0.558564E-07  0.448E-04    2.71      26.5  T
   6   -106.2927643 -0.133402E-08  0.245E-04    2.71      48.5  T
     SCC iter.                  ...        0 min,  0.026 sec
     gradient                   ...        0 min,  0.009 sec
 * total energy  :  -104.8347722 Eh     change       -0.4301772E-04 Eh
   gradient norm :     0.0024218 Eh/α   predicted    -0.5238560E-04 (  21.78%)
   displ. norm   :     0.0604905 α      lambda       -0.2983035E-04
   maximum displ.:     0.0232858 α      in ANC's #3, #1, #24, ...

........................................................................
.............................. CYCLE   33 ..............................
........................................................................

 iter      E             dE          RMSdq      gap      omega  full diag
   1   -106.2925524 -0.106293E+03  0.116E-02    2.71       0.0  T
   2   -106.2925525 -0.545646E-07  0.693E-03    2.71       1.7  T
   3   -106.2925525  0.384675E-07  0.958E-04    2.71      12.4  T
   4   -106.2925525 -0.531531E-07  0.353E-04    2.71      33.6  T
     SCC iter.                  ...        0 min,  0.019 sec
     gradient                   ...        0 min,  0.013 sec
 * total energy  :  -104.8347921 Eh     change       -0.1992747E-04 Eh
   gradient norm :     0.0014861 Eh/α   predicted    -0.1497046E-04 ( -24.88%)
   displ. norm   :     0.2192878 α      lambda       -0.2954088E-04
   maximum displ.:     0.0832505 α      in ANC's #3, #28, #1, ...

........................................................................
.............................. CYCLE   34 ..............................
........................................................................

 iter      E             dE          RMSdq      gap      omega  full diag
   1   -106.2912768 -0.106291E+03  0.350E-02    2.71       0.0  T
   2   -106.2912773 -0.502213E-06  0.207E-02    2.71       1.0  T
   3   -106.2912770  0.350027E-06  0.300E-03    2.71       4.0  T
   4   -106.2912774 -0.454966E-06  0.117E-03    2.71      10.1  T
   5   -106.2912775 -0.512280E-07  0.503E-04    2.71      23.6  T
   6   -106.2912775  0.234664E-09  0.204E-04    2.71      58.1  T
     SCC iter.                  ...        0 min,  0.032 sec
     gradient                   ...        0 min,  0.013 sec
 * total energy  :  -104.8348154 Eh     change       -0.2324766E-04 Eh
   gradient norm :     0.0028393 Eh/α   predicted    -0.1508714E-04 ( -35.10%)
   displ. norm   :     0.0603756 α      lambda       -0.2129181E-04
   maximum displ.:     0.0279117 α      in ANC's #3, #9, #1, ...

........................................................................
.............................. CYCLE   35 ..............................
........................................................................

 iter      E             dE          RMSdq      gap      omega  full diag
   1   -106.2920108 -0.106292E+03  0.109E-02    2.71       0.0  T
   2   -106.2920109 -0.100426E-06  0.640E-03    2.71       1.9  T
   3   -106.2920108  0.704115E-07  0.131E-03    2.71       9.1  T
   4   -106.2920109 -0.830553E-07  0.474E-04    2.71      25.0  T
   5   -106.2920109 -0.103026E-07  0.190E-04    2.71      62.4  T
     SCC iter.                  ...        0 min,  0.025 sec
     gradient                   ...        0 min,  0.011 sec
 * total energy  :  -104.8348326 Eh     change       -0.1715842E-04 Eh
   gradient norm :     0.0019058 Eh/α   predicted    -0.1068539E-04 ( -37.73%)
   displ. norm   :     0.3176300 α      lambda       -0.4353099E-04
   maximum displ.:     0.1459115 α      in ANC's #3, #1, #9, ...

........................................................................
.............................. CYCLE   36 ..............................
........................................................................

 iter      E             dE          RMSdq      gap      omega  full diag
   1   -106.2923782 -0.106292E+03  0.550E-02    2.71       0.0  T
   2   -106.2923790 -0.755720E-06  0.324E-02    2.71       1.0  T
   3   -106.2923785  0.487583E-06  0.379E-03    2.71       3.1  T
   4   -106.2923793 -0.851530E-06  0.146E-03    2.71       8.1  T
   5   -106.2923794 -0.325762E-07  0.795E-04    2.71      14.9  T
   6   -106.2923794 -0.480348E-08  0.325E-04    2.71      36.5  T
     SCC iter.                  ...        0 min,  0.030 sec
     gradient                   ...        0 min,  0.011 sec
 * total energy  :  -104.8348725 Eh     change       -0.3998477E-04 Eh
   gradient norm :     0.0020706 Eh/α   predicted    -0.2274269E-04 ( -43.12%)
   displ. norm   :     0.1655531 α      lambda       -0.2321095E-04
   maximum displ.:     0.0759588 α      in ANC's #3, #1, #9, ...

........................................................................
.............................. CYCLE   37 ..............................
........................................................................

 iter      E             dE          RMSdq      gap      omega  full diag
   1   -106.2920699 -0.106292E+03  0.272E-02    2.71       0.0  T
   2   -106.2920701 -0.213005E-06  0.160E-02    2.71       1.0  T
   3   -106.2920700  0.503878E-07  0.155E-03    2.71       7.7  T
   4   -106.2920701 -0.132670E-06  0.702E-04    2.71      16.9  T
   5   -106.2920702 -0.100463E-07  0.391E-04    2.71      30.4  T
     SCC iter.                  ...        0 min,  0.025 sec
     gradient                   ...        0 min,  0.014 sec
 * total energy  :  -104.8348917 Eh     change       -0.1919979E-04 Eh
   gradient norm :     0.0015701 Eh/α   predicted    -0.1192507E-04 ( -37.89%)
   displ. norm   :     0.3510291 α      lambda       -0.3503530E-04
   maximum displ.:     0.1701596 α      in ANC's #3, #1, #9, ...

........................................................................
.............................. CYCLE   38 ..............................
........................................................................

 iter      E             dE          RMSdq      gap      omega  full diag
   1   -106.2920954 -0.106292E+03  0.589E-02    2.71       0.0  T
   2   -106.2920963 -0.880836E-06  0.347E-02    2.71       1.0  T
   3   -106.2920956  0.721429E-06  0.415E-03    2.71       2.9  T
   4   -106.2920968 -0.117623E-05  0.147E-03    2.71       8.1  T
   5   -106.2920968 -0.206708E-07  0.855E-04    2.71      13.9  T
   6   -106.2920968 -0.109928E-07  0.343E-04    2.71      34.6  T
     SCC iter.                  ...        0 min,  0.057 sec
     gradient                   ...        0 min,  0.010 sec
 * total energy  :  -104.8349190 Eh     change       -0.2724769E-04 Eh
   gradient norm :     0.0016067 Eh/α   predicted    -0.1847891E-04 ( -32.18%)
   displ. norm   :     0.0691140 α      lambda       -0.9410617E-05
   maximum displ.:     0.0347267 α      in ANC's #3, #1, #9, ...

........................................................................
.............................. CYCLE   39 ..............................
........................................................................

 iter      E             dE          RMSdq      gap      omega  full diag
   1   -106.2925433 -0.106293E+03  0.130E-02    2.71       0.0  T
   2   -106.2925434 -0.123942E-06  0.762E-03    2.71       1.6  T
   3   -106.2925434  0.144960E-07  0.886E-04    2.71      13.4  T
   4   -106.2925435 -0.306459E-07  0.435E-04    2.71      27.3  T
     SCC iter.                  ...        0 min,  0.023 sec
     gradient                   ...        0 min,  0.011 sec
 * total energy  :  -104.8349294 Eh     change       -0.1045985E-04 Eh
   gradient norm :     0.0010925 Eh/α   predicted    -0.4716532E-05 ( -54.91%)
   displ. norm   :     0.2092502 α      lambda       -0.2302054E-04
   maximum displ.:     0.1053213 α      in ANC's #3, #1, #9, ...

........................................................................
.............................. CYCLE   40 ..............................
........................................................................

 iter      E             dE          RMSdq      gap      omega  full diag
   1   -106.2927825 -0.106293E+03  0.371E-02    2.71       0.0  T
   2   -106.2927832 -0.770222E-06  0.218E-02    2.71       1.0  T
   3   -106.2927832  0.274291E-07  0.200E-03    2.71       5.9  T
   4   -106.2927834 -0.145568E-06  0.111E-03    2.71      10.7  T
   5   -106.2927834 -0.446737E-07  0.528E-04    2.71      22.5  T
   6   -106.2927834 -0.143849E-08  0.254E-04    2.71      46.8  T
     SCC iter.                  ...        0 min,  0.029 sec
     gradient                   ...        0 min,  0.010 sec
 * total energy  :  -104.8349416 Eh     change       -0.1213529E-04 Eh
   gradient norm :     0.0032333 Eh/α   predicted    -0.1173456E-04 (  -3.30%)
   displ. norm   :     0.1076692 α      lambda       -0.2244287E-04
   maximum displ.:     0.0538991 α      in ANC's #3, #1, #9, ...

........................................................................
.............................. CYCLE   41 ..............................
........................................................................

 iter      E             dE          RMSdq      gap      omega  full diag
   1   -106.2926487 -0.106293E+03  0.178E-02    2.71       0.0  T
   2   -106.2926489 -0.225834E-06  0.104E-02    2.71       1.1  T
   3   -106.2926489  0.364769E-07  0.131E-03    2.71       9.1  T
   4   -106.2926490 -0.539884E-07  0.678E-04    2.71      17.5  T
   5   -106.2926490 -0.222254E-07  0.273E-04    2.71      43.5  T
     SCC iter.                  ...        0 min,  0.032 sec
     gradient                   ...        0 min,  0.011 sec
 * total energy  :  -104.8349575 Eh     change       -0.1587926E-04 Eh
   gradient norm :     0.0018792 Eh/α   predicted    -0.1135252E-04 ( -28.51%)
   displ. norm   :     0.2138483 α      lambda       -0.2098614E-04
   maximum displ.:     0.1090203 α      in ANC's #3, #1, #9, ...

........................................................................
.............................. CYCLE   42 ..............................
........................................................................

 iter      E             dE          RMSdq      gap      omega  full diag
   1   -106.2926908 -0.106293E+03  0.355E-02    2.71       0.0  T
   2   -106.2926912 -0.482403E-06  0.209E-02    2.71       1.0  T
   3   -106.2926911  0.101908E-06  0.208E-03    2.71       5.7  T
   4   -106.2926913 -0.204173E-06  0.996E-04    2.71      11.9  T
   5   -106.2926914 -0.373537E-07  0.495E-04    2.71      24.0  T
     SCC iter.                  ...        0 min,  0.024 sec
     gradient                   ...        0 min,  0.011 sec
 * total energy  :  -104.8349786 Eh     change       -0.2113089E-04 Eh
   gradient norm :     0.0019184 Eh/α   predicted    -0.1070697E-04 ( -49.33%)
   displ. norm   :     0.2461078 α      lambda       -0.2063799E-04
   maximum displ.:     0.1258044 α      in ANC's #3, #1, #9, ...
 * RMSD in coord.:     0.3725962 α      energy gain  -0.1009829E-02 Eh

generating ANC from exact Hessian ...
Using Lindh-Hessian (1995)
 Shifting diagonal of input Hessian by   9.967437468665583E-003
 Lowest  eigenvalues of input Hessian
    0.000000    0.000000    0.000000    0.000000    0.000000    0.000000
    0.010000    0.010085    0.010150    0.010186    0.010230    0.010458
    0.010522    0.010716    0.011046    0.011217    0.011483    0.011740
 Highest eigenvalues
    2.008956    2.011838    2.119943    2.124102    2.380464    2.381450
 

........................................................................
.............................. CYCLE   43 ..............................
........................................................................

 iter      E             dE          RMSdq      gap      omega  full diag
   1   -106.2923478 -0.106292E+03  0.398E-02    2.71       0.0  T
   2   -106.2923481 -0.363231E-06  0.235E-02    2.71       1.0  T
   3   -106.2923480  0.964093E-07  0.209E-03    2.71       5.7  T
   4   -106.2923483 -0.255494E-06  0.899E-04    2.71      13.2  T
   5   -106.2923483 -0.979145E-08  0.518E-04    2.71      22.9  T
     SCC iter.                  ...        0 min,  0.025 sec
     gradient                   ...        0 min,  0.013 sec
 * total energy  :  -104.8350055 Eh     change       -0.2690332E-04 Eh
   gradient norm :     0.0019323 Eh/α   predicted     0.0000000E+00 (-100.00%)
   displ. norm   :     0.0335453 α      lambda       -0.1267975E-04
   maximum displ.:     0.0153870 α      in ANC's #12, #10, #13, ...

........................................................................
.............................. CYCLE   44 ..............................
........................................................................

 iter      E             dE          RMSdq      gap      omega  full diag
   1   -106.2926902 -0.106293E+03  0.825E-03    2.71       0.0  T
   2   -106.2926904 -0.205058E-06  0.481E-03    2.71       2.5  T
   3   -106.2926904  0.732390E-07  0.159E-03    2.71       7.5  T
   4   -106.2926904 -0.739833E-07  0.639E-04    2.71      18.6  T
   5   -106.2926905 -0.241982E-07  0.164E-04    2.71      72.3  T
     SCC iter.                  ...        0 min,  0.024 sec
     gradient                   ...        0 min,  0.011 sec
 * total energy  :  -104.8350185 Eh     change       -0.1301776E-04 Eh
   gradient norm :     0.0006125 Eh/α   predicted    -0.6438220E-05 ( -50.54%)
   displ. norm   :     0.0740729 α      lambda       -0.1355973E-04
   maximum displ.:     0.0359278 α      in ANC's #12, #10, #1, ...

........................................................................
.............................. CYCLE   45 ..............................
........................................................................

 iter      E             dE          RMSdq      gap      omega  full diag
   1   -106.2928853 -0.106293E+03  0.151E-02    2.71       0.0  T
   2   -106.2928856 -0.220453E-06  0.889E-03    2.71       1.3  T
   3   -106.2928855  0.892113E-07  0.151E-03    2.71       7.8  T
   4   -106.2928856 -0.101018E-06  0.576E-04    2.71      20.6  T
   5   -106.2928856 -0.191303E-07  0.205E-04    2.71      58.0  T
     SCC iter.                  ...        0 min,  0.021 sec
     gradient                   ...        0 min,  0.012 sec
 * total energy  :  -104.8350327 Eh     change       -0.1415605E-04 Eh
   gradient norm :     0.0015236 Eh/α   predicted    -0.6801666E-05 ( -51.95%)
   displ. norm   :     0.1563729 α      lambda       -0.2239722E-04
   maximum displ.:     0.0749839 α      in ANC's #12, #10, #1, ...

........................................................................
.............................. CYCLE   46 ..............................
........................................................................

 iter      E             dE          RMSdq      gap      omega  full diag
   1   -106.2927443 -0.106293E+03  0.301E-02    2.71       0.0  T
   2   -106.2927447 -0.332603E-06  0.178E-02    2.71       1.0  T
   3   -106.2927445  0.174788E-06  0.199E-03    2.71       6.0  T
   4   -106.2927447 -0.232241E-06  0.749E-04    2.71      15.8  T
   5   -106.2927447 -0.246489E-07  0.338E-04    2.71      35.1  T
     SCC iter.                  ...        0 min,  0.034 sec
     gradient                   ...        0 min,  0.015 sec
 * total energy  :  -104.8350523 Eh     change       -0.1964470E-04 Eh
   gradient norm :     0.0024389 Eh/α   predicted    -0.1132303E-04 ( -42.36%)
   displ. norm   :     0.0871452 α      lambda       -0.1685259E-04
   maximum displ.:     0.0424463 α      in ANC's #10, #12, #1, ...

........................................................................
.............................. CYCLE   47 ..............................
........................................................................

 iter      E             dE          RMSdq      gap      omega  full diag
   1   -106.2926532 -0.106293E+03  0.162E-02    2.70       0.0  T
   2   -106.2926533 -0.549106E-07  0.953E-03    2.70       1.2  T
   3   -106.2926532  0.206913E-07  0.778E-04    2.70      15.3  T
   4   -106.2926533 -0.387271E-07  0.293E-04    2.70      40.5  T
     SCC iter.                  ...        0 min,  0.020 sec
     gradient                   ...        0 min,  0.012 sec
 * total energy  :  -104.8350670 Eh     change       -0.1469323E-04 Eh
   gradient norm :     0.0019062 Eh/α   predicted    -0.8500263E-05 ( -42.15%)
   displ. norm   :     0.3286721 α      lambda       -0.3999073E-04
   maximum displ.:     0.1594575 α      in ANC's #10, #12, #1, ...

........................................................................
.............................. CYCLE   48 ..............................
........................................................................

 iter      E             dE          RMSdq      gap      omega  full diag
   1   -106.2919713 -0.106292E+03  0.606E-02    2.70       0.0  T
   2   -106.2919725 -0.112726E-05  0.357E-02    2.70       1.0  T
   3   -106.2919722  0.302205E-06  0.307E-03    2.70       3.9  T
   4   -106.2919727 -0.536391E-06  0.122E-03    2.70       9.8  T
   5   -106.2919728 -0.520271E-07  0.646E-04    2.70      18.4  T
   6   -106.2919728 -0.564826E-08  0.310E-04    2.70      38.3  T
     SCC iter.                  ...        0 min,  0.027 sec
     gradient                   ...        0 min,  0.012 sec
 * total energy  :  -104.8351033 Eh     change       -0.3628099E-04 Eh
   gradient norm :     0.0018372 Eh/α   predicted    -0.2095760E-04 ( -42.24%)
   displ. norm   :     0.1661961 α      lambda       -0.1953378E-04
   maximum displ.:     0.0823936 α      in ANC's #10, #1, #12, ...

........................................................................
.............................. CYCLE   49 ..............................
........................................................................

 iter      E             dE          RMSdq      gap      omega  full diag
   1   -106.2922502 -0.106292E+03  0.307E-02    2.70       0.0  T
   2   -106.2922504 -0.206533E-06  0.181E-02    2.70       1.0  T
   3   -106.2922503  0.978048E-07  0.161E-03    2.70       7.4  T
   4   -106.2922505 -0.152360E-06  0.624E-04    2.70      19.0  T
   5   -106.2922505 -0.141224E-07  0.308E-04    2.70      38.5  T
     SCC iter.                  ...        0 min,  0.020 sec
     gradient                   ...        0 min,  0.010 sec
 * total energy  :  -104.8351292 Eh     change       -0.2586960E-04 Eh
   gradient norm :     0.0021848 Eh/α   predicted    -0.9928708E-05 ( -61.62%)
   displ. norm   :     0.3066022 α      lambda       -0.6334465E-04
   maximum displ.:     0.1483988 α      in ANC's #10, #9, #1, ...

........................................................................
.............................. CYCLE   50 ..............................
........................................................................

 iter      E             dE          RMSdq      gap      omega  full diag
   1   -106.2922511 -0.106292E+03  0.577E-02    2.70       0.0  T
   2   -106.2922516 -0.511347E-06  0.340E-02    2.70       1.0  T
   3   -106.2922514  0.206354E-06  0.259E-03    2.70       4.6  T
   4   -106.2922518 -0.413834E-06  0.944E-04    2.70      12.6  T
   5   -106.2922518 -0.153816E-07  0.551E-04    2.70      21.5  T
     SCC iter.                  ...        0 min,  0.021 sec
     gradient                   ...        0 min,  0.010 sec
 * total energy  :  -104.8351817 Eh     change       -0.5255285E-04 Eh
   gradient norm :     0.0023960 Eh/α   predicted    -0.3465004E-04 ( -34.07%)
   displ. norm   :     0.4823464 α      lambda       -0.8446147E-04
   maximum displ.:     0.2303803 α      in ANC's #10, #9, #1, ...

........................................................................
.............................. CYCLE   51 ..............................
........................................................................

 iter      E             dE          RMSdq      gap      omega  full diag
   1   -106.2906281 -0.106291E+03  0.912E-02    2.69       0.0  T
   2   -106.2906293 -0.121328E-05  0.537E-02    2.69       1.0  T
   3   -106.2906289  0.400504E-06  0.392E-03    2.69       3.0  T
   4   -106.2906299 -0.928752E-06  0.145E-03    2.69       8.2  T
   5   -106.2906299 -0.251441E-07  0.851E-04    2.69      13.9  T
   6   -106.2906299 -0.125847E-07  0.317E-04    2.69      37.5  T
     SCC iter.                  ...        0 min,  0.025 sec
     gradient                   ...        0 min,  0.010 sec
 * total energy  :  -104.8352418 Eh     change       -0.6005212E-04 Eh
   gradient norm :     0.0032670 Eh/α   predicted    -0.5205795E-04 ( -13.31%)
   displ. norm   :     0.4823464 α      lambda        0.0000000E+00
   maximum displ.:     0.2303803 α      in ANC's #10, #9, #1, ...

........................................................................
.............................. CYCLE   52 ..............................
........................................................................

 iter      E             dE          RMSdq      gap      omega  full diag
   1   -106.2860903 -0.106286E+03  0.915E-02    2.67       0.0  T
   2   -106.2860916 -0.136332E-05  0.539E-02    2.67       1.0  T
   3   -106.2860911  0.569907E-06  0.439E-03    2.67       2.7  T
   4   -106.2860922 -0.110665E-05  0.158E-03    2.67       7.5  T
   5   -106.2860922 -0.454546E-07  0.900E-04    2.67      13.2  T
   6   -106.2860922 -0.127737E-07  0.335E-04    2.67      35.4  T
     SCC iter.                  ...        0 min,  0.025 sec
     gradient                   ...        0 min,  0.010 sec
 * total energy  :  -104.8352241 Eh     change        0.1761884E-04 Eh
   gradient norm :     0.0066541 Eh/α   predicted     0.4858087E-08 ( -99.97%)
   displ. norm   :     0.1376364 α      lambda       -0.1062458E-03
   maximum displ.:     0.0665198 α      in ANC's #10, #12, #1, ...

........................................................................
.............................. CYCLE   53 ..............................
........................................................................

 iter      E             dE          RMSdq      gap      omega  full diag
   1   -106.2913736 -0.106291E+03  0.282E-02    2.68       0.0  T
   2   -106.2913741 -0.486421E-06  0.166E-02    2.68       1.0  T
   3   -106.2913736  0.470686E-06  0.302E-03    2.68       3.9  T
   4   -106.2913741 -0.564231E-06  0.888E-04    2.68      13.4  T
   5   -106.2913742 -0.361646E-07  0.370E-04    2.68      32.0  T
     SCC iter.                  ...        0 min,  0.025 sec
     gradient                   ...        0 min,  0.010 sec
 * total energy  :  -104.8352893 Eh     change       -0.6518707E-04 Eh
   gradient norm :     0.0030700 Eh/α   predicted    -0.5415046E-04 ( -16.93%)
   displ. norm   :     0.1291071 α      lambda       -0.5909237E-04
   maximum displ.:     0.0542011 α      in ANC's #9, #10, #1, ...

........................................................................
.............................. CYCLE   54 ..............................
........................................................................

 iter      E             dE          RMSdq      gap      omega  full diag
   1   -106.2932665 -0.106293E+03  0.257E-02    2.68       0.0  T
   2   -106.2932667 -0.262485E-06  0.152E-02    2.68       1.0  T
   3   -106.2932664  0.272795E-06  0.227E-03    2.68       5.2  T
   4   -106.2932668 -0.330596E-06  0.736E-04    2.68      16.1  T
   5   -106.2932668 -0.233579E-07  0.325E-04    2.68      36.6  T
     SCC iter.                  ...        0 min,  0.021 sec
     gradient                   ...        0 min,  0.010 sec
 * total energy  :  -104.8353367 Eh     change       -0.4733633E-04 Eh
   gradient norm :     0.0017662 Eh/α   predicted    -0.3003959E-04 ( -36.54%)
   displ. norm   :     0.6980213 α      lambda       -0.1178902E-03
   maximum displ.:     0.3084418 α      in ANC's #9, #10, #1, ...

........................................................................
.............................. CYCLE   55 ..............................
........................................................................

 iter      E             dE          RMSdq      gap      omega  full diag
   1   -106.2938671 -0.106294E+03  0.136E-01    2.68       0.0  T
   2   -106.2938707 -0.355224E-05  0.800E-02    2.68       1.0  T
   3   -106.2938682  0.245715E-05  0.765E-03    2.68       1.6  T
   4   -106.2938720 -0.380256E-05  0.265E-03    2.68       4.5  T
   5   -106.2938722 -0.158612E-06  0.146E-03    2.68       8.1  T
   6   -106.2938722 -0.329635E-07  0.608E-04    2.68      19.5  T
   7   -106.2938722 -0.113465E-07  0.163E-04    2.68      72.7  T
     SCC iter.                  ...        0 min,  0.029 sec
     gradient                   ...        0 min,  0.012 sec
 * total energy  :  -104.8354745 Eh     change       -0.1377819E-03 Eh
   gradient norm :     0.0028591 Eh/α   predicted    -0.7170993E-04 ( -47.95%)
   displ. norm   :     0.6379252 α      lambda       -0.1180784E-03
   maximum displ.:     0.2812461 α      in ANC's #9, #10, #1, ...

........................................................................
.............................. CYCLE   56 ..............................
........................................................................

 iter      E             dE          RMSdq      gap      omega  full diag
   1   -106.2876339 -0.106288E+03  0.124E-01    2.66       0.0  T
   2   -106.2876363 -0.236106E-05  0.734E-02    2.66       1.0  T
   3   -106.2876356  0.665362E-06  0.551E-03    2.66       2.2  T
   4   -106.2876374 -0.171570E-05  0.211E-03    2.66       5.6  T
   5   -106.2876374 -0.353994E-07  0.126E-03    2.66       9.4  T
   6   -106.2876374 -0.394201E-07  0.385E-04    2.66      30.8  T
   7   -106.2876374 -0.463173E-08  0.123E-04    2.66      96.3  T
     SCC iter.                  ...        0 min,  0.029 sec
     gradient                   ...        0 min,  0.013 sec
 * total energy  :  -104.8355471 Eh     change       -0.7260506E-04 Eh
   gradient norm :     0.0048156 Eh/α   predicted    -0.8307097E-04 (  14.41%)
   displ. norm   :     0.2371941 α      lambda       -0.8402003E-04
   maximum displ.:     0.1150892 α      in ANC's #9, #1, #8, ...

........................................................................
.............................. CYCLE   57 ..............................
........................................................................

 iter      E             dE          RMSdq      gap      omega  full diag
   1   -106.2890124 -0.106289E+03  0.480E-02    2.66       0.0  T
   2   -106.2890128 -0.408762E-06  0.283E-02    2.66       1.0  T
   3   -106.2890126  0.141500E-06  0.225E-03    2.66       5.3  T
   4   -106.2890129 -0.299490E-06  0.870E-04    2.66      13.6  T
   5   -106.2890129 -0.131145E-07  0.495E-04    2.66      24.0  T
     SCC iter.                  ...        0 min,  0.021 sec
     gradient                   ...        0 min,  0.011 sec
 * total energy  :  -104.8356069 Eh     change       -0.5985341E-04 Eh
   gradient norm :     0.0041074 Eh/α   predicted    -0.4437550E-04 ( -25.86%)
   displ. norm   :     0.2795835 α      lambda       -0.1045695E-03
   maximum displ.:     0.1406734 α      in ANC's #9, #1, #8, ...

........................................................................
.............................. CYCLE   58 ..............................
........................................................................

 iter      E             dE          RMSdq      gap      omega  full diag
   1   -106.2920143 -0.106292E+03  0.569E-02    2.66       0.0  T
   2   -106.2920150 -0.715553E-06  0.335E-02    2.66       1.0  T
   3   -106.2920149  0.840160E-07  0.241E-03    2.66       4.9  T
   4   -106.2920153 -0.312181E-06  0.922E-04    2.66      12.9  T
   5   -106.2920153 -0.119486E-07  0.507E-04    2.66      23.4  T
     SCC iter.                  ...        0 min,  0.020 sec
     gradient                   ...        0 min,  0.010 sec
 * total energy  :  -104.8356849 Eh     change       -0.7801945E-04 Eh
   gradient norm :     0.0025326 Eh/α   predicted    -0.5637391E-04 ( -27.74%)
   displ. norm   :     0.6254210 α      lambda       -0.1288666E-03
   maximum displ.:     0.3119618 α      in ANC's #9, #1, #10, ...

........................................................................
.............................. CYCLE   59 ..............................
........................................................................

 iter      E             dE          RMSdq      gap      omega  full diag
   1   -106.2889497 -0.106289E+03  0.126E-01    2.65       0.0  T
   2   -106.2889521 -0.241697E-05  0.742E-02    2.65       1.0  T
   3   -106.2889525 -0.379026E-06  0.376E-03    2.65       3.2  T
   4   -106.2889530 -0.573636E-06  0.187E-03    2.65       6.3  T
   5   -106.2889531 -0.418427E-07  0.956E-04    2.65      12.4  T
   6   -106.2889531 -0.133146E-07  0.397E-04    2.65      29.9  T
     SCC iter.                  ...        0 min,  0.036 sec
     gradient                   ...        0 min,  0.013 sec
 * total energy  :  -104.8357738 Eh     change       -0.8890730E-04 Eh
   gradient norm :     0.0043755 Eh/α   predicted    -0.8963914E-04 (   0.82%)
   displ. norm   :     0.3313629 α      lambda       -0.1469873E-03
   maximum displ.:     0.1707438 α      in ANC's #9, #1, #8, ...

........................................................................
.............................. CYCLE   60 ..............................
........................................................................

 iter      E             dE          RMSdq      gap      omega  full diag
   1   -106.2950115 -0.106295E+03  0.702E-02    2.66       0.0  T
   2   -106.2950131 -0.159880E-05  0.413E-02    2.66       1.0  T
   3   -106.2950125  0.592884E-06  0.421E-03    2.66       2.8  T
   4   -106.2950134 -0.895783E-06  0.167E-03    2.66       7.1  T
   5   -106.2950135 -0.104944E-06  0.762E-04    2.66      15.6  T
   6   -106.2950135 -0.681304E-08  0.381E-04    2.66      31.2  T
     SCC iter.                  ...        0 min,  0.025 sec
[...]
         :: -> isotropic ES            0.122669469459 Eh    ::
         :: -> anisotropic ES          0.010383784610 Eh    ::
         :: -> anisotropic XC          0.035351560129 Eh    ::
         :: -> dispersion             -0.068494831428 Eh    ::
         :: repulsion energy           1.458596873367 Eh    ::
         :: add. restraining           0.000000000000 Eh    ::
         :: total charge              -0.000000000000 e     ::
         :::::::::::::::::::::::::::::::::::::::::::::::::::::

           -------------------------------------------------
          |                Property Printout                |
           -------------------------------------------------

    * Orbital Energies and Occupations

         #    Occupation            Energy/Eh            Energy/eV
      -------------------------------------------------------------
         1        2.0000           -0.7429037             -20.2154
       ...           ...                  ...                  ...
        82        2.0000           -0.4321804             -11.7602
        83        2.0000           -0.4254582             -11.5773
        84        2.0000           -0.4193538             -11.4112
        85        2.0000           -0.4189221             -11.3995
        86        2.0000           -0.4163491             -11.3294
        87        2.0000           -0.4130379             -11.2393
        88        2.0000           -0.4120592             -11.2127
        89        2.0000           -0.4090501             -11.1308
        90        2.0000           -0.4063320             -11.0569
        91        2.0000           -0.3998745             -10.8811
        92        2.0000           -0.3986828             -10.8487
        93        2.0000           -0.3734795             -10.1629
        94        2.0000           -0.3669965              -9.9865 (HOMO)
        95                         -0.2715311              -7.3887 (LUMO)
        96                         -0.2665790              -7.2540
        97                         -0.2186957              -5.9510
        98                         -0.2158700              -5.8741
        99                         -0.2091442              -5.6911
       100                         -0.2056673              -5.5965
       101                         -0.1633157              -4.4440
       102                         -0.1629613              -4.4344
       103                         -0.0853432              -2.3223
       104                         -0.0845482              -2.3007
       105                         -0.0124536              -0.3389
       ...                                ...                  ...
       176                          0.7023453              19.1118
      -------------------------------------------------------------
                  HL-Gap            0.0954653 Eh            2.5977 eV
             Fermi-level           -0.3192638 Eh           -8.6876 eV

     #   Z          covCN         q      C6AA      α(0)
     1   6 C        3.759    -0.111    22.671     6.788
     2   6 C        2.937    -0.008    28.208     8.711
     3   6 C        2.844    -0.083    30.068     8.987
     4   6 C        2.726     0.351    21.043     7.510
     5   8 O        0.856    -0.409    21.870     6.270
     6   8 O        1.704    -0.270    18.470     5.803
     7   6 C        3.703     0.078    19.430     6.302
     8   6 C        3.800    -0.070    21.836     6.653
     9   6 C        3.694     0.083    19.363     6.296
    10   8 O        1.706    -0.277    18.602     5.823
    11   6 C        2.864     0.139    24.973     8.191
    12   6 C        2.920    -0.057    29.415     8.894
    13   6 C        2.924    -0.039    28.971     8.827
    14   6 C        2.978     0.000    28.019     8.683
    15   6 C        2.929    -0.037    28.910     8.818
    16   6 C        2.916    -0.069    29.721     8.940
    17   6 C        3.909     0.018    20.214     6.390
    18   6 C        3.763    -0.104    22.530     6.766
    19   6 C        3.763    -0.104    22.527     6.766
    20   6 C        2.978     0.000    28.014     8.682
    21   6 C        2.929    -0.036    28.904     8.817
    22   6 C        2.916    -0.068    29.700     8.937
    23   6 C        2.864     0.139    24.966     8.190
    24   8 O        1.706    -0.276    18.584     5.820
    25   6 C        3.694     0.084    19.349     6.293
    26   6 C        3.800    -0.072    21.875     6.659
    27   6 C        3.705     0.076    19.461     6.307
    28   8 O        1.704    -0.267    18.424     5.795
    29   6 C        2.728     0.351    21.047     7.511
    30   8 O        0.856    -0.411    21.903     6.275
    31   6 C        2.937    -0.007    28.202     8.710
    32   6 C        3.759    -0.111    22.669     6.788
    33   6 C        2.844    -0.082    30.035     8.982
    34   6 C        2.920    -0.057    29.417     8.894
    35   6 C        2.924    -0.039    28.972     8.827
    36   1 H        0.925     0.070     2.083     2.257
    37   1 H        0.925     0.051     2.311     2.377
    38   1 H        0.925     0.061     2.183     2.310
    39   1 H        0.926     0.060     2.194     2.316
    40   1 H        0.926     0.055     2.257     2.349
    41   1 H        0.924     0.073     2.053     2.241
    42   1 H        0.924     0.054     2.267     2.355
    43   1 H        0.924     0.050     2.322     2.383
    44   1 H        0.924     0.073     2.055     2.242
    45   1 H        0.923     0.028     2.618     2.530
    46   1 H        0.923     0.035     2.513     2.479
    47   1 H        0.926     0.048     2.346     2.395
    48   1 H        0.926     0.042     2.424     2.435
    49   1 H        0.926     0.031     2.569     2.507
    50   1 H        0.926     0.027     2.630     2.536
    51   1 H        0.925     0.040     2.443     2.444
    52   1 H        0.925     0.037     2.490     2.468
    53   1 H        0.925     0.038     2.471     2.458
    54   1 H        0.925     0.037     2.490     2.468
    55   1 H        0.925     0.040     2.447     2.446
    56   1 H        0.925     0.038     2.477     2.461
    57   1 H        0.926     0.032     2.560     2.502
    58   1 H        0.926     0.028     2.617     2.530
    59   1 H        0.923     0.027     2.635     2.539
    60   1 H        0.923     0.033     2.541     2.493
    61   1 H        0.924     0.071     2.072     2.251
    62   1 H        0.924     0.063     2.169     2.303
    63   1 H        0.924     0.054     2.265     2.353
    64   1 H        0.924     0.058     2.220     2.330
    65   1 H        0.925     0.066     2.132     2.283
    66   1 H        0.925     0.066     2.128     2.281
    67   1 H        0.925     0.051     2.305     2.374
    68   1 H        0.926     0.057     2.234     2.337
    69   1 H        0.926     0.063     2.161     2.299
    70   1 H        0.926     0.045     2.381     2.413
    71   1 H        0.926     0.041     2.432     2.439

 Mol. C6AA /au·bohr⁶  :      51190.258126
 Mol. C8AA /au·bohr⁸  :    1185628.701109
 Mol. α(0) /au        :        349.087699


Wiberg/Mayer (AO) data.
largest (>0.10) Wiberg bond orders for each atom

 ---------------------------------------------------------------------------
     #   Z sym  total        # sym  WBO       # sym  WBO       # sym  WBO
 ---------------------------------------------------------------------------
     1   6 C    3.994 --     2 C    1.029    37 H    0.984    36 H    0.967
                            38 H    0.965
     2   6 C    3.986 --     3 C    1.881     1 C    1.029     4 C    0.991
     3   6 C    3.989 --     2 C    1.881    40 H    0.974    39 H    0.973
     4   6 C    3.917 --     5 O    1.733     6 O    1.117     2 C    0.991
     5   8 O    2.037 --     4 C    1.733     6 O    0.170
     6   8 O    2.302 --     4 C    1.117     7 C    0.946     5 O    0.170
     7   6 C    3.927 --     8 C    0.998    42 H    0.971    41 H    0.965
                             6 O    0.946
     8   6 C    3.992 --     9 C    1.002     7 C    0.998    43 H    0.975
                            44 H    0.972
     9   6 C    3.954 --     8 C    1.002    10 O    0.976    46 H    0.967
                            45 H    0.966
    10   8 O    2.220 --    11 C    1.050     9 C    0.976
    11   6 C    3.930 --    16 C    1.373    12 C    1.355    10 O    1.050
    12   6 C    3.987 --    13 C    1.463    11 C    1.355    47 H    0.968
                            15 C    0.111
    13   6 C    3.990 --    12 C    1.463    14 C    1.401    48 H    0.965
                            16 C    0.101
    14   6 C    3.986 --    15 C    1.412    13 C    1.401    17 C    0.978
    15   6 C    3.992 --    16 C    1.445    14 C    1.412    49 H    0.968
                            12 C    0.111
    16   6 C    3.987 --    15 C    1.445    11 C    1.373    50 H    0.967
                            13 C    0.101
    17   6 C    3.991 --    19 C    0.985    18 C    0.984    20 C    0.978
                            14 C    0.978
    18   6 C    3.995 --    52 H    0.985    53 H    0.985    17 C    0.984
                            51 H    0.982
    19   6 C    3.995 --    54 H    0.985    56 H    0.985    17 C    0.985
                            55 H    0.982
    20   6 C    3.986 --    21 C    1.412    35 C    1.401    17 C    0.978
    21   6 C    3.992 --    22 C    1.445    20 C    1.412    57 H    0.968
                            34 C    0.110
    22   6 C    3.988 --    21 C    1.445    23 C    1.373    58 H    0.967
                            35 C    0.101
    23   6 C    3.930 --    22 C    1.373    34 C    1.356    24 O    1.049
    24   8 O    2.219 --    23 C    1.049    25 C    0.977
    25   6 C    3.954 --    26 C    1.001    24 O    0.977    60 H    0.967
                            59 H    0.967
    26   6 C    3.990 --    25 C    1.001    27 C    0.997    62 H    0.974
                            61 H    0.973
    27   6 C    3.932 --    26 C    0.997    63 H    0.971    64 H    0.967
                            28 O    0.950
    28   8 O    2.301 --    29 C    1.113    27 C    0.950    30 O    0.168
    29   6 C    3.916 --    30 O    1.732    28 O    1.113    31 C    0.995
    30   8 O    2.035 --    29 C    1.732    28 O    0.168
    31   6 C    3.986 --    33 C    1.876    32 C    1.030    29 C    0.995
    32   6 C    3.994 --    31 C    1.030    67 H    0.985    66 H    0.966
                            65 H    0.966
    33   6 C    3.988 --    31 C    1.876    68 H    0.974    69 H    0.972
    34   6 C    3.986 --    35 C    1.463    23 C    1.356    70 H    0.968
                            21 C    0.110
    35   6 C    3.990 --    34 C    1.463    20 C    1.401    71 H    0.966
                            22 C    0.101
    36   1 H    0.995 --     1 C    0.967
    37   1 H    0.997 --     1 C    0.984
    38   1 H    0.996 --     1 C    0.965
    39   1 H    0.996 --     3 C    0.973
    40   1 H    0.997 --     3 C    0.974
    41   1 H    0.995 --     7 C    0.965
    42   1 H    0.997 --     7 C    0.971
    43   1 H    0.997 --     8 C    0.975
    44   1 H    0.995 --     8 C    0.972
    45   1 H    0.999 --     9 C    0.966
    46   1 H    0.999 --     9 C    0.967
    47   1 H    0.997 --    12 C    0.968
    48   1 H    0.998 --    13 C    0.965
    49   1 H    0.999 --    15 C    0.968
    50   1 H    0.999 --    16 C    0.967
    51   1 H    0.997 --    18 C    0.982
    52   1 H    0.998 --    18 C    0.985
    53   1 H    0.999 --    18 C    0.985
    54   1 H    0.998 --    19 C    0.985
    55   1 H    0.997 --    19 C    0.982
    56   1 H    0.999 --    19 C    0.985
    57   1 H    0.999 --    21 C    0.968
    58   1 H    0.999 --    22 C    0.967
    59   1 H    0.999 --    25 C    0.967
    60   1 H    0.999 --    25 C    0.967
    61   1 H    0.995 --    26 C    0.973
    62   1 H    0.996 --    26 C    0.974
    63   1 H    0.997 --    27 C    0.971
    64   1 H    0.997 --    27 C    0.967
    65   1 H    0.996 --    32 C    0.966
    66   1 H    0.996 --    32 C    0.966
    67   1 H    0.997 --    32 C    0.985
    68   1 H    0.997 --    33 C    0.974
    69   1 H    0.996 --    33 C    0.972
    70   1 H    0.998 --    34 C    0.968
    71   1 H    0.998 --    35 C    0.966
 ---------------------------------------------------------------------------

Topologies differ in total number of bonds
Writing topology from bond orders to xtbtopo.mol

molecular dipole:
                 x           y           z       tot (Debye)
 q only:       -0.073      -1.289       0.433
   full:       -0.091      -1.708       0.412       4.471
molecular quadrupole (traceless):
                xx          xy          yy          xz          yz          zz
 q only:        7.783      -1.596       4.364      -4.181       4.112     -12.147
  q+dip:        1.495      -1.960       7.523      -4.103       2.625      -9.018
   full:        1.191      -2.195       6.126      -1.309       4.320      -7.317

           -------------------------------------------------
          |                Geometry Summary                 |
           -------------------------------------------------

      molecular mass/u    :      480.5936376
   center of mass at/Å    :       -0.0028830      -0.0510463      -0.0337981
  moments of inertia/u·Å² :        0.3329717E+04   0.2021140E+05   0.2282371E+05
rotational constants/cm⁻¹ :        0.5062782E-02   0.8340655E-03   0.7386018E-03

 * 66 selected distances

     #   Z          #   Z                                           value/Å
     2   6 C        3   6 C                                       1.3282987
     4   6 C        5   8 O                                       1.2062374
     4   6 C        6   8 O                                       1.3417058
     6   8 O        7   6 C                                       1.4239217
     7   6 C        8   6 C                                       1.5279727
     8   6 C        9   6 C                                       1.5247892
     9   6 C       10   8 O                                       1.4088904
    10   8 O       11   6 C                                       1.3641498
    11   6 C       12   6 C                                       1.3931228
    12   6 C       13   6 C                                       1.3797878
    13   6 C       14   6 C                                       1.3897861
    14   6 C       15   6 C                                       1.3892180
    11   6 C       16   6 C                                       1.3896567
    15   6 C       16   6 C                                       1.3835388
    17   6 C       18   6 C                                       1.5355891
    17   6 C       19   6 C                                       1.5356391 (max)
    20   6 C       21   6 C                                       1.3892348
    21   6 C       22   6 C                                       1.3834305
    22   6 C       23   6 C                                       1.3897545
    23   6 C       24   8 O                                       1.3650576
    24   8 O       25   6 C                                       1.4090891
    25   6 C       26   6 C                                       1.5246416
    26   6 C       27   6 C                                       1.5263963
    27   6 C       28   8 O                                       1.4224432
    28   8 O       29   6 C                                       1.3434584
    29   6 C       30   8 O                                       1.2068320
    31   6 C       33   6 C                                       1.3286797
    23   6 C       34   6 C                                       1.3930119
    20   6 C       35   6 C                                       1.3896773
    34   6 C       35   6 C                                       1.3799881
     1   6 C       36   1 H                                       1.0882323
     1   6 C       37   1 H                                       1.0860156
     1   6 C       38   1 H                                       1.0893376
     3   6 C       39   1 H                                       1.0755310
     3   6 C       40   1 H                                       1.0774046
     7   6 C       41   1 H                                       1.0941271
     7   6 C       42   1 H                                       1.0925184
     8   6 C       43   1 H                                       1.0914243
     8   6 C       44   1 H                                       1.0908571
     9   6 C       45   1 H                                       1.1001522
     9   6 C       46   1 H                                       1.0990585
    12   6 C       47   1 H                                       1.0786476
    13   6 C       48   1 H                                       1.0781062
    15   6 C       49   1 H                                       1.0806817
    16   6 C       50   1 H                                       1.0790413
    18   6 C       51   1 H                                       1.0874580
    18   6 C       52   1 H                                       1.0884945
    18   6 C       53   1 H                                       1.0871249
    19   6 C       54   1 H                                       1.0884401
    19   6 C       55   1 H                                       1.0874171
    19   6 C       56   1 H                                       1.0870979
    21   6 C       57   1 H                                       1.0806514
    22   6 C       58   1 H                                       1.0788948
    25   6 C       59   1 H                                       1.1002531
    25   6 C       60   1 H                                       1.0989145
    26   6 C       61   1 H                                       1.0909680
    26   6 C       62   1 H                                       1.0912192
    27   6 C       63   1 H                                       1.0924776
    27   6 C       64   1 H                                       1.0958794
    32   6 C       65   1 H                                       1.0886783
    32   6 C       66   1 H                                       1.0886559
    32   6 C       67   1 H                                       1.0859079
    33   6 C       68   1 H                                       1.0773227
    33   6 C       69   1 H                                       1.0754225 (min)
    34   6 C       70   1 H                                       1.0787391
    35   6 C       71   1 H                                       1.0781654

 * 3 distinct bonds (by element types)

   Z      Z             #   av. dist./Å        max./Å        min./Å
   1 H    6 C          36     1.0869255     1.1002531     1.0754225
   6 C    6 C          20     1.4241107     1.5356391     1.3282987
   6 C    8 O          10     1.3491786     1.4239217     1.2062374


optimized geometry written to: xtbopt.xyz


           -------------------------------------------------
          | TOTAL ENERGY             -104.838568549961 Eh   |
          | GRADIENT NORM               0.000518623494 Eh/α |
          | HOMO-LUMO GAP               2.597743182416 eV   |
           -------------------------------------------------

------------------------------------------------------------------------
 * finished run on 2025/12/01 at 14:22:34.854     
------------------------------------------------------------------------
 total:
 * wall-time:     0 d,  0 h,  0 min,  7.530 sec
 *  cpu-time:     0 d,  0 h,  2 min, 52.324 sec
 * ratio c/w:    22.884 speedup
 SCF:
 * wall-time:     0 d,  0 h,  0 min,  0.082 sec
 *  cpu-time:     0 d,  0 h,  0 min,  1.861 sec
 * ratio c/w:    22.824 speedup
 ANC optimizer:
 * wall-time:     0 d,  0 h,  0 min,  7.429 sec
 *  cpu-time:     0 d,  0 h,  2 min, 50.069 sec
 * ratio c/w:    22.893 speedup

normal termination of xtb
