      -----------------------------------------------------------      
     |                   =====================                   |     
     |                           x T B                           |     
     |                   =====================                   |     
     |                         S. Grimme                         |     
     |          Mulliken Center for Theoretical Chemistry        |     
     |                    University of Bonn                     |     
      -----------------------------------------------------------      

   * xtb version 6.7.1 (edcfbbe) compiled by 'albert@albert-system' on 2024-07-22

   xtb is free software: you can redistribute it and/or modify it under
   the terms of the GNU Lesser General Public License as published by
   the Free Software Foundation, either version 3 of the License, or
   (at your option) any later version.
   
   xtb is distributed in the hope that it will be useful,
   but WITHOUT ANY WARRANTY; without even the implied warranty of
   MERCHANTABILITY or FITNESS FOR A PARTICULAR PURPOSE.  See the
   GNU Lesser General Public License for more details.
   
   Cite this work as:
   * C. Bannwarth, E. Caldeweyher, S. Ehlert, A. Hansen, P. Pracht,
     J. Seibert, S. Spicher, S. Grimme, WIREs Comput. Mol. Sci., 2020, 11,
     e01493. DOI: 10.1002/wcms.1493
   
   for GFN2-xTB:
   * C. Bannwarth, S. Ehlert and S. Grimme., J. Chem. Theory Comput., 2019,
     15, 1652-1671. DOI: 10.1021/acs.jctc.8b01176
   for GFN1-xTB:
   * S. Grimme, C. Bannwarth, P. Shushkov, J. Chem. Theory Comput., 2017,
     13, 1989-2009. DOI: 10.1021/acs.jctc.7b00118
   for GFN0-xTB:
   * P. Pracht, E. Caldeweyher, S. Ehlert, S. Grimme, ChemRxiv, 2019, preprint.
     DOI: 10.26434/chemrxiv.8326202.v1
   for GFN-FF:
   * S. Spicher and S. Grimme, Angew. Chem. Int. Ed., 2020, 59, 15665-15673.
     DOI: 10.1002/anie.202004239
   
   for ALPB and GBSA implicit solvation:
   * S. Ehlert, M. Stahn, S. Spicher, S. Grimme, J. Chem. Theory Comput.,
     2021, 17, 4250-4261. DOI: 10.1021/acs.jctc.1c00471
   
   for ddCOSMO and CPCM-X implicit solvation:
   * M. Stahn, S. Ehlert, S. Grimme, J. Phys. Chem. A,
     2023, XX, XXXX-XXXX. DOI: 10.1021/acs.jpca.3c04382
   
   for DFT-D4:
   * E. Caldeweyher, C. Bannwarth and S. Grimme, J. Chem. Phys., 2017,
     147, 034112. DOI: 10.1063/1.4993215
   * E. Caldeweyher, S. Ehlert, A. Hansen, H. Neugebauer, S. Spicher,
     C. Bannwarth and S. Grimme, J. Chem. Phys., 2019, 150, 154122.
     DOI: 10.1063/1.5090222
   * E. Caldeweyher, J.-M. Mewes, S. Ehlert and S. Grimme, Phys. Chem. Chem. Phys.
     2020, 22, 8499-8512. DOI: 10.1039/D0CP00502A
   
   for sTDA-xTB:
   * S. Grimme and C. Bannwarth, J. Chem. Phys., 2016, 145, 054103.
     DOI: 10.1063/1.4959605
   
   in the mass-spec context:
   * V. Asgeirsson, C. Bauer and S. Grimme, Chem. Sci., 2017, 8, 4879.
     DOI: 10.1039/c7sc00601b
   * J. Koopman and S. Grimme, ACS Omega 2019, 4, 12, 15120-15133.
     DOI: 10.1021/acsomega.9b02011
   
   for metadynamics refer to:
   * S. Grimme, J. Chem. Theory Comput., 2019, 155, 2847-2862
     DOI: 10.1021/acs.jctc.9b00143
   
   for SPH calculations refer to:
   * S. Spicher and S. Grimme, J. Chem. Theory Comput., 2021, 17, 1701-1714
     DOI: 10.1021/acs.jctc.0c01306
   
   for ONIOM refer to:
   * C. Plett, A. Katbashev, S. Ehlert, S. Grimme, M. Bursch,
     Phys. Chem. Chem. Phys., 2023, 25, 17860-17868. DOI: 10.1039/D3CP02178E
   
   for DIPRO refer to:
   * J. Kohn, N. Gildemeister, S. Grimme, D. Fazzi, A. Hansen,
     J. Chem. Phys., 2023, just accepted.
   
   for PTB refer to:
   * S. Grimme, M. Mueller, A. Hansen, J. Chem. Phys., 2023, 158, 124111.
     DOI: 10.1063/5.0137838
   
   with help from (in alphabetical order)
   P. Atkinson, C. Bannwarth, F. Bohle, G. Brandenburg, E. Caldeweyher
   M. Checinski, S. Dohm, S. Ehlert, S. Ehrlich, I. Gerasimov, C. Hölzer
   A. Katbashev, J. Kohn, J. Koopman, C. Lavigne, S. Lehtola, F. März, M. Müller,
   F. Musil, H. Neugebauer, J. Pisarek, C. Plett, P. Pracht, F. Pultar,
   J. Seibert, P. Shushkov, S. Spicher, M. Stahn, M. Steiner, T. Strunk,
   J. Stückrath, T. Rose, and J. Unsleber
   
 * started run on 2025/12/01 at 14:22:40.287     
   ID    Z sym.   atoms
    1    6 C      1, 3-11, 13-19
    2    8 O      2, 12
    3    1 H      20-37

           -------------------------------------------------
          |                Calculation Setup                |
           -------------------------------------------------

          program call               : xtb pipeline_data/3_conformer_xyz/acrylates/rdkit/OQCIXXVMXBXDSC-UHFFFAOYSA-N_conf194.xyz --opt --gfn 2-xTB --iterations 250
          coordinate file            : pipeline_data/3_conformer_xyz/acrylates/rdkit/OQCIXXVMXBXDSC-UHFFFAOYSA-N_conf194.xyz
          omp threads                :                    24

########################################################################
[WARNING] Please study the warnings concerning your input carefully
-1- readin_getIntValue: could not parse '2-xTB'
########################################################################

           -------------------------------------------------
          |                 G F N 2 - x T B                 |
           -------------------------------------------------

        Reference                      10.1021/acs.jctc.8b01176
      * Hamiltonian:
        H0-scaling (s, p, d)           1.850000    2.230000    2.230000
        zeta-weighting                 0.500000
      * Dispersion:
        s8                             2.700000
        a1                             0.520000
        a2                             5.000000
        s9                             5.000000
      * Repulsion:
        kExp                           1.500000    1.000000
        rExp                           1.000000
      * Coulomb:
        alpha                          2.000000
        third order                    shell-resolved
        anisotropic                    true
        a3                             3.000000
        a5                             4.000000
        cn-shift                       1.200000
        cn-exp                         4.000000
        max-rad                        5.000000

q/qsh data taken from xtbrestart
CAMM data taken from xtbrestart

          ...................................................
          :                      SETUP                      :
          :.................................................:
          :  # basis functions                  94          :
          :  # atomic orbitals                  94          :
          :  # shells                           56          :
          :  # electrons                        98          :
          :  max. iterations                   250          :
          :  Hamiltonian                  GFN2-xTB          :
          :  restarted?                       true          :
          :  GBSA solvation                  false          :
          :  PC potential                    false          :
          :  electronic temp.          300.0000000     K    :
          :  accuracy                    1.0000000          :
          :  -> integral cutoff          0.2500000E+02      :
          :  -> integral neglect         0.1000000E-07      :
          :  -> SCF convergence          0.1000000E-05 Eh   :
          :  -> wf. convergence          0.1000000E-03 e    :
          :  Broyden damping             0.4000000          :
          :  net charge                          0          :
          :  unpaired electrons                  0          :
          ...................................................

 iter      E             dE          RMSdq      gap      omega  full diag
   1    -54.4697337 -0.544697E+02  0.490E+00    2.88       0.0  T
   2    -54.4791266 -0.939288E-02  0.289E+00    3.44       1.0  T
   3    -54.4695521  0.957455E-02  0.597E-01    3.61       1.0  T
   4    -54.4829139 -0.133618E-01  0.164E-01    3.65       1.0  T
   5    -54.4830376 -0.123714E-03  0.902E-02    3.64       1.0  T
   6    -54.4830896 -0.520263E-04  0.444E-02    3.63       1.0  T
   7    -54.4831230 -0.333768E-04  0.149E-02    3.64       1.1  T
   8    -54.4831271 -0.406249E-05  0.576E-03    3.64       2.9  T
   9    -54.4831275 -0.419457E-06  0.266E-03    3.64       6.2  T
  10    -54.4831275 -0.204638E-07  0.102E-03    3.64      16.1  T
  11    -54.4831275 -0.173865E-07  0.416E-04    3.64      39.5  T
  12    -54.4831275 -0.971767E-09  0.127E-04    3.64     129.9  T

   *** convergence criteria satisfied after 12 iterations ***

         #    Occupation            Energy/Eh            Energy/eV
      -------------------------------------------------------------
         1        2.0000           -0.7174680             -19.5233
       ...           ...                  ...                  ...
        43        2.0000           -0.4145198             -11.2797
        44        2.0000           -0.4088688             -11.1259
        45        2.0000           -0.4066529             -11.0656
        46        2.0000           -0.4039609             -10.9923
        47        2.0000           -0.3949689             -10.7477
        48        2.0000           -0.3877462             -10.5511
        49        2.0000           -0.3833255             -10.4308 (HOMO)
        50                         -0.2496160              -6.7924 (LUMO)
        51                         -0.2296682              -6.2496
        52                         -0.2263811              -6.1601
        53                         -0.2166150              -5.8944
        54                         -0.1792208              -4.8768
       ...                                ...                  ...
        94                          0.7117008              19.3664
      -------------------------------------------------------------
                  HL-Gap            0.1337095 Eh            3.6384 eV
             Fermi-level           -0.3164708 Eh           -8.6116 eV

 SCC (total)                   0 d,  0 h,  0 min,  0.038 sec
 SCC setup                      ...        0 min,  0.000 sec (  0.586%)
 Dispersion                     ...        0 min,  0.000 sec (  1.097%)
 classical contributions        ...        0 min,  0.000 sec (  0.157%)
 integral evaluation            ...        0 min,  0.002 sec (  4.424%)
 iterations                     ...        0 min,  0.029 sec ( 78.089%)
 molecular gradient             ...        0 min,  0.005 sec ( 14.510%)
 printout                       ...        0 min,  0.000 sec (  1.063%)

         :::::::::::::::::::::::::::::::::::::::::::::::::::::
         ::                     SUMMARY                     ::
         :::::::::::::::::::::::::::::::::::::::::::::::::::::
         :: total energy             -53.622889726173 Eh    ::
         :: gradient norm              0.135149707203 Eh/a0 ::
         :: HOMO-LUMO gap              3.638421286233 eV    ::
         ::.................................................::
         :: SCC energy               -54.482665589587 Eh    ::
         :: -> isotropic ES            0.038197013861 Eh    ::
         :: -> anisotropic ES          0.004980814050 Eh    ::
         :: -> anisotropic XC          0.023858737847 Eh    ::
         :: -> dispersion             -0.042545787810 Eh    ::
         :: repulsion energy           0.859775863415 Eh    ::
         :: add. restraining           0.000000000000 Eh    ::
         :: total charge              -0.000000000000 e     ::
         :::::::::::::::::::::::::::::::::::::::::::::::::::::

      ----------------------------------------------------------- 
     |                   =====================                   |
     |                        A N C O P T                        |
     |                   =====================                   |
     |               Approximate Normal Coordinate               |
     |                Rational Function Optimizer                |
      ----------------------------------------------------------- 
      ----------------------------------------------------------- 
     |                   =====================                   |
     |                        A N C O P T                        |
     |                   =====================                   |
     |               Approximate Normal Coordinate               |
     |                Rational Function Optimizer                |
      ----------------------------------------------------------- 

          ...................................................
          :                      SETUP                      :
          :.................................................:
          :   optimization level            normal          :
          :   max. optcycles                   200          :
          :   ANC micro-cycles                  20          :
          :   degrees of freedom               105          :
          :.................................................:
          :   RF solver                   davidson          :
          :   write xtbopt.log                true          :
          :   linear?                        false          :
          :   energy convergence         0.5000000E-05 Eh   :
          :   grad. convergence          0.1000000E-02 Eh/α :
          :   maxmium RF displ.          1.0000000          :
          :   Hlow (freq-cutoff)         0.1000000E-01      :
          :   Hmax (freq-cutoff)         5.0000000          :
          :   S6 in model hess.         20.0000000          :
          ...................................................

generating ANC from exact Hessian ...
Using Lindh-Hessian (1995)
 Shifting diagonal of input Hessian by   9.451019265803669E-003
 Lowest  eigenvalues of input Hessian
    0.000000    0.000000    0.000000    0.000000    0.000000    0.000000
    0.010000    0.010200    0.010552    0.010991    0.011740    0.012016
    0.013049    0.013518    0.014517    0.015301    0.015416    0.016548
 Highest eigenvalues
    1.924871    1.969093    2.029141    2.042581    2.064174    2.093780
 

........................................................................
.............................. CYCLE    1 ..............................
........................................................................

 iter      E             dE          RMSdq      gap      omega  full diag
   1    -54.4831275 -0.544831E+02  0.509E-05    3.64       0.0  T
   2    -54.4831275 -0.171099E-10  0.307E-05    3.64     535.7  T
   3    -54.4831275 -0.960654E-11  0.206E-05    3.64     797.3  T
     SCC iter.                  ...        0 min,  0.012 sec
     gradient                   ...        0 min,  0.006 sec
 * total energy  :   -53.6228897 Eh     change       -0.8994050E-10 Eh
   gradient norm :     0.1351492 Eh/α   predicted     0.0000000E+00 (-100.00%)
   displ. norm   :     0.3337599 α      lambda       -0.2527931E-01
   maximum displ.:     0.1567133 α      in ANC's #15, #19, #77, ...

........................................................................
.............................. CYCLE    2 ..............................
........................................................................

 iter      E             dE          RMSdq      gap      omega  full diag
   1    -54.4982303 -0.544982E+02  0.240E-01    3.59       0.0  T
   2    -54.4984441 -0.213790E-03  0.156E-01    3.59       1.0  T
   3    -54.4983594  0.847485E-04  0.784E-02    3.59       1.0  T
   4    -54.4985182 -0.158894E-03  0.244E-02    3.59       1.0  T
   5    -54.4985306 -0.123515E-04  0.847E-03    3.59       1.9  T
   6    -54.4985320 -0.144890E-05  0.356E-03    3.59       4.6  T
   7    -54.4985323 -0.269607E-06  0.110E-03    3.59      15.0  T
   8    -54.4985323 -0.530675E-08  0.527E-04    3.59      31.2  T
   9    -54.4985323 -0.251984E-08  0.151E-04    3.59     108.6  T
     SCC iter.                  ...        0 min,  0.016 sec
     gradient                   ...        0 min,  0.005 sec
 * total energy  :   -53.6405409 Eh     change       -0.1765113E-01 Eh
   gradient norm :     0.0586262 Eh/α   predicted    -0.1405588E-01 ( -20.37%)
   displ. norm   :     0.3263663 α      lambda       -0.8576240E-02
   maximum displ.:     0.1598715 α      in ANC's #15, #7, #8, ...

........................................................................
.............................. CYCLE    3 ..............................
........................................................................

 iter      E             dE          RMSdq      gap      omega  full diag
   1    -54.5019646 -0.545020E+02  0.189E-01    3.54       0.0  T
   2    -54.5020637 -0.991236E-04  0.116E-01    3.54       1.0  T
   3    -54.5020053  0.584104E-04  0.529E-02    3.55       1.0  T
   4    -54.5020906 -0.852946E-04  0.135E-02    3.55       1.2  T
   5    -54.5020946 -0.401822E-05  0.582E-03    3.55       2.8  T
   6    -54.5020953 -0.677478E-06  0.237E-03    3.55       6.9  T
   7    -54.5020954 -0.124871E-06  0.845E-04    3.55      19.5  T
   8    -54.5020954 -0.432497E-08  0.361E-04    3.55      45.6  T
     SCC iter.                  ...        0 min,  0.014 sec
     gradient                   ...        0 min,  0.004 sec
 * total energy  :   -53.6456577 Eh     change       -0.5116834E-02 Eh
   gradient norm :     0.0148679 Eh/α   predicted    -0.4744869E-02 (  -7.27%)
   displ. norm   :     0.2868874 α      lambda       -0.1575323E-02
   maximum displ.:     0.1372649 α      in ANC's #5, #15, #8, ...

........................................................................
.............................. CYCLE    4 ..............................
........................................................................

 iter      E             dE          RMSdq      gap      omega  full diag
   1    -54.4983847 -0.544984E+02  0.100E-01    3.55       0.0  T
   2    -54.4983897 -0.504637E-05  0.592E-02    3.55       1.0  T
   3    -54.4983793  0.104406E-04  0.181E-02    3.55       1.0  T
   4    -54.4983916 -0.123278E-04  0.372E-03    3.55       4.4  T
   5    -54.4983917 -0.106572E-06  0.195E-03    3.55       8.4  T
   6    -54.4983918 -0.103307E-06  0.822E-04    3.55      20.0  T
   7    -54.4983918 -0.702057E-08  0.356E-04    3.55      46.2  T
     SCC iter.                  ...        0 min,  0.013 sec
     gradient                   ...        0 min,  0.004 sec
 * total energy  :   -53.6467944 Eh     change       -0.1136710E-02 Eh
   gradient norm :     0.0086548 Eh/α   predicted    -0.8525239E-03 ( -25.00%)
   displ. norm   :     0.3747209 α      lambda       -0.1091716E-02
   maximum displ.:     0.2046450 α      in ANC's #5, #8, #7, ...

........................................................................
.............................. CYCLE    5 ..............................
........................................................................

 iter      E             dE          RMSdq      gap      omega  full diag
   1    -54.4957558 -0.544958E+02  0.119E-01    3.56       0.0  T
   2    -54.4957582 -0.246200E-05  0.709E-02    3.56       1.0  T
   3    -54.4957448  0.134491E-04  0.210E-02    3.56       1.0  T
   4    -54.4957599 -0.150920E-04  0.346E-03    3.56       4.7  T
   5    -54.4957600 -0.123948E-06  0.165E-03    3.56      10.0  T
   6    -54.4957600 -0.377501E-07  0.729E-04    3.56      22.6  T
   7    -54.4957600 -0.534431E-08  0.217E-04    3.56      75.7  T
     SCC iter.                  ...        0 min,  0.013 sec
     gradient                   ...        0 min,  0.004 sec
 * total energy  :   -53.6475587 Eh     change       -0.7642589E-03 Eh
   gradient norm :     0.0103619 Eh/α   predicted    -0.6225064E-03 ( -18.55%)
   displ. norm   :     0.3540857 α      lambda       -0.7084914E-03
   maximum displ.:     0.2141897 α      in ANC's #5, #8, #7, ...

........................................................................
.............................. CYCLE    6 ..............................
........................................................................

 iter      E             dE          RMSdq      gap      omega  full diag
   1    -54.4957961 -0.544958E+02  0.113E-01    3.56       0.0  T
   2    -54.4957976 -0.151554E-05  0.674E-02    3.56       1.0  T
   3    -54.4957773  0.203241E-04  0.260E-02    3.56       1.0  T
   4    -54.4957998 -0.224521E-04  0.258E-03    3.56       6.4  T
   5    -54.4957998 -0.752613E-07  0.127E-03    3.56      12.9  T
   6    -54.4957998 -0.913561E-08  0.528E-04    3.56      31.2  T
   7    -54.4957998 -0.353232E-08  0.181E-04    3.56      90.8  T
     SCC iter.                  ...        0 min,  0.013 sec
     gradient                   ...        0 min,  0.004 sec
 * total energy  :   -53.6481152 Eh     change       -0.5565320E-03 Eh
   gradient norm :     0.0108425 Eh/α   predicted    -0.3986604E-03 ( -28.37%)
   displ. norm   :     0.4387221 α      lambda       -0.8212645E-03
   maximum displ.:     0.2648809 α      in ANC's #5, #8, #7, ...

........................................................................
.............................. CYCLE    7 ..............................
........................................................................

 iter      E             dE          RMSdq      gap      omega  full diag
   1    -54.4978558 -0.544979E+02  0.148E-01    3.57       0.0  T
   2    -54.4978585 -0.270958E-05  0.880E-02    3.57       1.0  T
   3    -54.4978365  0.220147E-04  0.264E-02    3.57       1.0  T
   4    -54.4978609 -0.244329E-04  0.318E-03    3.57       5.2  T
   5    -54.4978610 -0.114982E-06  0.158E-03    3.57      10.4  T
   6    -54.4978611 -0.226860E-07  0.710E-04    3.57      23.2  T
   7    -54.4978611 -0.517394E-08  0.284E-04    3.57      58.0  T
     SCC iter.                  ...        0 min,  0.012 sec
     gradient                   ...        0 min,  0.003 sec
 * total energy  :   -53.6487713 Eh     change       -0.6561623E-03 Eh
   gradient norm :     0.0086921 Eh/α   predicted    -0.4896736E-03 ( -25.37%)
   displ. norm   :     0.5213540 α      lambda       -0.8233154E-03
   maximum displ.:     0.3046858 α      in ANC's #5, #3, #7, ...

........................................................................
.............................. CYCLE    8 ..............................
........................................................................

 iter      E             dE          RMSdq      gap      omega  full diag
   1    -54.4997023 -0.544997E+02  0.177E-01    3.58       0.0  T
   2    -54.4997053 -0.294521E-05  0.104E-01    3.58       1.0  T
   3    -54.4996951  0.101708E-04  0.185E-02    3.58       1.0  T
   4    -54.4997070 -0.118535E-04  0.332E-03    3.58       5.0  T
   5    -54.4997071 -0.107103E-06  0.182E-03    3.58       9.0  T
   6    -54.4997071 -0.364426E-07  0.806E-04    3.58      20.4  T
   7    -54.4997071 -0.663473E-08  0.271E-04    3.58      60.8  T
     SCC iter.                  ...        0 min,  0.012 sec
     gradient                   ...        0 min,  0.003 sec
 * total energy  :   -53.6494237 Eh     change       -0.6523306E-03 Eh
   gradient norm :     0.0085007 Eh/α   predicted    -0.5235511E-03 ( -19.74%)
   displ. norm   :     0.5380750 α      lambda       -0.7409712E-03
   maximum displ.:     0.2982062 α      in ANC's #5, #3, #4, ...

........................................................................
.............................. CYCLE    9 ..............................
........................................................................

 iter      E             dE          RMSdq      gap      omega  full diag
   1    -54.5013338 -0.545013E+02  0.183E-01    3.60       0.0  T
   2    -54.5013361 -0.232569E-05  0.108E-01    3.59       1.0  T
   3    -54.5013334  0.268827E-05  0.101E-02    3.59       1.6  T
   4    -54.5013374 -0.394824E-05  0.268E-03    3.59       6.1  T
   5    -54.5013374 -0.869519E-08  0.167E-03    3.59       9.9  T
   6    -54.5013374 -0.325880E-07  0.639E-04    3.59      25.7  T
   7    -54.5013374 -0.680406E-08  0.208E-04    3.59      78.9  T
     SCC iter.                  ...        0 min,  0.012 sec
     gradient                   ...        0 min,  0.003 sec
 * total energy  :   -53.6500223 Eh     change       -0.5986427E-03 Eh
   gradient norm :     0.0096510 Eh/α   predicted    -0.4777788E-03 ( -20.19%)
   displ. norm   :     0.5518643 α      lambda       -0.7278402E-03
   maximum displ.:     0.2761558 α      in ANC's #5, #3, #2, ...

........................................................................
.............................. CYCLE   10 ..............................
........................................................................

 iter      E             dE          RMSdq      gap      omega  full diag
   1    -54.5021966 -0.545022E+02  0.182E-01    3.61       0.0  T
   2    -54.5021992 -0.258968E-05  0.107E-01    3.61       1.0  T
   3    -54.5021900  0.919360E-05  0.173E-02    3.61       1.0  T
   4    -54.5022009 -0.108611E-04  0.316E-03    3.61       5.2  T
   5    -54.5022010 -0.101058E-06  0.178E-03    3.61       9.3  T
   6    -54.5022010 -0.239864E-07  0.631E-04    3.61      26.1  T
   7    -54.5022010 -0.531215E-08  0.219E-04    3.61      75.0  T
     SCC iter.                  ...        0 min,  0.012 sec
     gradient                   ...        0 min,  0.003 sec
 * total energy  :   -53.6506177 Eh     change       -0.5953408E-03 Eh
   gradient norm :     0.0109107 Eh/α   predicted    -0.4747559E-03 ( -20.25%)
   displ. norm   :     0.5277370 α      lambda       -0.8455697E-03
   maximum displ.:     0.2833522 α      in ANC's #2, #3, #5, ...

........................................................................
.............................. CYCLE   11 ..............................
........................................................................

 iter      E             dE          RMSdq      gap      omega  full diag
   1    -54.5084344 -0.545084E+02  0.176E-01    3.65       0.0  T
   2    -54.5084396 -0.521033E-05  0.103E-01    3.65       1.0  T
   3    -54.5084183  0.213125E-04  0.271E-02    3.65       1.0  T
   4    -54.5084423 -0.240689E-04  0.394E-03    3.65       4.2  T
   5    -54.5084426 -0.230152E-06  0.205E-03    3.65       8.0  T
   6    -54.5084426 -0.464080E-07  0.968E-04    3.65      17.0  T
   7    -54.5084426 -0.664204E-08  0.340E-04    3.65      48.4  T
     SCC iter.                  ...        0 min,  0.011 sec
     gradient                   ...        0 min,  0.003 sec
 * total energy  :   -53.6511269 Eh     change       -0.5092597E-03 Eh
   gradient norm :     0.0130065 Eh/α   predicted    -0.5405704E-03 (   6.15%)
   displ. norm   :     0.5982348 α      lambda       -0.9785045E-03
   maximum displ.:     0.2867585 α      in ANC's #2, #3, #5, ...

........................................................................
.............................. CYCLE   12 ..............................
........................................................................

 iter      E             dE          RMSdq      gap      omega  full diag
   1    -54.5001992 -0.545002E+02  0.197E-01    3.66       0.0  T
   2    -54.5002050 -0.575977E-05  0.116E-01    3.66       1.0  T
   3    -54.5001910  0.139994E-04  0.225E-02    3.66       1.0  T
   4    -54.5002073 -0.163102E-04  0.445E-03    3.66       3.7  T
   5    -54.5002076 -0.272116E-06  0.233E-03    3.66       7.0  T
   6    -54.5002076 -0.338616E-07  0.116E-03    3.66      14.1  T
   7    -54.5002076 -0.198635E-07  0.196E-04    3.66      83.9  T
   8    -54.5002076 -0.323730E-09  0.949E-05    3.66     173.2  T
     SCC iter.                  ...        0 min,  0.013 sec
     gradient                   ...        0 min,  0.004 sec
 * total energy  :   -53.6515941 Eh     change       -0.4671542E-03 Eh
   gradient norm :     0.0124777 Eh/α   predicted    -0.6643511E-03 (  42.21%)
   displ. norm   :     0.2037822 α      lambda       -0.5088215E-03
   maximum displ.:     0.1510386 α      in ANC's #2, #3, #4, ...

........................................................................
.............................. CYCLE   13 ..............................
........................................................................

 iter      E             dE          RMSdq      gap      omega  full diag
   1    -54.5042423 -0.545042E+02  0.687E-02    3.67       0.0  T
   2    -54.5042436 -0.134086E-05  0.405E-02    3.67       1.0  T
   3    -54.5042405  0.305715E-05  0.108E-02    3.67       1.5  T
   4    -54.5042440 -0.344402E-05  0.214E-03    3.67       7.7  T
   5    -54.5042441 -0.110888E-06  0.876E-04    3.67      18.8  T
   6    -54.5042441 -0.500098E-08  0.402E-04    3.67      40.9  T
     SCC iter.                  ...        0 min,  0.010 sec
     gradient                   ...        0 min,  0.004 sec
 * total energy  :   -53.6519710 Eh     change       -0.3769172E-03 Eh
   gradient norm :     0.0077117 Eh/α   predicted    -0.2649762E-03 ( -29.70%)
   displ. norm   :     0.4309446 α      lambda       -0.5853027E-03
   maximum displ.:     0.2991370 α      in ANC's #2, #3, #4, ...

........................................................................
.............................. CYCLE   14 ..............................
........................................................................

 iter      E             dE          RMSdq      gap      omega  full diag
   1    -54.5057306 -0.545057E+02  0.139E-01    3.68       0.0  T
   2    -54.5057335 -0.292710E-05  0.815E-02    3.68       1.0  T
   3    -54.5057269  0.662644E-05  0.140E-02    3.68       1.2  T
   4    -54.5057345 -0.761093E-05  0.344E-03    3.68       4.8  T
   5    -54.5057348 -0.254233E-06  0.137E-03    3.68      12.0  T
   6    -54.5057348 -0.278609E-08  0.669E-04    3.68      24.6  T
   7    -54.5057348 -0.705607E-08  0.182E-04    3.68      90.3  T
     SCC iter.                  ...        0 min,  0.012 sec
     gradient                   ...        0 min,  0.003 sec
 * total energy  :   -53.6523753 Eh     change       -0.4043532E-03 Eh
   gradient norm :     0.0060752 Eh/α   predicted    -0.3470011E-03 ( -14.18%)
   displ. norm   :     0.4270560 α      lambda       -0.4031120E-03
   maximum displ.:     0.3126624 α      in ANC's #2, #3, #4, ...

........................................................................
.............................. CYCLE   15 ..............................
........................................................................

 iter      E             dE          RMSdq      gap      omega  full diag
   1    -54.5079310 -0.545079E+02  0.128E-01    3.70       0.0  T
   2    -54.5079332 -0.220358E-05  0.753E-02    3.70       1.0  T
   3    -54.5079293  0.390494E-05  0.111E-02    3.70       1.5  T
   4    -54.5079340 -0.461538E-05  0.281E-03    3.70       5.9  T
   5    -54.5079341 -0.151011E-06  0.137E-03    3.70      12.0  T
   6    -54.5079341 -0.102941E-07  0.610E-04    3.70      27.0  T
   7    -54.5079341 -0.470249E-08  0.192E-04    3.70      85.7  T
     SCC iter.                  ...        0 min,  0.012 sec
     gradient                   ...        0 min,  0.004 sec
 * total energy  :   -53.6526587 Eh     change       -0.2834010E-03 Eh
   gradient norm :     0.0058041 Eh/α   predicted    -0.2383169E-03 ( -15.91%)
   displ. norm   :     0.5285387 α      lambda       -0.3139592E-03
   maximum displ.:     0.3226377 α      in ANC's #2, #3, #5, ...

........................................................................
.............................. CYCLE   16 ..............................
........................................................................

 iter      E             dE          RMSdq      gap      omega  full diag
   1    -54.5006245 -0.545006E+02  0.173E-01    3.69       0.0  T
   2    -54.5006266 -0.210567E-05  0.101E-01    3.69       1.0  T
   3    -54.5006222  0.435997E-05  0.114E-02    3.69       1.4  T
   4    -54.5006276 -0.540658E-05  0.263E-03    3.69       6.3  T
   5    -54.5006277 -0.760712E-07  0.161E-03    3.69      10.2  T
   6    -54.5006277 -0.226330E-07  0.574E-04    3.69      28.6  T
   7    -54.5006277 -0.468225E-08  0.175E-04    3.69      94.0  T
     SCC iter.                  ...        0 min,  0.012 sec
     gradient                   ...        0 min,  0.003 sec
 * total energy  :   -53.6527885 Eh     change       -0.1297474E-03 Eh
   gradient norm :     0.0090235 Eh/α   predicted    -0.2008346E-03 (  54.79%)
   displ. norm   :     0.2332602 α      lambda       -0.3212984E-03
   maximum displ.:     0.1851339 α      in ANC's #2, #1, #55, ...

........................................................................
.............................. CYCLE   17 ..............................
........................................................................

 iter      E             dE          RMSdq      gap      omega  full diag
   1    -54.5071393 -0.545071E+02  0.572E-02    3.71       0.0  T
   2    -54.5071400 -0.660978E-06  0.338E-02    3.72       1.0  T
   3    -54.5071392  0.781356E-06  0.574E-03    3.72       2.9  T
   4    -54.5071402 -0.984880E-06  0.143E-03    3.72      11.5  T
   5    -54.5071402 -0.227912E-07  0.805E-04    3.72      20.4  T
   6    -54.5071402 -0.724614E-08  0.341E-04    3.72      48.2  T
     SCC iter.                  ...        0 min,  0.010 sec
     gradient                   ...        0 min,  0.003 sec
 * total energy  :   -53.6529795 Eh     change       -0.1909698E-03 Eh
   gradient norm :     0.0051196 Eh/α   predicted    -0.1693953E-03 ( -11.30%)
   displ. norm   :     0.2957791 α      lambda       -0.1565572E-03
   maximum displ.:     0.2232045 α      in ANC's #2, #1, #3, ...

........................................................................
.............................. CYCLE   18 ..............................
........................................................................

 iter      E             dE          RMSdq      gap      omega  full diag
   1    -54.5091121 -0.545091E+02  0.819E-02    3.74       0.0  T
   2    -54.5091126 -0.551929E-06  0.482E-02    3.74       1.0  T
   3    -54.5091119  0.760051E-06  0.558E-03    3.74       2.9  T
   4    -54.5091129 -0.103203E-05  0.121E-03    3.74      13.6  T
   5    -54.5091129 -0.238376E-08  0.674E-04    3.74      24.4  T
   6    -54.5091129 -0.443681E-08  0.311E-04    3.74      52.8  T
     SCC iter.                  ...        0 min,  0.010 sec
     gradient                   ...        0 min,  0.004 sec
 * total energy  :   -53.6530808 Eh     change       -0.1013551E-03 Eh
   gradient norm :     0.0044715 Eh/α   predicted    -0.8513061E-04 ( -16.01%)
   displ. norm   :     0.3692898 α      lambda       -0.1642456E-03
   maximum displ.:     0.2728512 α      in ANC's #2, #1, #3, ...

........................................................................
.............................. CYCLE   19 ..............................
........................................................................

 iter      E             dE          RMSdq      gap      omega  full diag
   1    -54.5094634 -0.545095E+02  0.102E-01    3.75       0.0  T
   2    -54.5094642 -0.748967E-06  0.599E-02    3.75       1.0  T
   3    -54.5094637  0.510671E-06  0.479E-03    3.75       3.4  T
   4    -54.5094645 -0.808775E-06  0.146E-03    3.75      11.3  T
   5    -54.5094645 -0.163999E-07  0.967E-04    3.75      17.0  T
   6    -54.5094645 -0.118168E-07  0.352E-04    3.75      46.7  T
     SCC iter.                  ...        0 min,  0.011 sec
     gradient                   ...        0 min,  0.004 sec
 * total energy  :   -53.6531827 Eh     change       -0.1018425E-03 Eh
   gradient norm :     0.0055228 Eh/α   predicted    -0.9332581E-04 (  -8.36%)
   displ. norm   :     0.3349671 α      lambda       -0.1518168E-03
   maximum displ.:     0.2396868 α      in ANC's #2, #1, #3, ...

........................................................................
.............................. CYCLE   20 ..............................
........................................................................

 iter      E             dE          RMSdq      gap      omega  full diag
   1    -54.5090793 -0.545091E+02  0.900E-02    3.76       0.0  T
   2    -54.5090801 -0.838560E-06  0.529E-02    3.76       1.0  T
   3    -54.5090779  0.225140E-05  0.868E-03    3.76       1.9  T
   4    -54.5090805 -0.260339E-05  0.168E-03    3.76       9.8  T
   5    -54.5090805 -0.515944E-07  0.794E-04    3.76      20.7  T
   6    -54.5090805 -0.556164E-08  0.404E-04    3.76      40.7  T
     SCC iter.                  ...        0 min,  0.011 sec
     gradient                   ...        0 min,  0.003 sec
 * total energy  :   -53.6532669 Eh     change       -0.8424504E-04 Eh
   gradient norm :     0.0068626 Eh/α   predicted    -0.8442784E-04 (   0.22%)
   displ. norm   :     0.1970174 α      lambda       -0.9961293E-04
   maximum displ.:     0.1358569 α      in ANC's #2, #1, #3, ...
 * RMSD in coord.:     1.0107754 α      energy gain  -0.3037718E-01 Eh

generating ANC from exact Hessian ...
Using Lindh-Hessian (1995)
 Shifting diagonal of input Hessian by   9.412102882276759E-003
 Lowest  eigenvalues of input Hessian
    0.000000    0.000000    0.000000    0.000000    0.000000    0.000000
    0.010000    0.010322    0.010554    0.011036    0.011396    0.012062
    0.013035    0.013605    0.014608    0.015440    0.015832    0.017355
 Highest eigenvalues
    1.901919    1.921901    2.008153    2.011093    2.023519    2.057564
 

........................................................................
.............................. CYCLE   21 ..............................
........................................................................

 iter      E             dE          RMSdq      gap      omega  full diag
   1    -54.5106553 -0.545107E+02  0.514E-02    3.77       0.0  T
   2    -54.5106555 -0.258462E-06  0.303E-02    3.77       1.0  T
   3    -54.5106542  0.136394E-05  0.678E-03    3.77       2.4  T
   4    -54.5106557 -0.154473E-05  0.102E-03    3.77      16.1  T
   5    -54.5106557 -0.140485E-07  0.518E-04    3.77      31.7  T
   6    -54.5106557 -0.177333E-08  0.186E-04    3.77      88.6  T
     SCC iter.                  ...        0 min,  0.011 sec
     gradient                   ...        0 min,  0.004 sec
 * total energy  :   -53.6533373 Eh     change       -0.7041015E-04 Eh
   gradient norm :     0.0054160 Eh/α   predicted     0.0000000E+00 (-100.00%)
   displ. norm   :     0.0617415 α      lambda       -0.8462965E-04
   maximum displ.:     0.0384322 α      in ANC's #9, #11, #1, ...

........................................................................
.............................. CYCLE   22 ..............................
........................................................................

 iter      E             dE          RMSdq      gap      omega  full diag
   1    -54.5097993 -0.545098E+02  0.194E-02    3.77       0.0  T
   2    -54.5097995 -0.143375E-06  0.116E-02    3.77       1.4  T
   3    -54.5097992  0.321844E-06  0.333E-03    3.77       4.9  T
   4    -54.5097995 -0.367107E-06  0.787E-04    3.77      20.9  T
   5    -54.5097995 -0.113525E-07  0.346E-04    3.77      47.5  T
     SCC iter.                  ...        0 min,  0.009 sec
     gradient                   ...        0 min,  0.004 sec
 * total energy  :   -53.6534098 Eh     change       -0.7250679E-04 Eh
   gradient norm :     0.0021323 Eh/α   predicted    -0.4514136E-04 ( -37.74%)
   displ. norm   :     0.1804131 α      lambda       -0.1504806E-03
   maximum displ.:     0.1124366 α      in ANC's #9, #11, #1, ...

........................................................................
.............................. CYCLE   23 ..............................
........................................................................

 iter      E             dE          RMSdq      gap      omega  full diag
   1    -54.5083185 -0.545083E+02  0.480E-02    3.78       0.0  T
   2    -54.5083191 -0.650141E-06  0.287E-02    3.78       1.0  T
   3    -54.5083185  0.636067E-06  0.496E-03    3.78       3.3  T
   4    -54.5083193 -0.790326E-06  0.170E-03    3.78       9.7  T
   5    -54.5083193 -0.495652E-07  0.784E-04    3.78      21.0  T
   6    -54.5083193 -0.552753E-08  0.352E-04    3.78      46.7  T
     SCC iter.                  ...        0 min,  0.011 sec
     gradient                   ...        0 min,  0.003 sec
 * total energy  :   -53.6535000 Eh     change       -0.9014131E-04 Eh
   gradient norm :     0.0044714 Eh/α   predicted    -0.7769341E-04 ( -13.81%)
   displ. norm   :     0.0950607 α      lambda       -0.5010951E-04
   maximum displ.:     0.0522146 α      in ANC's #9, #1, #4, ...

........................................................................
.............................. CYCLE   24 ..............................
........................................................................

 iter      E             dE          RMSdq      gap      omega  full diag
   1    -54.5084610 -0.545085E+02  0.244E-02    3.78       0.0  T
   2    -54.5084611 -0.834356E-07  0.145E-02    3.79       1.1  T
   3    -54.5084610  0.868764E-07  0.201E-03    3.78       8.2  T
   4    -54.5084612 -0.113988E-06  0.641E-04    3.78      25.7  T
   5    -54.5084612 -0.467399E-08  0.281E-04    3.79      58.5  T
     SCC iter.                  ...        0 min,  0.009 sec
     gradient                   ...        0 min,  0.005 sec
 * total energy  :   -53.6535420 Eh     change       -0.4207412E-04 Eh
   gradient norm :     0.0045609 Eh/α   predicted    -0.2529799E-04 ( -39.87%)
   displ. norm   :     0.2150789 α      lambda       -0.1243514E-03
   maximum displ.:     0.1028501 α      in ANC's #9, #1, #3, ...

........................................................................
.............................. CYCLE   25 ..............................
........................................................................

 iter      E             dE          RMSdq      gap      omega  full diag
   1    -54.5094589 -0.545095E+02  0.579E-02    3.79       0.0  T
   2    -54.5094593 -0.353540E-06  0.342E-02    3.79       1.0  T
   3    -54.5094592  0.448811E-07  0.236E-03    3.79       7.0  T
   4    -54.5094594 -0.153739E-06  0.109E-03    3.79      15.1  T
   5    -54.5094594 -0.163191E-07  0.489E-04    3.79      33.6  T
   6    -54.5094594 -0.740087E-09  0.232E-04    3.79      70.8  T
     SCC iter.                  ...        0 min,  0.011 sec
     gradient                   ...        0 min,  0.003 sec
 * total energy  :   -53.6536286 Eh     change       -0.8654148E-04 Eh
   gradient norm :     0.0025668 Eh/α   predicted    -0.6507945E-04 ( -24.80%)
   displ. norm   :     0.1753597 α      lambda       -0.5776728E-04
   maximum displ.:     0.0893445 α      in ANC's #1, #9, #3, ...

........................................................................
.............................. CYCLE   26 ..............................
........................................................................

 iter      E             dE          RMSdq      gap      omega  full diag
   1    -54.5098379 -0.545098E+02  0.496E-02    3.79       0.0  T
   2    -54.5098382 -0.218688E-06  0.292E-02    3.79       1.0  T
   3    -54.5098380  0.185583E-06  0.301E-03    3.79       5.5  T
   4    -54.5098382 -0.262912E-06  0.952E-04    3.79      17.3  T
   5    -54.5098382 -0.104481E-07  0.456E-04    3.79      36.1  T
     SCC iter.                  ...        0 min,  0.009 sec
     gradient                   ...        0 min,  0.005 sec
 * total energy  :   -53.6536712 Eh     change       -0.4263812E-04 Eh
   gradient norm :     0.0017030 Eh/α   predicted    -0.2977735E-04 ( -30.16%)
   displ. norm   :     0.2619793 α      lambda       -0.4119654E-04
   maximum displ.:     0.1376122 α      in ANC's #1, #3, #9, ...

........................................................................
.............................. CYCLE   27 ..............................
........................................................................

 iter      E             dE          RMSdq      gap      omega  full diag
   1    -54.5097769 -0.545098E+02  0.783E-02    3.79       0.0  T
   2    -54.5097773 -0.421107E-06  0.461E-02    3.79       1.0  T
   3    -54.5097771  0.224060E-06  0.352E-03    3.79       4.7  T
   4    -54.5097775 -0.394967E-06  0.120E-03    3.79      13.7  T
   5    -54.5097775 -0.105803E-07  0.647E-04    3.79      25.4  T
   6    -54.5097775 -0.471420E-08  0.274E-04    3.79      60.0  T
     SCC iter.                  ...        0 min,  0.013 sec
     gradient                   ...        0 min,  0.008 sec
 * total energy  :   -53.6537106 Eh     change       -0.3933271E-04 Eh
   gradient norm :     0.0013942 Eh/α   predicted    -0.2123219E-04 ( -46.02%)
   displ. norm   :     0.1373527 α      lambda       -0.2276420E-04
   maximum displ.:     0.0742263 α      in ANC's #1, #3, #5, ...

........................................................................
.............................. CYCLE   28 ..............................
........................................................................

 iter      E             dE          RMSdq      gap      omega  full diag
   1    -54.5108685 -0.545109E+02  0.483E-02    3.80       0.0  T
   2    -54.5108688 -0.346332E-06  0.283E-02    3.80       1.0  T
   3    -54.5108683  0.533689E-06  0.440E-03    3.80       3.7  T
   4    -54.5108689 -0.618329E-06  0.113E-03    3.80      14.5  T
   5    -54.5108689 -0.273980E-07  0.421E-04    3.80      39.0  T
   6    -54.5108689 -0.455024E-09  0.235E-04    3.80      70.1  T
     SCC iter.                  ...        0 min,  0.021 sec
     gradient                   ...        0 min,  0.006 sec
 * total energy  :   -53.6537274 Eh     change       -0.1680627E-04 Eh
   gradient norm :     0.0029346 Eh/α   predicted    -0.1147945E-04 ( -31.70%)
   displ. norm   :     0.1180249 α      lambda       -0.2720325E-04
   maximum displ.:     0.0605129 α      in ANC's #1, #3, #5, ...

........................................................................
.............................. CYCLE   29 ..............................
........................................................................

 iter      E             dE          RMSdq      gap      omega  full diag
   1    -54.5102648 -0.545103E+02  0.395E-02    3.80       0.0  T
   2    -54.5102650 -0.117874E-06  0.232E-02    3.80       1.0  T
   3    -54.5102645  0.405339E-06  0.363E-03    3.80       4.5  T
   4    -54.5102650 -0.479843E-06  0.671E-04    3.80      24.5  T
   5    -54.5102650 -0.246088E-08  0.375E-04    3.80      43.9  T
     SCC iter.                  ...        0 min,  0.016 sec
     gradient                   ...        0 min,  0.005 sec
 * total energy  :   -53.6537470 Eh     change       -0.1968373E-04 Eh
   gradient norm :     0.0015426 Eh/α   predicted    -0.1379403E-04 ( -29.92%)
   displ. norm   :     0.1575536 α      lambda       -0.2413249E-04
   maximum displ.:     0.0877944 α      in ANC's #3, #5, #1, ...

........................................................................
.............................. CYCLE   30 ..............................
........................................................................

 iter      E             dE          RMSdq      gap      omega  full diag
   1    -54.5101344 -0.545101E+02  0.579E-02    3.80       0.0  T
   2    -54.5101346 -0.188233E-06  0.340E-02    3.80       1.0  T
   3    -54.5101344  0.245300E-06  0.285E-03    3.80       5.8  T
   4    -54.5101347 -0.339756E-06  0.771E-04    3.80      21.3  T
   5    -54.5101347 -0.418464E-08  0.469E-04    3.80      35.0  T
     SCC iter.                  ...        0 min,  0.008 sec
     gradient                   ...        0 min,  0.004 sec
 * total energy  :   -53.6537714 Eh     change       -0.2436724E-04 Eh
   gradient norm :     0.0016929 Eh/α   predicted    -0.1220124E-04 ( -49.93%)
   displ. norm   :     0.1429877 α      lambda       -0.2090450E-04
   maximum displ.:     0.0814111 α      in ANC's #3, #5, #1, ...

........................................................................
.............................. CYCLE   31 ..............................
........................................................................

 iter      E             dE          RMSdq      gap      omega  full diag
   1    -54.5100563 -0.545101E+02  0.527E-02    3.80       0.0  T
   2    -54.5100564 -0.164636E-06  0.309E-02    3.81       1.0  T
   3    -54.5100562  0.277919E-06  0.321E-03    3.81       5.1  T
   4    -54.5100565 -0.353082E-06  0.754E-04    3.81      21.8  T
   5    -54.5100565 -0.697531E-08  0.382E-04    3.81      43.1  T
     SCC iter.                  ...        0 min,  0.008 sec
     gradient                   ...        0 min,  0.004 sec
 * total energy  :   -53.6537973 Eh     change       -0.2588540E-04 Eh
   gradient norm :     0.0013691 Eh/α   predicted    -0.1054765E-04 ( -59.25%)
   displ. norm   :     0.2430057 α      lambda       -0.3002063E-04
   maximum displ.:     0.1370816 α      in ANC's #3, #5, #1, ...

........................................................................
.............................. CYCLE   32 ..............................
........................................................................

 iter      E             dE          RMSdq      gap      omega  full diag
   1    -54.5101567 -0.545102E+02  0.883E-02    3.81       0.0  T
   2    -54.5101572 -0.449921E-06  0.518E-02    3.81       1.0  T
   3    -54.5101566  0.586555E-06  0.489E-03    3.81       3.4  T
   4    -54.5101573 -0.777815E-06  0.124E-03    3.81      13.3  T
   5    -54.5101574 -0.183753E-07  0.629E-04    3.81      26.1  T
   6    -54.5101574 -0.285007E-08  0.253E-04    3.81      65.0  T
     SCC iter.                  ...        0 min,  0.010 sec
     gradient                   ...        0 min,  0.004 sec
 * total energy  :   -53.6538269 Eh     change       -0.2957144E-04 Eh
   gradient norm :     0.0010868 Eh/α   predicted    -0.1541054E-04 ( -47.89%)
   displ. norm   :     0.1389808 α      lambda       -0.9742628E-05
   maximum displ.:     0.0818275 α      in ANC's #3, #1, #5, ...

........................................................................
.............................. CYCLE   33 ..............................
........................................................................

 iter      E             dE          RMSdq      gap      omega  full diag
   1    -54.5101413 -0.545101E+02  0.505E-02    3.82       0.0  T
   2    -54.5101415 -0.162275E-06  0.296E-02    3.82       1.0  T
   3    -54.5101411  0.425393E-06  0.391E-03    3.82       4.2  T
   4    -54.5101416 -0.507859E-06  0.718E-04    3.82      22.9  T
   5    -54.5101416 -0.555672E-08  0.369E-04    3.82      44.6  T
     SCC iter.                  ...        0 min,  0.019 sec
     gradient                   ...        0 min,  0.003 sec
 * total energy  :   -53.6538375 Eh     change       -0.1064751E-04 Eh
   gradient norm :     0.0007909 Eh/α   predicted    -0.4913317E-05 ( -53.85%)
   displ. norm   :     0.1299054 α      lambda       -0.8709576E-05
   maximum displ.:     0.0764412 α      in ANC's #3, #1, #2, ...

........................................................................
.............................. CYCLE   34 ..............................
........................................................................

 iter      E             dE          RMSdq      gap      omega  full diag
   1    -54.5105014 -0.545105E+02  0.456E-02    3.83       0.0  T
   2    -54.5105015 -0.141914E-06  0.268E-02    3.83       1.0  T
   3    -54.5105011  0.405194E-06  0.374E-03    3.83       4.4  T
   4    -54.5105016 -0.481021E-06  0.709E-04    3.83      23.2  T
   5    -54.5105016 -0.462608E-08  0.392E-04    3.83      41.9  T
     SCC iter.                  ...        0 min,  0.021 sec
     gradient                   ...        0 min,  0.016 sec
 * total energy  :   -53.6538469 Eh     change       -0.9416091E-05 Eh
   gradient norm :     0.0004598 Eh/α   predicted    -0.4388352E-05 ( -53.40%)
   displ. norm   :     0.1177956 α      lambda       -0.6134882E-05
   maximum displ.:     0.0672353 α      in ANC's #3, #1, #2, ...

........................................................................
.............................. CYCLE   35 ..............................
........................................................................

 iter      E             dE          RMSdq      gap      omega  full diag
   1    -54.5103669 -0.545104E+02  0.390E-02    3.83       0.0  T
   2    -54.5103670 -0.116806E-06  0.230E-02    3.83       1.0  T
   3    -54.5103666  0.441876E-06  0.381E-03    3.83       4.3  T
   4    -54.5103671 -0.516770E-06  0.707E-04    3.83      23.2  T
   5    -54.5103671 -0.297730E-08  0.409E-04    3.83      40.2  T
     SCC iter.                  ...        0 min,  0.016 sec
     gradient                   ...        0 min,  0.003 sec
 * total energy  :   -53.6538531 Eh     change       -0.6129630E-05 Eh
   gradient norm :     0.0005846 Eh/α   predicted    -0.3086755E-05 ( -49.64%)
   displ. norm   :     0.0614399 α      lambda       -0.2805913E-05
   maximum displ.:     0.0348600 α      in ANC's #3, #1, #4, ...

........................................................................
.............................. CYCLE   36 ..............................
........................................................................

 iter      E             dE          RMSdq      gap      omega  full diag
   1    -54.5107024 -0.545107E+02  0.190E-02    3.84       0.0  T
   2    -54.5107025 -0.341072E-07  0.112E-02    3.84       1.5  T
   3    -54.5107023  0.124834E-06  0.199E-03    3.84       8.3  T
   4    -54.5107025 -0.145745E-06  0.393E-04    3.84      41.8  T
   5    -54.5107025 -0.829175E-09  0.232E-04    3.84      70.8  T
     SCC iter.                  ...        0 min,  0.008 sec
     gradient                   ...        0 min,  0.004 sec
 * total energy  :   -53.6538555 Eh     change       -0.2395532E-05 Eh
   gradient norm :     0.0004639 Eh/α   predicted    -0.1406552E-05 ( -41.28%)
   displ. norm   :     0.0346987 α      lambda       -0.1284169E-05
   maximum displ.:     0.0203775 α      in ANC's #3, #4, #1, ...

   *** GEOMETRY OPTIMIZATION CONVERGED AFTER 36 ITERATIONS ***

------------------------------------------------------------------------
 total energy gain   :        -0.0309657 Eh      -19.4313 kcal/mol
 total RMSD          :         1.1007873 a0        0.5825 Å
 total power (kW/mol):        -2.2583476 (step) -109.2712 (real)
------------------------------------------------------------------------

 ANCopt (total)                0 d,  0 h,  0 min,  0.744 sec
 optimizer setup                ...        0 min,  0.000 sec (  0.015%)
 model hessian                  ...        0 min,  0.063 sec (  8.432%)
 ANC generation                 ...        0 min,  0.002 sec (  0.259%)
 coordinate transformation      ...        0 min,  0.000 sec (  0.060%)
 single point calculation       ...        0 min,  0.656 sec ( 88.211%)
 optimization log               ...        0 min,  0.011 sec (  1.500%)
 hessian update                 ...        0 min,  0.007 sec (  0.906%)
 rational function              ...        0 min,  0.003 sec (  0.426%)

================
 final structure:
================
37
 xtb: 6.7.1 (edcfbbe)
C           -0.60295240856708       -2.60535324201371        0.00229698961345
O           -0.44487809257497       -1.56663094155949        0.93582175751649
C           -0.34694880965891       -0.23684743271619        0.42149071549341
C            0.50126459872748       -0.18951668929491       -0.84845263303989
C            1.96012529655055       -0.13493802191639       -0.66862879122483
C            2.59529283656247       -0.88506913063704        0.31796186035330
C            3.97017079630736       -0.84096674777733        0.45403458599857
C            4.73130659397180       -0.04431990622011       -0.38449816612313
C            4.10771208362129        0.71338328887010       -1.36155578932262
C            2.73371318453440        0.66834059383643       -1.50369250659400
C           -0.05264477062342       -0.24418758446532       -2.05523566582082
O            0.34502348623262        0.52756467156918        1.38127085054388
C           -0.25537207669981        0.58681118159165        2.65688391633842
C           -1.72695710524005        0.37099929033012        0.18606121512723
C           -2.89381959470118       -0.28965268175221        0.53962318983445
C           -4.12400378263763        0.31755878420518        0.34803833585632
C           -4.19591289636899        1.59348542217799       -0.18121825692216
C           -3.03091608178880        2.26808522411371       -0.51019975154534
C           -1.80267023481235        1.66174620341886       -0.32657528048326
H            0.30868384210832       -2.76979070785983       -0.58253163868578
H           -0.81787490746318       -3.49496009036909        0.59376995438307
H           -1.43299281483194       -2.41549559385721       -0.68547492968346
H            2.00907497296093       -1.50406344801275        0.97858426534073
H            4.45142546430768       -1.43091033543505        1.22079246537056
H            5.80537189179493       -0.00892628303573       -0.27379404399990
H            4.69478492202419        1.34491232760467       -2.01297072885534
H            2.24943212594382        1.27472797814151       -2.25516773126847
H            0.55523213365387       -0.26104191603931       -2.94387319322212
H           -1.11862154882138       -0.28252461194328       -2.20239663791170
H            0.43330284196229        1.15987568066584        3.27433728182760
H           -0.38595099460269       -0.41331227900825        3.07604472269936
H           -1.22643476859362        1.09295182126169        2.61924097760995
H           -2.83984311442394       -1.27444486069153        0.97792700457014
H           -5.02722826188569       -0.20849573868907        0.61998450086021
H           -5.15583563415086        2.06619048503625       -0.32878618026985
H           -3.08039006929786        3.27083786883214       -0.90851163043014
H           -0.88966810351997        2.18397742164696       -0.57060103393575
 
 Bond Distances (Angstroems)
 ---------------------------
C1-O2=1.4055         C1-H20=1.0955        C1-H21=1.0897        C1-H22=1.0946        O2-C1=1.4055         O2-C3=1.4291         
C3-O2=1.4291         C3-C4=1.5279         C3-O12=1.4087        C3-C14=1.5262        C4-C3=1.5279         C4-C5=1.4709         
C4-C11=1.3290        C5-C4=1.4709         C5-C6=1.3927         C5-C10=1.3932        C6-C5=1.3927         C6-C7=1.3823         
C6-H23=1.0785        C7-C6=1.3823         C7-C8=1.3846         C7-H24=1.0805        C8-C7=1.3846         C8-C9=1.3848         
C8-H25=1.0803        C9-C8=1.3848         C9-C10=1.3821        C9-H26=1.0807        C10-C5=1.3932        C10-C9=1.3821        
C10-H27=1.0803       C11-C4=1.3290        C11-H28=1.0768       C11-H29=1.0768       O12-C3=1.4087        O12-C13=1.4111       
C13-O12=1.4111       C13-H30=1.0881       C13-H31=1.0922       C13-H32=1.0957       C14-C3=1.5262        C14-C15=1.3867       
C14-C19=1.3909       C15-C14=1.3867       C15-C16=1.3852       C15-H33=1.0793       C16-C15=1.3852       C16-C17=1.3832       
C16-H34=1.0800       C17-C16=1.3832       C17-C18=1.3858       C17-H35=1.0801       C18-C17=1.3858       C18-C19=1.3820       
C18-H36=1.0801       C19-C14=1.3909       C19-C18=1.3820       C19-H37=1.0797       H20-C1=1.0955        H21-C1=1.0897        
H22-C1=1.0946        H23-C6=1.0785        H24-C7=1.0805        H25-C8=1.0803        H26-C9=1.0807        H27-C10=1.0803       
H28-C11=1.0768       H29-C11=1.0768       H30-C13=1.0881       H31-C13=1.0922       H32-C13=1.0957       H33-C15=1.0793       
H34-C16=1.0800       H35-C17=1.0801       H36-C18=1.0801       H37-C19=1.0797       
 C  H  Rav=1.0838 sigma=0.0065  Rmin=1.0768  Rmax=1.0957    18
 C  C  Rav=1.4055 sigma=0.0527  Rmin=1.3290  Rmax=1.5279    16
 O  C  Rav=1.4136 sigma=0.0092  Rmin=1.4055  Rmax=1.4291     4
 
 selected bond angles (degree)
 --------------------
H20-C1-O2=111.83               H21-C1-O2=105.37               H21-C1-H20=109.35              H22-C1-O2=111.99               
H22-C1-H20=108.76              H22-C1-H21=109.46              C3-O2-C1=117.15                C4-C3-O2=111.47                
O12-C3-O2=107.06               O12-C3-C4=106.07               C14-C3-O2=111.35               C14-C3-C4=111.19               
C14-C3-O12=109.46              C5-C4-C3=116.75                C11-C4-C3=121.47               C11-C4-C5=121.73               
C6-C5-C4=121.26                C10-C5-C4=119.92               C10-C5-C6=118.81               C7-C6-C5=120.41                
H23-C6-C5=119.68               H23-C6-C7=119.91               C8-C7-C6=120.36                H24-C7-C6=119.70               
H24-C7-C8=119.94               C9-C8-C7=119.64                H25-C8-C7=120.22               H25-C8-C9=120.14               
C10-C9-C8=120.16               H26-C9-C8=120.03               H26-C9-C10=119.81              C9-C10-C5=120.61               
H27-C10-C5=119.45              H27-C10-C9=119.93              
 
 selected dihedral angles (degree)
 ---------------------------------
C3-O2-C1-H20= 70.24           C3-O2-C1-H21=188.95           C3-O2-C1-H22=307.87           C4-C3-O2-C1=319.94            
O12-C3-O2-C1=204.35           C14-C3-O2-C1= 84.74           C5-C4-C3-O2=277.35            C5-C4-C3-O12= 33.54           
C5-C4-C3-C14=152.45           C11-C4-C3-O2= 94.98           C11-C4-C3-O12=211.17          C11-C4-C3-C14=330.08          
C6-C5-C4-C3= 39.86            C6-C5-C4-C11=222.23           C10-C5-C4-C3=219.20           C10-C5-C4-C11= 41.57          
C7-C6-C5-C4=178.70            C7-C6-C5-C10=359.35           H23-C6-C5-C4=358.73           H23-C6-C5-C10=179.39          
C8-C7-C6-C5=  0.37            C8-C7-C6-H23=180.33           H24-C7-C6-C5=180.26           H24-C7-C6-H23=  0.22          
C9-C8-C7-C6=  0.15            C9-C8-C7-H24=180.26           H25-C8-C7-C6=179.78           H25-C8-C7-H24=359.89          
C10-C9-C8-C7=359.62           C10-C9-C8-H25=179.99          H26-C9-C8-C7=179.39           H26-C9-C8-H25=359.76          
C9-C10-C5-C4=181.07           C9-C10-C5-C6=  0.42           H27-C10-C5-C4=  2.27          H27-C10-C5-C6=181.63          
C5-C10-C9-C8=  0.09           C5-C10-C9-H26=180.32          H27-C10-C9-C8=178.88          H27-C10-C9-H26=359.11         
           -------------------------------------------------
          |                Final Singlepoint                |
           -------------------------------------------------

          ...................................................
          :                      SETUP                      :
          :.................................................:
          :  # basis functions                  94          :
          :  # atomic orbitals                  94          :
          :  # shells                           56          :
          :  # electrons                        98          :
          :  max. iterations                   250          :
          :  Hamiltonian                  GFN2-xTB          :
          :  restarted?                      false          :
          :  GBSA solvation                  false          :
          :  PC potential                    false          :
          :  electronic temp.          300.0000000     K    :
          :  accuracy                    1.0000000          :
          :  -> integral cutoff          0.2500000E+02      :
          :  -> integral neglect         0.1000000E-07      :
          :  -> SCF convergence          0.1000000E-05 Eh   :
          :  -> wf. convergence          0.1000000E-03 e    :
          :  Broyden damping             0.4000000          :
          :  net charge                          0          :
          :  unpaired electrons                  0          :
          ...................................................

 iter      E             dE          RMSdq      gap      omega  full diag
   1    -54.5107025 -0.545107E+02  0.698E-05    3.84       0.0  T
   2    -54.5107025 -0.276756E-10  0.449E-05    3.84     365.8  T
   3    -54.5107025 -0.137064E-10  0.286E-05    3.84     575.7  T

   *** convergence criteria satisfied after 3 iterations ***

         #    Occupation            Energy/Eh            Energy/eV
      -------------------------------------------------------------
         1        2.0000           -0.7056511             -19.2017
       ...           ...                  ...                  ...
        43        2.0000           -0.4145637             -11.2809
        44        2.0000           -0.4068429             -11.0708
        45        2.0000           -0.4056747             -11.0390
        46        2.0000           -0.4032080             -10.9718
        47        2.0000           -0.3977049             -10.8221
        48        2.0000           -0.3901385             -10.6162
        49        2.0000           -0.3844810             -10.4623 (HOMO)
        50                         -0.2435399              -6.6271 (LUMO)
        51                         -0.2283096              -6.2126
        52                         -0.2252110              -6.1283
        53                         -0.2156521              -5.8682
        54                         -0.1874186              -5.0999
       ...                                ...                  ...
        94                          0.6789932              18.4763
      -------------------------------------------------------------
                  HL-Gap            0.1409411 Eh            3.8352 eV
             Fermi-level           -0.3140105 Eh           -8.5447 eV

 SCC (total)                   0 d,  0 h,  0 min,  0.011 sec
 SCC setup                      ...        0 min,  0.000 sec (  0.766%)
 Dispersion                     ...        0 min,  0.000 sec (  1.655%)
 classical contributions        ...        0 min,  0.000 sec (  0.356%)
 integral evaluation            ...        0 min,  0.001 sec ( 12.015%)
 iterations                     ...        0 min,  0.005 sec ( 50.375%)
 molecular gradient             ...        0 min,  0.004 sec ( 33.184%)
 printout                       ...        0 min,  0.000 sec (  1.439%)

         :::::::::::::::::::::::::::::::::::::::::::::::::::::
         ::                     SUMMARY                     ::
         :::::::::::::::::::::::::::::::::::::::::::::::::::::
         :: total energy             -53.653855457305 Eh    ::
         :: gradient norm              0.000463836015 Eh/a0 ::
         :: HOMO-LUMO gap              3.835203328488 eV    ::
         ::.................................................::
         :: SCC energy               -54.510130058701 Eh    ::
         :: -> isotropic ES            0.041153050038 Eh    ::
         :: -> anisotropic ES          0.003244642522 Eh    ::
         :: -> anisotropic XC          0.024939359918 Eh    ::
         :: -> dispersion             -0.041668097651 Eh    ::
         :: repulsion energy           0.856274601396 Eh    ::
         :: add. restraining           0.000000000000 Eh    ::
         :: total charge               0.000000000000 e     ::
         :::::::::::::::::::::::::::::::::::::::::::::::::::::

           -------------------------------------------------
          |                Property Printout                |
           -------------------------------------------------

    * Orbital Energies and Occupations

         #    Occupation            Energy/Eh            Energy/eV
      -------------------------------------------------------------
         1        2.0000           -0.7056511             -19.2017
       ...           ...                  ...                  ...
        37        2.0000           -0.4530917             -12.3293
        38        2.0000           -0.4441313             -12.0854
        39        2.0000           -0.4372342             -11.8977
        40        2.0000           -0.4292013             -11.6792
        41        2.0000           -0.4238722             -11.5341
        42        2.0000           -0.4209522             -11.4547
        43        2.0000           -0.4145637             -11.2809
        44        2.0000           -0.4068429             -11.0708
        45        2.0000           -0.4056747             -11.0390
        46        2.0000           -0.4032080             -10.9718
        47        2.0000           -0.3977049             -10.8221
        48        2.0000           -0.3901385             -10.6162
        49        2.0000           -0.3844810             -10.4623 (HOMO)
        50                         -0.2435399              -6.6271 (LUMO)
        51                         -0.2283096              -6.2126
        52                         -0.2252110              -6.1283
        53                         -0.2156521              -5.8682
        54                         -0.1874186              -5.0999
        55                         -0.0988565              -2.6900
        56                         -0.0818044              -2.2260
        57                          0.0205362               0.5588
        58                          0.0382501               1.0408
        59                          0.0566727               1.5421
        60                          0.1032224               2.8088
       ...                                ...                  ...
        94                          0.6789932              18.4763
      -------------------------------------------------------------
                  HL-Gap            0.1409411 Eh            3.8352 eV
             Fermi-level           -0.3140105 Eh           -8.5447 eV

     #   Z          covCN         q      C6AA      α(0)
     1   6 C        3.636     0.048    20.134     6.456
     2   8 O        1.699    -0.336    19.631     5.982
     3   6 C        3.692     0.264    16.722     5.851
     4   6 C        2.948    -0.003    28.089     8.693
     5   6 C        2.979     0.021    27.542     8.609
     6   6 C        2.924    -0.025    28.635     8.775
     7   6 C        2.919    -0.029    28.731     8.790
     8   6 C        2.920    -0.030    28.757     8.794
     9   6 C        2.919    -0.030    28.744     8.792
    10   6 C        2.926    -0.033    28.820     8.804
    11   6 C        2.846    -0.095    30.370     9.032
    12   8 O        1.702    -0.314    19.238     5.922
    13   6 C        3.643     0.043    20.187     6.459
    14   6 C        2.971    -0.015    28.381     8.738
    15   6 C        2.922    -0.032    28.798     8.800
    16   6 C        2.920    -0.031    28.775     8.797
    17   6 C        2.920    -0.030    28.759     8.794
    18   6 C        2.920    -0.029    28.726     8.789
    19   6 C        2.924    -0.030    28.746     8.792
    20   1 H        0.924     0.031     2.575     2.509
    21   1 H        0.925     0.058     2.226     2.333
    22   1 H        0.924     0.029     2.602     2.522
    23   1 H        0.926     0.050     2.319     2.381
    24   1 H        0.926     0.031     2.574     2.509
    25   1 H        0.926     0.029     2.593     2.518
    26   1 H        0.926     0.030     2.589     2.516
    27   1 H        0.926     0.031     2.568     2.506
    28   1 H        0.926     0.048     2.344     2.394
    29   1 H        0.926     0.037     2.488     2.467
    30   1 H        0.925     0.058     2.221     2.330
    31   1 H        0.924     0.047     2.354     2.399
    32   1 H        0.924     0.028     2.616     2.529
    33   1 H        0.926     0.043     2.403     2.424
    34   1 H        0.926     0.033     2.550     2.497
    35   1 H        0.926     0.033     2.548     2.496
    36   1 H        0.926     0.034     2.534     2.489
    37   1 H        0.926     0.036     2.500     2.472

 Mol. C6AA /au·bohr⁶  :      15630.896378
 Mol. C8AA /au·bohr⁸  :     373150.943207
 Mol. α(0) /au        :        197.964425


Wiberg/Mayer (AO) data.
largest (>0.10) Wiberg bond orders for each atom

 ---------------------------------------------------------------------------
     #   Z sym  total        # sym  WBO       # sym  WBO       # sym  WBO
 ---------------------------------------------------------------------------
     1   6 C    3.951 --     2 O    0.992    21 H    0.979    22 H    0.977
                            20 H    0.976
     2   8 O    2.076 --     1 C    0.992     3 C    0.936
     3   6 C    3.919 --    12 O    0.971    14 C    0.955     4 C    0.946
                             2 O    0.936
     4   6 C    3.984 --    11 C    1.894     5 C    1.048     3 C    0.946
     5   6 C    3.989 --     6 C    1.387    10 C    1.385     4 C    1.048
                             8 C    0.105
     6   6 C    3.990 --     7 C    1.451     5 C    1.387    23 H    0.967
                             9 C    0.108
     7   6 C    3.992 --     6 C    1.451     8 C    1.435    24 H    0.971
                            10 C    0.108
     8   6 C    3.992 --     7 C    1.435     9 C    1.433    25 H    0.972
                             5 C    0.105
     9   6 C    3.992 --    10 C    1.453     8 C    1.433    26 H    0.971
                             6 C    0.108
    10   6 C    3.991 --     9 C    1.453     5 C    1.385    27 H    0.969
                             7 C    0.108
    11   6 C    3.989 --     4 C    1.894    29 H    0.973    28 H    0.973
    12   8 O    2.092 --    13 C    0.983     3 C    0.971
    13   6 C    3.947 --    12 O    0.983    30 H    0.980    31 H    0.979
                            32 H    0.978
    14   6 C    3.986 --    15 C    1.426    19 C    1.405     3 C    0.955
                            17 C    0.111
    15   6 C    3.991 --    16 C    1.434    14 C    1.426    33 H    0.967
                            18 C    0.110
    16   6 C    3.992 --    17 C    1.447    15 C    1.434    34 H    0.971
                            19 C    0.113
    17   6 C    3.992 --    16 C    1.447    18 C    1.431    35 H    0.971
                            14 C    0.111
    18   6 C    3.992 --    19 C    1.454    17 C    1.431    36 H    0.971
                            15 C    0.110
    19   6 C    3.992 --    18 C    1.454    14 C    1.405    37 H    0.969
                            16 C    0.113
    20   1 H    0.999 --     1 C    0.976
    21   1 H    0.996 --     1 C    0.979
    22   1 H    0.999 --     1 C    0.977
    23   1 H    0.997 --     6 C    0.967
    24   1 H    0.998 --     7 C    0.971
    25   1 H    0.999 --     8 C    0.972
    26   1 H    0.999 --     9 C    0.971
    27   1 H    0.999 --    10 C    0.969
    28   1 H    0.997 --    11 C    0.973
    29   1 H    0.998 --    11 C    0.973
    30   1 H    0.996 --    13 C    0.980
    31   1 H    0.998 --    13 C    0.979
    32   1 H    0.999 --    13 C    0.978
    33   1 H    0.998 --    15 C    0.967
    34   1 H    0.998 --    16 C    0.971
    35   1 H    0.998 --    17 C    0.971
    36   1 H    0.998 --    18 C    0.971
    37   1 H    0.999 --    19 C    0.969
 ---------------------------------------------------------------------------

Topologies differ in total number of bonds
Writing topology from bond orders to xtbtopo.mol

molecular dipole:
                 x           y           z       tot (Debye)
 q only:       -0.306      -0.176      -0.242
   full:       -0.480      -0.207      -0.322       1.560
molecular quadrupole (traceless):
                xx          xy          yy          xz          yz          zz
 q only:        0.600      -0.382      -0.191      -0.791       0.814      -0.409
  q+dip:        5.363      -0.214      -1.549      -0.673      -4.504      -3.814
   full:        1.846      -0.288      -0.345      -0.944      -0.627      -1.501

           -------------------------------------------------
          |                Geometry Summary                 |
           -------------------------------------------------

      molecular mass/u    :      254.3242536
   center of mass at/Å    :        0.0619236       0.0559742       0.0105304
  moments of inertia/u·Å² :        0.6201481E+03   0.2041065E+04   0.2179663E+04
rotational constants/cm⁻¹ :        0.2718324E-01   0.8259232E-02   0.7734055E-02

 * 35 selected distances

     #   Z          #   Z                                           value/Å
     1   6 C        2   8 O                                       1.4054894
     2   8 O        3   6 C                                       1.4291435 (max)
     5   6 C        6   6 C                                       1.3926579
     6   6 C        7   6 C                                       1.3822990
     7   6 C        8   6 C                                       1.3845979
     8   6 C        9   6 C                                       1.3847838
     5   6 C       10   6 C                                       1.3932073
     9   6 C       10   6 C                                       1.3820655
     4   6 C       11   6 C                                       1.3289583
     3   6 C       12   8 O                                       1.4086624
    12   8 O       13   6 C                                       1.4110897
    14   6 C       15   6 C                                       1.3867356
    15   6 C       16   6 C                                       1.3851946
    16   6 C       17   6 C                                       1.3832110
    17   6 C       18   6 C                                       1.3858325
    14   6 C       19   6 C                                       1.3908834
    18   6 C       19   6 C                                       1.3820106
     1   6 C       20   1 H                                       1.0955113
     1   6 C       21   1 H                                       1.0896938
     1   6 C       22   1 H                                       1.0945517
     6   6 C       23   1 H                                       1.0785303
     7   6 C       24   1 H                                       1.0805357
     8   6 C       25   1 H                                       1.0803354
     9   6 C       26   1 H                                       1.0806596
    10   6 C       27   1 H                                       1.0802542
    11   6 C       28   1 H                                       1.0767893
    11   6 C       29   1 H                                       1.0767696 (min)
    13   6 C       30   1 H                                       1.0880832
    13   6 C       31   1 H                                       1.0922426
    13   6 C       32   1 H                                       1.0956999
    15   6 C       33   1 H                                       1.0792773
    16   6 C       34   1 H                                       1.0800476
    17   6 C       35   1 H                                       1.0801288
    18   6 C       36   1 H                                       1.0800987
    19   6 C       37   1 H                                       1.0797440

 * 3 distinct bonds (by element types)

   Z      Z             #   av. dist./Å        max./Å        min./Å
   1 H    6 C          18     1.0838307     1.0956999     1.0767696
   6 C    6 C          13     1.3817259     1.3932073     1.3289583
   6 C    8 O           4     1.4135962     1.4291435     1.4054894


optimized geometry written to: xtbopt.xyz


           -------------------------------------------------
          | TOTAL ENERGY              -53.653855457305 Eh   |
          | GRADIENT NORM               0.000463836015 Eh/α |
          | HOMO-LUMO GAP               3.835203328488 eV   |
           -------------------------------------------------

------------------------------------------------------------------------
 * finished run on 2025/12/01 at 14:22:41.090     
------------------------------------------------------------------------
 total:
 * wall-time:     0 d,  0 h,  0 min,  0.802 sec
 *  cpu-time:     0 d,  0 h,  0 min, 18.257 sec
 * ratio c/w:    22.752 speedup
 SCF:
 * wall-time:     0 d,  0 h,  0 min,  0.038 sec
 *  cpu-time:     0 d,  0 h,  0 min,  0.863 sec
 * ratio c/w:    22.867 speedup
 ANC optimizer:
 * wall-time:     0 d,  0 h,  0 min,  0.756 sec
 *  cpu-time:     0 d,  0 h,  0 min, 17.233 sec
 * ratio c/w:    22.801 speedup

normal termination of xtb
