      -----------------------------------------------------------      
     |                   =====================                   |     
     |                           x T B                           |     
     |                   =====================                   |     
     |                         S. Grimme                         |     
     |          Mulliken Center for Theoretical Chemistry        |     
     |                    University of Bonn                     |     
      -----------------------------------------------------------      

   * xtb version 6.7.1 (edcfbbe) compiled by 'albert@albert-system' on 2024-07-22

   xtb is free software: you can redistribute it and/or modify it under
   the terms of the GNU Lesser General Public License as published by
   the Free Software Foundation, either version 3 of the License, or
   (at your option) any later version.
   
   xtb is distributed in the hope that it will be useful,
   but WITHOUT ANY WARRANTY; without even the implied warranty of
   MERCHANTABILITY or FITNESS FOR A PARTICULAR PURPOSE.  See the
   GNU Lesser General Public License for more details.
   
   Cite this work as:
   * C. Bannwarth, E. Caldeweyher, S. Ehlert, A. Hansen, P. Pracht,
     J. Seibert, S. Spicher, S. Grimme, WIREs Comput. Mol. Sci., 2020, 11,
     e01493. DOI: 10.1002/wcms.1493
   
   for GFN2-xTB:
   * C. Bannwarth, S. Ehlert and S. Grimme., J. Chem. Theory Comput., 2019,
     15, 1652-1671. DOI: 10.1021/acs.jctc.8b01176
   for GFN1-xTB:
   * S. Grimme, C. Bannwarth, P. Shushkov, J. Chem. Theory Comput., 2017,
     13, 1989-2009. DOI: 10.1021/acs.jctc.7b00118
   for GFN0-xTB:
   * P. Pracht, E. Caldeweyher, S. Ehlert, S. Grimme, ChemRxiv, 2019, preprint.
     DOI: 10.26434/chemrxiv.8326202.v1
   for GFN-FF:
   * S. Spicher and S. Grimme, Angew. Chem. Int. Ed., 2020, 59, 15665-15673.
     DOI: 10.1002/anie.202004239
   
   for ALPB and GBSA implicit solvation:
   * S. Ehlert, M. Stahn, S. Spicher, S. Grimme, J. Chem. Theory Comput.,
     2021, 17, 4250-4261. DOI: 10.1021/acs.jctc.1c00471
   
   for ddCOSMO and CPCM-X implicit solvation:
   * M. Stahn, S. Ehlert, S. Grimme, J. Phys. Chem. A,
     2023, XX, XXXX-XXXX. DOI: 10.1021/acs.jpca.3c04382
   
   for DFT-D4:
   * E. Caldeweyher, C. Bannwarth and S. Grimme, J. Chem. Phys., 2017,
     147, 034112. DOI: 10.1063/1.4993215
   * E. Caldeweyher, S. Ehlert, A. Hansen, H. Neugebauer, S. Spicher,
     C. Bannwarth and S. Grimme, J. Chem. Phys., 2019, 150, 154122.
     DOI: 10.1063/1.5090222
   * E. Caldeweyher, J.-M. Mewes, S. Ehlert and S. Grimme, Phys. Chem. Chem. Phys.
     2020, 22, 8499-8512. DOI: 10.1039/D0CP00502A
   
   for sTDA-xTB:
   * S. Grimme and C. Bannwarth, J. Chem. Phys., 2016, 145, 054103.
     DOI: 10.1063/1.4959605
   
   in the mass-spec context:
   * V. Asgeirsson, C. Bauer and S. Grimme, Chem. Sci., 2017, 8, 4879.
     DOI: 10.1039/c7sc00601b
   * J. Koopman and S. Grimme, ACS Omega 2019, 4, 12, 15120-15133.
     DOI: 10.1021/acsomega.9b02011
   
   for metadynamics refer to:
   * S. Grimme, J. Chem. Theory Comput., 2019, 155, 2847-2862
     DOI: 10.1021/acs.jctc.9b00143
   
   for SPH calculations refer to:
   * S. Spicher and S. Grimme, J. Chem. Theory Comput., 2021, 17, 1701-1714
     DOI: 10.1021/acs.jctc.0c01306
   
   for ONIOM refer to:
   * C. Plett, A. Katbashev, S. Ehlert, S. Grimme, M. Bursch,
     Phys. Chem. Chem. Phys., 2023, 25, 17860-17868. DOI: 10.1039/D3CP02178E
   
   for DIPRO refer to:
   * J. Kohn, N. Gildemeister, S. Grimme, D. Fazzi, A. Hansen,
     J. Chem. Phys., 2023, just accepted.
   
   for PTB refer to:
   * S. Grimme, M. Mueller, A. Hansen, J. Chem. Phys., 2023, 158, 124111.
     DOI: 10.1063/5.0137838
   
   with help from (in alphabetical order)
   P. Atkinson, C. Bannwarth, F. Bohle, G. Brandenburg, E. Caldeweyher
   M. Checinski, S. Dohm, S. Ehlert, S. Ehrlich, I. Gerasimov, C. Hölzer
   A. Katbashev, J. Kohn, J. Koopman, C. Lavigne, S. Lehtola, F. März, M. Müller,
   F. Musil, H. Neugebauer, J. Pisarek, C. Plett, P. Pracht, F. Pultar,
   J. Seibert, P. Shushkov, S. Spicher, M. Stahn, M. Steiner, T. Strunk,
   J. Stückrath, T. Rose, and J. Unsleber
   
 * started run on 2025/12/01 at 14:22:39.488     
   ID    Z sym.   atoms
    1    6 C      1, 3-11, 13-19
    2    8 O      2, 12
    3    1 H      20-37

           -------------------------------------------------
          |                Calculation Setup                |
           -------------------------------------------------

          program call               : xtb pipeline_data/3_conformer_xyz/acrylates/rdkit/OQCIXXVMXBXDSC-UHFFFAOYSA-N_conf111.xyz --opt --gfn 2-xTB --iterations 250
          coordinate file            : pipeline_data/3_conformer_xyz/acrylates/rdkit/OQCIXXVMXBXDSC-UHFFFAOYSA-N_conf111.xyz
          omp threads                :                    24

########################################################################
[WARNING] Please study the warnings concerning your input carefully
-1- readin_getIntValue: could not parse '2-xTB'
########################################################################

           -------------------------------------------------
          |                 G F N 2 - x T B                 |
           -------------------------------------------------

        Reference                      10.1021/acs.jctc.8b01176
      * Hamiltonian:
        H0-scaling (s, p, d)           1.850000    2.230000    2.230000
        zeta-weighting                 0.500000
      * Dispersion:
        s8                             2.700000
        a1                             0.520000
        a2                             5.000000
        s9                             5.000000
      * Repulsion:
        kExp                           1.500000    1.000000
        rExp                           1.000000
      * Coulomb:
        alpha                          2.000000
        third order                    shell-resolved
        anisotropic                    true
        a3                             3.000000
        a5                             4.000000
        cn-shift                       1.200000
        cn-exp                         4.000000
        max-rad                        5.000000

q/qsh data taken from xtbrestart
CAMM data taken from xtbrestart

          ...................................................
          :                      SETUP                      :
          :.................................................:
          :  # basis functions                  94          :
          :  # atomic orbitals                  94          :
          :  # shells                           56          :
          :  # electrons                        98          :
          :  max. iterations                   250          :
          :  Hamiltonian                  GFN2-xTB          :
          :  restarted?                       true          :
          :  GBSA solvation                  false          :
          :  PC potential                    false          :
          :  electronic temp.          300.0000000     K    :
          :  accuracy                    1.0000000          :
          :  -> integral cutoff          0.2500000E+02      :
          :  -> integral neglect         0.1000000E-07      :
          :  -> SCF convergence          0.1000000E-05 Eh   :
          :  -> wf. convergence          0.1000000E-03 e    :
          :  Broyden damping             0.4000000          :
          :  net charge                          0          :
          :  unpaired electrons                  0          :
          ...................................................

 iter      E             dE          RMSdq      gap      omega  full diag
   1    -54.4722667 -0.544723E+02  0.410E+00    3.10       0.0  T
   2    -54.4826078 -0.103412E-01  0.243E+00    3.47       1.0  T
   3    -54.4743819  0.822599E-02  0.568E-01    3.68       1.0  T
   4    -54.4858401 -0.114583E-01  0.172E-01    3.67       1.0  T
   5    -54.4861783 -0.338232E-03  0.867E-02    3.67       1.0  T
   6    -54.4861967 -0.183882E-04  0.490E-02    3.67       1.0  T
   7    -54.4862459 -0.491739E-04  0.129E-02    3.68       1.3  T
   8    -54.4862481 -0.218591E-05  0.439E-03    3.68       3.7  T
   9    -54.4862484 -0.264124E-06  0.226E-03    3.68       7.3  T
  10    -54.4862484 -0.274161E-07  0.776E-04    3.68      21.2  T
  11    -54.4862484 -0.681767E-08  0.321E-04    3.68      51.3  T

   *** convergence criteria satisfied after 11 iterations ***

         #    Occupation            Energy/Eh            Energy/eV
      -------------------------------------------------------------
         1        2.0000           -0.7191253             -19.5684
       ...           ...                  ...                  ...
        43        2.0000           -0.4143233             -11.2743
        44        2.0000           -0.4073841             -11.0855
        45        2.0000           -0.4070655             -11.0768
        46        2.0000           -0.4033442             -10.9756
        47        2.0000           -0.3943825             -10.7317
        48        2.0000           -0.3883380             -10.5672
        49        2.0000           -0.3835869             -10.4379 (HOMO)
        50                         -0.2485269              -6.7628 (LUMO)
        51                         -0.2285418              -6.2189
        52                         -0.2255497              -6.1375
        53                         -0.2173824              -5.9153
        54                         -0.1767438              -4.8094
       ...                                ...                  ...
        94                          0.7167796              19.5046
      -------------------------------------------------------------
                  HL-Gap            0.1350600 Eh            3.6752 eV
             Fermi-level           -0.3160569 Eh           -8.6003 eV

 SCC (total)                   0 d,  0 h,  0 min,  0.035 sec
 SCC setup                      ...        0 min,  0.000 sec (  0.762%)
 Dispersion                     ...        0 min,  0.000 sec (  1.165%)
 classical contributions        ...        0 min,  0.000 sec (  0.216%)
 integral evaluation            ...        0 min,  0.002 sec (  5.494%)
 iterations                     ...        0 min,  0.029 sec ( 81.699%)
 molecular gradient             ...        0 min,  0.004 sec (  9.994%)
 printout                       ...        0 min,  0.000 sec (  0.588%)

         :::::::::::::::::::::::::::::::::::::::::::::::::::::
         ::                     SUMMARY                     ::
         :::::::::::::::::::::::::::::::::::::::::::::::::::::
         :: total energy             -53.621546868854 Eh    ::
         :: gradient norm              0.137926043978 Eh/a0 ::
         :: HOMO-LUMO gap              3.675170476444 eV    ::
         ::.................................................::
         :: SCC energy               -54.485801368110 Eh    ::
         :: -> isotropic ES            0.037504773219 Eh    ::
         :: -> anisotropic ES          0.005313446823 Eh    ::
         :: -> anisotropic XC          0.023449867018 Eh    ::
         :: -> dispersion             -0.042365610734 Eh    ::
         :: repulsion energy           0.864254499257 Eh    ::
         :: add. restraining           0.000000000000 Eh    ::
         :: total charge              -0.000000000000 e     ::
         :::::::::::::::::::::::::::::::::::::::::::::::::::::

      ----------------------------------------------------------- 
     |                   =====================                   |
     |                        A N C O P T                        |
     |                   =====================                   |
     |               Approximate Normal Coordinate               |
     |                Rational Function Optimizer                |
      ----------------------------------------------------------- 
      ----------------------------------------------------------- 
     |                   =====================                   |
     |                        A N C O P T                        |
     |                   =====================                   |
     |               Approximate Normal Coordinate               |
     |                Rational Function Optimizer                |
      ----------------------------------------------------------- 

          ...................................................
          :                      SETUP                      :
          :.................................................:
          :   optimization level            normal          :
          :   max. optcycles                   200          :
          :   ANC micro-cycles                  20          :
          :   degrees of freedom               105          :
          :.................................................:
          :   RF solver                   davidson          :
          :   write xtbopt.log                true          :
          :   linear?                        false          :
          :   energy convergence         0.5000000E-05 Eh   :
          :   grad. convergence          0.1000000E-02 Eh/α :
          :   maxmium RF displ.          1.0000000          :
          :   Hlow (freq-cutoff)         0.1000000E-01      :
          :   Hmax (freq-cutoff)         5.0000000          :
          :   S6 in model hess.         20.0000000          :
          ...................................................

generating ANC from exact Hessian ...
Using Lindh-Hessian (1995)
 Shifting diagonal of input Hessian by   9.444445576221464E-003
 Lowest  eigenvalues of input Hessian
    0.000000    0.000000    0.000000    0.000000    0.000000    0.000000
    0.010000    0.010266    0.010558    0.011185    0.011761    0.012113
    0.013543    0.013718    0.014665    0.015706    0.016023    0.016704
 Highest eigenvalues
    1.922766    1.978989    2.030965    2.052442    2.063998    2.091421
 

........................................................................
.............................. CYCLE    1 ..............................
........................................................................

 iter      E             dE          RMSdq      gap      omega  full diag
   1    -54.4862484 -0.544862E+02  0.118E-04    3.68       0.0  T
   2    -54.4862484 -0.498090E-10  0.693E-05    3.68     237.3  T
   3    -54.4862484  0.145661E-11  0.503E-05    3.68     327.0  T
     SCC iter.                  ...        0 min,  0.006 sec
     gradient                   ...        0 min,  0.004 sec
 * total energy  :   -53.6215469 Eh     change       -0.1219504E-08 Eh
   gradient norm :     0.1379264 Eh/α   predicted     0.0000000E+00 (-100.00%)
   displ. norm   :     0.3370995 α      lambda       -0.2786351E-01
   maximum displ.:     0.1010664 α      in ANC's #15, #77, #12, ...

........................................................................
.............................. CYCLE    2 ..............................
........................................................................

 iter      E             dE          RMSdq      gap      omega  full diag
   1    -54.4965026 -0.544965E+02  0.288E-01    3.61       0.0  T
   2    -54.4967389 -0.236298E-03  0.182E-01    3.61       1.0  T
   3    -54.4965937  0.145101E-03  0.919E-02    3.61       1.0  T
   4    -54.4968193 -0.225552E-03  0.265E-02    3.61       1.0  T
   5    -54.4968343 -0.150217E-04  0.868E-03    3.61       1.9  T
   6    -54.4968357 -0.135131E-05  0.387E-03    3.61       4.3  T
   7    -54.4968360 -0.317133E-06  0.133E-03    3.61      12.4  T
   8    -54.4968360 -0.502234E-08  0.592E-04    3.61      27.8  T
   9    -54.4968360 -0.367769E-08  0.176E-04    3.61      93.5  T
     SCC iter.                  ...        0 min,  0.016 sec
     gradient                   ...        0 min,  0.005 sec
 * total energy  :   -53.6403960 Eh     change       -0.1884910E-01 Eh
   gradient norm :     0.0591674 Eh/α   predicted    -0.1552128E-01 ( -17.66%)
   displ. norm   :     0.3005171 α      lambda       -0.8236893E-02
   maximum displ.:     0.1502333 α      in ANC's #8, #15, #5, ...

........................................................................
.............................. CYCLE    3 ..............................
........................................................................

 iter      E             dE          RMSdq      gap      omega  full diag
   1    -54.4992552 -0.544993E+02  0.188E-01    3.56       0.0  T
   2    -54.4993581 -0.102871E-03  0.116E-01    3.56       1.0  T
   3    -54.4993041  0.539375E-04  0.519E-02    3.56       1.0  T
   4    -54.4993805 -0.763656E-04  0.162E-02    3.56       1.0  T
   5    -54.4993864 -0.584571E-05  0.612E-03    3.56       2.7  T
   6    -54.4993871 -0.750626E-06  0.241E-03    3.56       6.8  T
   7    -54.4993872 -0.134308E-06  0.856E-04    3.56      19.2  T
   8    -54.4993872 -0.343096E-08  0.369E-04    3.56      44.6  T
     SCC iter.                  ...        0 min,  0.014 sec
     gradient                   ...        0 min,  0.004 sec
 * total energy  :   -53.6453251 Eh     change       -0.4929129E-02 Eh
   gradient norm :     0.0159676 Eh/α   predicted    -0.4490386E-02 (  -8.90%)
   displ. norm   :     0.2830934 α      lambda       -0.1557340E-02
   maximum displ.:     0.1800873 α      in ANC's #8, #5, #12, ...

........................................................................
.............................. CYCLE    4 ..............................
........................................................................

 iter      E             dE          RMSdq      gap      omega  full diag
   1    -54.4973251 -0.544973E+02  0.987E-02    3.56       0.0  T
   2    -54.4973315 -0.641492E-05  0.584E-02    3.56       1.0  T
   3    -54.4973238  0.769162E-05  0.162E-02    3.56       1.0  T
   4    -54.4973333 -0.944240E-05  0.393E-03    3.56       4.2  T
   5    -54.4973335 -0.196873E-06  0.188E-03    3.56       8.7  T
   6    -54.4973335 -0.647162E-07  0.100E-03    3.56      16.4  T
   7    -54.4973335 -0.100704E-07  0.478E-04    3.56      34.4  T
   8    -54.4973335 -0.289957E-08  0.140E-04    3.56     117.7  T
     SCC iter.                  ...        0 min,  0.014 sec
     gradient                   ...        0 min,  0.006 sec
 * total energy  :   -53.6464584 Eh     change       -0.1133257E-02 Eh
   gradient norm :     0.0087731 Eh/α   predicted    -0.8411519E-03 ( -25.78%)
   displ. norm   :     0.3875663 α      lambda       -0.1143010E-02
   maximum displ.:     0.2636138 α      in ANC's #8, #5, #7, ...

........................................................................
.............................. CYCLE    5 ..............................
........................................................................

 iter      E             dE          RMSdq      gap      omega  full diag
   1    -54.4961245 -0.544961E+02  0.121E-01    3.56       0.0  T
   2    -54.4961275 -0.301246E-05  0.717E-02    3.56       1.0  T
   3    -54.4961162  0.112728E-04  0.202E-02    3.56       1.0  T
   4    -54.4961292 -0.129766E-04  0.386E-03    3.56       4.3  T
   5    -54.4961293 -0.136383E-06  0.198E-03    3.56       8.3  T
   6    -54.4961294 -0.581073E-07  0.879E-04    3.56      18.7  T
   7    -54.4961294 -0.558903E-08  0.319E-04    3.56      51.5  T
     SCC iter.                  ...        0 min,  0.012 sec
     gradient                   ...        0 min,  0.005 sec
 * total energy  :   -53.6472635 Eh     change       -0.8051499E-03 Eh
   gradient norm :     0.0106657 Eh/α   predicted    -0.6573509E-03 ( -18.36%)
   displ. norm   :     0.3543710 α      lambda       -0.7070923E-03
   maximum displ.:     0.2241254 α      in ANC's #5, #8, #7, ...

........................................................................
.............................. CYCLE    6 ..............................
........................................................................

 iter      E             dE          RMSdq      gap      omega  full diag
   1    -54.4967940 -0.544968E+02  0.112E-01    3.56       0.0  T
   2    -54.4967954 -0.142588E-05  0.666E-02    3.56       1.0  T
   3    -54.4967772  0.182506E-04  0.253E-02    3.56       1.0  T
   4    -54.4967974 -0.202664E-04  0.267E-03    3.56       6.2  T
   5    -54.4967975 -0.625851E-07  0.140E-03    3.56      11.7  T
   6    -54.4967975 -0.114749E-07  0.521E-04    3.56      31.6  T
   7    -54.4967975 -0.279002E-08  0.235E-04    3.56      70.0  T
     SCC iter.                  ...        0 min,  0.012 sec
     gradient                   ...        0 min,  0.005 sec
 * total energy  :   -53.6478109 Eh     change       -0.5474248E-03 Eh
   gradient norm :     0.0112904 Eh/α   predicted    -0.3979453E-03 ( -27.31%)
   displ. norm   :     0.3922376 α      lambda       -0.6993764E-03
   maximum displ.:     0.2529738 α      in ANC's #5, #8, #7, ...

........................................................................
.............................. CYCLE    7 ..............................
........................................................................

 iter      E             dE          RMSdq      gap      omega  full diag
   1    -54.4987714 -0.544988E+02  0.131E-01    3.57       0.0  T
   2    -54.4987737 -0.224305E-05  0.777E-02    3.57       1.0  T
   3    -54.4987578  0.158404E-04  0.231E-02    3.57       1.0  T
   4    -54.4987755 -0.176721E-04  0.282E-03    3.57       5.8  T
   5    -54.4987756 -0.751277E-07  0.144E-03    3.57      11.4  T
   6    -54.4987756 -0.188620E-07  0.625E-04    3.57      26.3  T
   7    -54.4987756 -0.306877E-08  0.292E-04    3.57      56.3  T
     SCC iter.                  ...        0 min,  0.012 sec
     gradient                   ...        0 min,  0.004 sec
 * total energy  :   -53.6483636 Eh     change       -0.5526827E-03 Eh
   gradient norm :     0.0084740 Eh/α   predicted    -0.4034891E-03 ( -26.99%)
   displ. norm   :     0.4660508 α      lambda       -0.6671372E-03
   maximum displ.:     0.2964380 α      in ANC's #5, #8, #3, ...

........................................................................
.............................. CYCLE    8 ..............................
........................................................................

 iter      E             dE          RMSdq      gap      omega  full diag
   1    -54.4999552 -0.545000E+02  0.154E-01    3.57       0.0  T
   2    -54.4999577 -0.251756E-05  0.909E-02    3.57       1.0  T
   3    -54.4999510  0.667685E-05  0.154E-02    3.57       1.1  T
   4    -54.4999589 -0.788351E-05  0.301E-03    3.57       5.5  T
   5    -54.4999590 -0.993857E-07  0.162E-03    3.57      10.1  T
   6    -54.4999590 -0.284876E-07  0.728E-04    3.57      22.6  T
   7    -54.4999590 -0.518238E-08  0.269E-04    3.57      61.1  T
     SCC iter.                  ...        0 min,  0.013 sec
     gradient                   ...        0 min,  0.004 sec
 * total energy  :   -53.6488980 Eh     change       -0.5344262E-03 Eh
   gradient norm :     0.0068467 Eh/α   predicted    -0.4060284E-03 ( -24.03%)
   displ. norm   :     0.5467972 α      lambda       -0.6714331E-03
   maximum displ.:     0.3292580 α      in ANC's #5, #3, #2, ...

........................................................................
.............................. CYCLE    9 ..............................
........................................................................

 iter      E             dE          RMSdq      gap      omega  full diag
   1    -54.5001047 -0.545001E+02  0.177E-01    3.58       0.0  T
   2    -54.5001073 -0.256347E-05  0.104E-01    3.58       1.0  T
   3    -54.5001049  0.241322E-05  0.952E-03    3.58       1.7  T
   4    -54.5001085 -0.358390E-05  0.272E-03    3.58       6.0  T
   5    -54.5001085 -0.478972E-07  0.155E-03    3.58      10.6  T
   6    -54.5001085 -0.136154E-07  0.808E-04    3.58      20.4  T
   7    -54.5001085 -0.113569E-07  0.215E-04    3.58      76.5  T
     SCC iter.                  ...        0 min,  0.014 sec
     gradient                   ...        0 min,  0.004 sec
 * total energy  :   -53.6494531 Eh     change       -0.5550569E-03 Eh
   gradient norm :     0.0095491 Eh/α   predicted    -0.4360925E-03 ( -21.43%)
   displ. norm   :     0.5606492 α      lambda       -0.6948833E-03
   maximum displ.:     0.3167789 α      in ANC's #5, #2, #3, ...

........................................................................
.............................. CYCLE   10 ..............................
........................................................................

 iter      E             dE          RMSdq      gap      omega  full diag
   1    -54.5006946 -0.545007E+02  0.175E-01    3.59       0.0  T
   2    -54.5006970 -0.240281E-05  0.103E-01    3.59       1.0  T
   3    -54.5006886  0.837519E-05  0.166E-02    3.59       1.0  T
   4    -54.5006986 -0.993855E-05  0.296E-03    3.59       5.6  T
   5    -54.5006987 -0.799497E-07  0.169E-03    3.59       9.7  T
   6    -54.5006987 -0.271485E-07  0.655E-04    3.59      25.1  T
   7    -54.5006987 -0.435036E-08  0.208E-04    3.59      79.1  T
     SCC iter.                  ...        0 min,  0.014 sec
     gradient                   ...        0 min,  0.004 sec
 * total energy  :   -53.6500423 Eh     change       -0.5892266E-03 Eh
   gradient norm :     0.0119983 Eh/α   predicted    -0.4566530E-03 ( -22.50%)
   displ. norm   :     0.5686220 α      lambda       -0.7803940E-03
   maximum displ.:     0.2874803 α      in ANC's #2, #5, #3, ...

........................................................................
.............................. CYCLE   11 ..............................
........................................................................

 iter      E             dE          RMSdq      gap      omega  full diag
   1    -54.5019097 -0.545019E+02  0.171E-01    3.61       0.0  T
   2    -54.5019131 -0.332379E-05  0.100E-01    3.61       1.0  T
   3    -54.5018942  0.189006E-04  0.252E-02    3.61       1.0  T
   4    -54.5019155 -0.213259E-04  0.318E-03    3.61       5.2  T
   5    -54.5019156 -0.125078E-06  0.179E-03    3.61       9.2  T
   6    -54.5019157 -0.503210E-07  0.734E-04    3.61      22.4  T
   7    -54.5019157 -0.178082E-08  0.273E-04    3.61      60.1  T
     SCC iter.                  ...        0 min,  0.015 sec
     gradient                   ...        0 min,  0.005 sec
 * total energy  :   -53.6506967 Eh     change       -0.6544154E-03 Eh
   gradient norm :     0.0115992 Eh/α   predicted    -0.5163605E-03 ( -21.10%)
   displ. norm   :     0.5724123 α      lambda       -0.7893445E-03
   maximum displ.:     0.3220532 α      in ANC's #2, #3, #5, ...

........................................................................
.............................. CYCLE   12 ..............................
........................................................................

 iter      E             dE          RMSdq      gap      omega  full diag
   1    -54.5040336 -0.545040E+02  0.167E-01    3.63       0.0  T
   2    -54.5040373 -0.376156E-05  0.984E-02    3.63       1.0  T
   3    -54.5040256  0.117559E-04  0.196E-02    3.63       1.0  T
   4    -54.5040391 -0.135573E-04  0.323E-03    3.63       5.1  T
   5    -54.5040393 -0.127220E-06  0.191E-03    3.63       8.6  T
   6    -54.5040393 -0.727293E-07  0.690E-04    3.63      23.8  T
   7    -54.5040393 -0.658545E-09  0.260E-04    3.63      63.3  T
     SCC iter.                  ...        0 min,  0.014 sec
     gradient                   ...        0 min,  0.004 sec
 * total energy  :   -53.6513213 Eh     change       -0.6245825E-03 Eh
   gradient norm :     0.0092842 Eh/α   predicted    -0.5239902E-03 ( -16.11%)
   displ. norm   :     0.6361916 α      lambda       -0.6974813E-03
   maximum displ.:     0.3514232 α      in ANC's #2, #5, #3, ...

........................................................................
.............................. CYCLE   13 ..............................
........................................................................

 iter      E             dE          RMSdq      gap      omega  full diag
   1    -54.4970731 -0.544971E+02  0.189E-01    3.64       0.0  T
   2    -54.4970774 -0.433508E-05  0.111E-01    3.64       1.0  T
   3    -54.4970711  0.630946E-05  0.149E-02    3.64       1.1  T
   4    -54.4970791 -0.801162E-05  0.335E-03    3.64       4.9  T
   5    -54.4970792 -0.114601E-06  0.198E-03    3.64       8.3  T
   6    -54.4970793 -0.300748E-07  0.968E-04    3.64      17.0  T
   7    -54.4970793 -0.145991E-07  0.200E-04    3.64      82.0  T
     SCC iter.                  ...        0 min,  0.014 sec
     gradient                   ...        0 min,  0.004 sec
 * total energy  :   -53.6516548 Eh     change       -0.3334883E-03 Eh
   gradient norm :     0.0124477 Eh/α   predicted    -0.4898920E-03 (  46.90%)
   displ. norm   :     0.3913392 α      lambda       -0.8984889E-03
   maximum displ.:     0.2728638 α      in ANC's #2, #3, #1, ...

........................................................................
.............................. CYCLE   14 ..............................
........................................................................

 iter      E             dE          RMSdq      gap      omega  full diag
   1    -54.5077241 -0.545077E+02  0.110E-01    3.68       0.0  T
   2    -54.5077292 -0.509055E-05  0.648E-02    3.68       1.0  T
   3    -54.5077251  0.415860E-05  0.127E-02    3.68       1.3  T
   4    -54.5077305 -0.544181E-05  0.295E-03    3.68       5.6  T
   5    -54.5077306 -0.121910E-06  0.147E-03    3.68      11.2  T
   6    -54.5077306 -0.375154E-08  0.792E-04    3.68      20.8  T
   7    -54.5077307 -0.734820E-08  0.288E-04    3.68      57.1  T
     SCC iter.                  ...        0 min,  0.014 sec
     gradient                   ...        0 min,  0.004 sec
 * total energy  :   -53.6520623 Eh     change       -0.4074775E-03 Eh
   gradient norm :     0.0096507 Eh/α   predicted    -0.5180447E-03 (  27.13%)
   displ. norm   :     0.4321991 α      lambda       -0.4032931E-03
   maximum displ.:     0.2383016 α      in ANC's #2, #3, #5, ...

........................................................................
.............................. CYCLE   15 ..............................
........................................................................

 iter      E             dE          RMSdq      gap      omega  full diag
   1    -54.5013739 -0.545014E+02  0.131E-01    3.66       0.0  T
   2    -54.5013757 -0.181271E-05  0.769E-02    3.66       1.0  T
   3    -54.5013712  0.452045E-05  0.127E-02    3.66       1.3  T
   4    -54.5013765 -0.530647E-05  0.240E-03    3.66       6.8  T
   5    -54.5013766 -0.121283E-06  0.125E-03    3.66      13.1  T
   6    -54.5013766 -0.856312E-08  0.486E-04    3.66      33.8  T
   7    -54.5013766 -0.324993E-08  0.138E-04    3.66     119.2  T
     SCC iter.                  ...        0 min,  0.014 sec
     gradient                   ...        0 min,  0.004 sec
 * total energy  :   -53.6522813 Eh     change       -0.2189710E-03 Eh
   gradient norm :     0.0095058 Eh/α   predicted    -0.2393138E-03 (   9.29%)
   displ. norm   :     0.2535361 α      lambda       -0.3662258E-03
   maximum displ.:     0.1616343 α      in ANC's #2, #1, #3, ...

........................................................................
.............................. CYCLE   16 ..............................
........................................................................

 iter      E             dE          RMSdq      gap      omega  full diag
   1    -54.5049054 -0.545049E+02  0.670E-02    3.68       0.0  T
   2    -54.5049071 -0.170681E-05  0.396E-02    3.68       1.0  T
   3    -54.5049043  0.284482E-05  0.103E-02    3.68       1.6  T
   4    -54.5049075 -0.325877E-05  0.253E-03    3.68       6.5  T
   5    -54.5049077 -0.135274E-06  0.120E-03    3.68      13.7  T
   6    -54.5049077 -0.119895E-07  0.545E-04    3.68      30.1  T
   7    -54.5049077 -0.312492E-08  0.207E-04    3.68      79.5  T
     SCC iter.                  ...        0 min,  0.014 sec
     gradient                   ...        0 min,  0.004 sec
 * total energy  :   -53.6524938 Eh     change       -0.2125602E-03 Eh
   gradient norm :     0.0076852 Eh/α   predicted    -0.1948861E-03 (  -8.31%)
   displ. norm   :     0.3813894 α      lambda       -0.3216576E-03
   maximum displ.:     0.2394915 α      in ANC's #2, #1, #3, ...

........................................................................
.............................. CYCLE   17 ..............................
........................................................................

 iter      E             dE          RMSdq      gap      omega  full diag
   1    -54.5051844 -0.545052E+02  0.102E-01    3.70       0.0  T
   2    -54.5051858 -0.139603E-05  0.599E-02    3.70       1.0  T
   3    -54.5051827  0.318282E-05  0.936E-03    3.70       1.8  T
   4    -54.5051865 -0.387422E-05  0.171E-03    3.70       9.6  T
   5    -54.5051866 -0.170287E-07  0.102E-03    3.70      16.1  T
   6    -54.5051866 -0.977242E-08  0.533E-04    3.70      30.8  T
   7    -54.5051866 -0.374333E-08  0.189E-04    3.70      87.2  T
     SCC iter.                  ...        0 min,  0.012 sec
     gradient                   ...        0 min,  0.004 sec
 * total energy  :   -53.6527150 Eh     change       -0.2212049E-03 Eh
   gradient norm :     0.0049265 Eh/α   predicted    -0.1842245E-03 ( -16.72%)
   displ. norm   :     0.3386345 α      lambda       -0.2491770E-03
   maximum displ.:     0.2166318 α      in ANC's #2, #1, #3, ...

........................................................................
.............................. CYCLE   18 ..............................
........................................................................

 iter      E             dE          RMSdq      gap      omega  full diag
   1    -54.5096817 -0.545097E+02  0.847E-02    3.72       0.0  T
   2    -54.5096826 -0.886457E-06  0.498E-02    3.72       1.0  T
   3    -54.5096807  0.190066E-05  0.766E-03    3.72       2.1  T
   4    -54.5096829 -0.226921E-05  0.180E-03    3.72       9.1  T
   5    -54.5096830 -0.484945E-07  0.955E-04    3.72      17.2  T
   6    -54.5096830 -0.521823E-08  0.451E-04    3.72      36.5  T
     SCC iter.                  ...        0 min,  0.016 sec
     gradient                   ...        0 min,  0.006 sec
 * total energy  :   -53.6528697 Eh     change       -0.1546271E-03 Eh
   gradient norm :     0.0057498 Eh/α   predicted    -0.1388796E-03 ( -10.18%)
   displ. norm   :     0.4515069 α      lambda       -0.1858367E-03
   maximum displ.:     0.3012764 α      in ANC's #2, #1, #3, ...

........................................................................
.............................. CYCLE   19 ..............................
........................................................................

 iter      E             dE          RMSdq      gap      omega  full diag
   1    -54.5078501 -0.545079E+02  0.117E-01    3.73       0.0  T
   2    -54.5078511 -0.976551E-06  0.688E-02    3.73       1.0  T
   3    -54.5078490  0.208861E-05  0.819E-03    3.73       2.0  T
   4    -54.5078517 -0.267323E-05  0.147E-03    3.73      11.2  T
   5    -54.5078517  0.486556E-08  0.102E-03    3.73      16.1  T
   6    -54.5078517 -0.179200E-07  0.332E-04    3.73      49.5  T
   7    -54.5078517 -0.963659E-09  0.114E-04    3.73     144.6  T
     SCC iter.                  ...        0 min,  0.021 sec
     gradient                   ...        0 min,  0.005 sec
 * total energy  :   -53.6529805 Eh     change       -0.1108198E-03 Eh
   gradient norm :     0.0068842 Eh/α   predicted    -0.1118619E-03 (   0.94%)
   displ. norm   :     0.2765690 α      lambda       -0.1589192E-03
   maximum displ.:     0.1801174 α      in ANC's #2, #1, #3, ...

........................................................................
.............................. CYCLE   20 ..............................
........................................................................

 iter      E             dE          RMSdq      gap      omega  full diag
   1    -54.5084973 -0.545085E+02  0.681E-02    3.75       0.0  T
   2    -54.5084979 -0.562852E-06  0.400E-02    3.75       1.0  T
   3    -54.5084977  0.195018E-06  0.317E-03    3.75       5.2  T
   4    -54.5084980 -0.339311E-06  0.109E-03    3.75      15.1  T
   5    -54.5084981 -0.166037E-07  0.507E-04    3.75      32.4  T
   6    -54.5084981 -0.192749E-08  0.292E-04    3.75      56.3  T
     SCC iter.                  ...        0 min,  0.020 sec
     gradient                   ...        0 min,  0.005 sec
 * total energy  :   -53.6530996 Eh     change       -0.1191743E-03 Eh
   gradient norm :     0.0041794 Eh/α   predicted    -0.8553838E-04 ( -28.22%)
   displ. norm   :     0.3307808 α      lambda       -0.1624102E-03
   maximum displ.:     0.2032985 α      in ANC's #1, #2, #3, ...
 * RMSD in coord.:     1.0963227 α      energy gain  -0.3155278E-01 Eh

generating ANC from exact Hessian ...
Using Lindh-Hessian (1995)
 Shifting diagonal of input Hessian by   9.409703333703057E-003
 Lowest  eigenvalues of input Hessian
    0.000000    0.000000    0.000000    0.000000    0.000000    0.000000
    0.010000    0.010318    0.010559    0.011049    0.011383    0.012137
    0.013029    0.013565    0.014610    0.015468    0.015871    0.017359
 Highest eigenvalues
    1.903632    1.925363    2.010069    2.015929    2.025517    2.061723
 

........................................................................
.............................. CYCLE   21 ..............................
........................................................................

 iter      E             dE          RMSdq      gap      omega  full diag
   1    -54.5117713 -0.545118E+02  0.868E-02    3.77       0.0  T
   2    -54.5117724 -0.106263E-05  0.510E-02    3.77       1.0  T
   3    -54.5117718  0.599758E-06  0.520E-03    3.77       3.2  T
   4    -54.5117726 -0.820131E-06  0.171E-03    3.77       9.6  T
   5    -54.5117726 -0.492934E-07  0.852E-04    3.77      19.3  T
   6    -54.5117726 -0.113464E-07  0.371E-04    3.77      44.3  T
     SCC iter.                  ...        0 min,  0.014 sec
     gradient                   ...        0 min,  0.004 sec
 * total energy  :   -53.6531921 Eh     change       -0.9248228E-04 Eh
   gradient norm :     0.0054655 Eh/α   predicted     0.0000000E+00 (-100.00%)
   displ. norm   :     0.0659798 α      lambda       -0.1109957E-03
   maximum displ.:     0.0337937 α      in ANC's #9, #11, #1, ...

........................................................................
.............................. CYCLE   22 ..............................
........................................................................

 iter      E             dE          RMSdq      gap      omega  full diag
   1    -54.5096598 -0.545097E+02  0.254E-02    3.76       0.0  T
   2    -54.5096600 -0.198478E-06  0.153E-02    3.76       1.1  T
   3    -54.5096592  0.850316E-06  0.546E-03    3.76       3.0  T
   4    -54.5096601 -0.955593E-06  0.925E-04    3.76      17.8  T
   5    -54.5096602 -0.165747E-07  0.411E-04    3.76      40.0  T
     SCC iter.                  ...        0 min,  0.009 sec
     gradient                   ...        0 min,  0.004 sec
 * total energy  :   -53.6532773 Eh     change       -0.8514392E-04 Eh
   gradient norm :     0.0017528 Eh/α   predicted    -0.5617051E-04 ( -34.03%)
   displ. norm   :     0.2320957 α      lambda       -0.1300720E-03
   maximum displ.:     0.1214000 α      in ANC's #9, #11, #1, ...

........................................................................
.............................. CYCLE   23 ..............................
........................................................................

 iter      E             dE          RMSdq      gap      omega  full diag
   1    -54.5061931 -0.545062E+02  0.712E-02    3.76       0.0  T
   2    -54.5061942 -0.112729E-05  0.425E-02    3.76       1.0  T
   3    -54.5061910  0.319946E-05  0.106E-02    3.76       1.5  T
   4    -54.5061947 -0.367497E-05  0.224E-03    3.76       7.3  T
   5    -54.5061948 -0.691276E-07  0.111E-03    3.76      14.8  T
   6    -54.5061948 -0.150854E-07  0.427E-04    3.76      38.5  T
   7    -54.5061948 -0.107254E-08  0.158E-04    3.76     104.0  T
     SCC iter.                  ...        0 min,  0.012 sec
     gradient                   ...        0 min,  0.004 sec
 * total energy  :   -53.6533720 Eh     change       -0.9474524E-04 Eh
   gradient norm :     0.0060458 Eh/α   predicted    -0.6659974E-04 ( -29.71%)
   displ. norm   :     0.0660754 α      lambda       -0.5693490E-04
   maximum displ.:     0.0295935 α      in ANC's #1, #3, #9, ...

........................................................................
.............................. CYCLE   24 ..............................
........................................................................

 iter      E             dE          RMSdq      gap      omega  full diag
   1    -54.5073163 -0.545073E+02  0.211E-02    3.76       0.0  T
   2    -54.5073164 -0.488329E-07  0.125E-02    3.76       1.3  T
   3    -54.5073163  0.349612E-07  0.122E-03    3.76      13.5  T
   4    -54.5073164 -0.512465E-07  0.399E-04    3.76      41.2  T
   5    -54.5073164 -0.144679E-08  0.201E-04    3.76      81.6  T
     SCC iter.                  ...        0 min,  0.010 sec
     gradient                   ...        0 min,  0.004 sec
 * total energy  :   -53.6534226 Eh     change       -0.5059978E-04 Eh
   gradient norm :     0.0045214 Eh/α   predicted    -0.2859566E-04 ( -43.49%)
   displ. norm   :     0.2526738 α      lambda       -0.1693881E-03
   maximum displ.:     0.1155980 α      in ANC's #1, #3, #9, ...

........................................................................
.............................. CYCLE   25 ..............................
........................................................................

 iter      E             dE          RMSdq      gap      omega  full diag
   1    -54.5100190 -0.545100E+02  0.803E-02    3.78       0.0  T
   2    -54.5100195 -0.510795E-06  0.474E-02    3.78       1.0  T
   3    -54.5100191  0.421700E-06  0.411E-03    3.78       4.0  T
   4    -54.5100197 -0.621486E-06  0.133E-03    3.78      12.4  T
   5    -54.5100197 -0.133332E-07  0.772E-04    3.78      21.3  T
   6    -54.5100198 -0.647228E-08  0.288E-04    3.78      57.2  T
     SCC iter.                  ...        0 min,  0.012 sec
     gradient                   ...        0 min,  0.004 sec
 * total energy  :   -53.6535347 Eh     change       -0.1121082E-03 Eh
   gradient norm :     0.0017495 Eh/α   predicted    -0.9015249E-04 ( -19.58%)
   displ. norm   :     0.3259852 α      lambda       -0.6985394E-04
   maximum displ.:     0.1535054 α      in ANC's #1, #3, #2, ...

........................................................................
.............................. CYCLE   26 ..............................
........................................................................

 iter      E             dE          RMSdq      gap      omega  full diag
   1    -54.5098564 -0.545099E+02  0.105E-01    3.79       0.0  T
   2    -54.5098573 -0.809667E-06  0.620E-02    3.79       1.0  T
   3    -54.5098558  0.141223E-05  0.743E-03    3.79       2.2  T
   4    -54.5098576 -0.177265E-05  0.184E-03    3.79       8.9  T
   5    -54.5098576 -0.289659E-07  0.939E-04    3.79      17.5  T
   6    -54.5098577 -0.932464E-08  0.380E-04    3.79      43.3  T
     SCC iter.                  ...        0 min,  0.012 sec
     gradient                   ...        0 min,  0.004 sec
 * total energy  :   -53.6535944 Eh     change       -0.5969640E-04 Eh
   gradient norm :     0.0035366 Eh/α   predicted    -0.3657727E-04 ( -38.73%)
   displ. norm   :     0.1394422 α      lambda       -0.6028100E-04
   maximum displ.:     0.0751743 α      in ANC's #3, #1, #2, ...

........................................................................
.............................. CYCLE   27 ..............................
........................................................................

 iter      E             dE          RMSdq      gap      omega  full diag
   1    -54.5104966 -0.545105E+02  0.505E-02    3.79       0.0  T
   2    -54.5104968 -0.248098E-06  0.296E-02    3.79       1.0  T
   3    -54.5104968  0.400512E-07  0.187E-03    3.79       8.8  T
   4    -54.5104969 -0.998496E-07  0.711E-04    3.79      23.1  T
   5    -54.5104969 -0.795065E-08  0.337E-04    3.79      48.7  T
     SCC iter.                  ...        0 min,  0.010 sec
     gradient                   ...        0 min,  0.004 sec
 * total energy  :   -53.6536380 Eh     change       -0.4356560E-04 Eh
   gradient norm :     0.0024234 Eh/α   predicted    -0.3072698E-04 ( -29.47%)
   displ. norm   :     0.2074059 α      lambda       -0.5203393E-04
   maximum displ.:     0.1114126 α      in ANC's #3, #1, #2, ...

........................................................................
.............................. CYCLE   28 ..............................
........................................................................

 iter      E             dE          RMSdq      gap      omega  full diag
   1    -54.5098065 -0.545098E+02  0.745E-02    3.79       0.0  T
   2    -54.5098067 -0.291739E-06  0.438E-02    3.79       1.0  T
   3    -54.5098062  0.531649E-06  0.422E-03    3.79       3.9  T
   4    -54.5098069 -0.687401E-06  0.103E-03    3.79      15.9  T
   5    -54.5098069 -0.640186E-08  0.617E-04    3.79      26.7  T
   6    -54.5098069 -0.542937E-08  0.161E-04    3.79     102.2  T
     SCC iter.                  ...        0 min,  0.012 sec
     gradient                   ...        0 min,  0.004 sec
 * total energy  :   -53.6536768 Eh     change       -0.3882544E-04 Eh
   gradient norm :     0.0014132 Eh/α   predicted    -0.2714441E-04 ( -30.09%)
   displ. norm   :     0.2492315 α      lambda       -0.3563210E-04
   maximum displ.:     0.1417610 α      in ANC's #3, #1, #5, ...

........................................................................
.............................. CYCLE   29 ..............................
........................................................................

 iter      E             dE          RMSdq      gap      omega  full diag
   1    -54.5095240 -0.545095E+02  0.945E-02    3.79       0.0  T
   2    -54.5095245 -0.500216E-06  0.555E-02    3.79       1.0  T
   3    -54.5095222  0.227798E-05  0.838E-03    3.79       2.0  T
   4    -54.5095248 -0.262650E-05  0.133E-03    3.79      12.4  T
   5    -54.5095248 -0.179997E-07  0.708E-04    3.79      23.2  T
   6    -54.5095248 -0.398594E-08  0.255E-04    3.79      64.6  T
     SCC iter.                  ...        0 min,  0.012 sec
     gradient                   ...        0 min,  0.004 sec
 * total energy  :   -53.6537128 Eh     change       -0.3596917E-04 Eh
   gradient norm :     0.0028976 Eh/α   predicted    -0.1831187E-04 ( -49.09%)
   displ. norm   :     0.1176634 α      lambda       -0.2583226E-04
   maximum displ.:     0.0684721 α      in ANC's #3, #1, #5, ...

........................................................................
.............................. CYCLE   30 ..............................
........................................................................

 iter      E             dE          RMSdq      gap      omega  full diag
   1    -54.5095433 -0.545095E+02  0.455E-02    3.79       0.0  T
   2    -54.5095434 -0.103357E-06  0.267E-02    3.79       1.0  T
   3    -54.5095432  0.209966E-06  0.269E-03    3.79       6.1  T
   4    -54.5095435 -0.265175E-06  0.609E-04    3.79      27.0  T
   5    -54.5095435 -0.279021E-08  0.321E-04    3.79      51.1  T
     SCC iter.                  ...        0 min,  0.010 sec
     gradient                   ...        0 min,  0.004 sec
 * total energy  :   -53.6537351 Eh     change       -0.2229434E-04 Eh
   gradient norm :     0.0022513 Eh/α   predicted    -0.1309843E-04 ( -41.25%)
   displ. norm   :     0.2162641 α      lambda       -0.5433751E-04
   maximum displ.:     0.1288246 α      in ANC's #3, #5, #1, ...

........................................................................
.............................. CYCLE   31 ..............................
........................................................................

 iter      E             dE          RMSdq      gap      omega  full diag
   1    -54.5105696 -0.545106E+02  0.853E-02    3.80       0.0  T
   2    -54.5105699 -0.351423E-06  0.501E-02    3.80       1.0  T
   3    -54.5105693  0.627681E-06  0.472E-03    3.80       3.5  T
   4    -54.5105701 -0.800641E-06  0.110E-03    3.80      14.9  T
   5    -54.5105701 -0.136227E-07  0.573E-04    3.80      28.7  T
   6    -54.5105701 -0.256145E-08  0.199E-04    3.80      82.8  T
     SCC iter.                  ...        0 min,  0.012 sec
     gradient                   ...        0 min,  0.004 sec
 * total energy  :   -53.6537780 Eh     change       -0.4296101E-04 Eh
   gradient norm :     0.0014251 Eh/α   predicted    -0.2844326E-04 ( -33.79%)
   displ. norm   :     0.4255599 α      lambda       -0.4921984E-04
   maximum displ.:     0.2563682 α      in ANC's #3, #5, #1, ...

........................................................................
.............................. CYCLE   32 ..............................
........................................................................

 iter      E             dE          RMSdq      gap      omega  full diag
   1    -54.5094556 -0.545095E+02  0.167E-01    3.82       0.0  T
   2    -54.5094570 -0.137191E-05  0.979E-02    3.82       1.0  T
   3    -54.5094550  0.199809E-05  0.877E-03    3.82       1.9  T
   4    -54.5094576 -0.263798E-05  0.215E-03    3.82       7.7  T
   5    -54.5094576 -0.489293E-07  0.112E-03    3.82      14.7  T
   6    -54.5094577 -0.105588E-07  0.413E-04    3.82      39.8  T
   7    -54.5094577 -0.202077E-08  0.118E-04    3.82     139.5  T
     SCC iter.                  ...        0 min,  0.013 sec
     gradient                   ...        0 min,  0.003 sec
 * total energy  :   -53.6538190 Eh     change       -0.4095347E-04 Eh
   gradient norm :     0.0020639 Eh/α   predicted    -0.2659157E-04 ( -35.07%)
   displ. norm   :     0.0690254 α      lambda       -0.1929796E-04
   maximum displ.:     0.0383680 α      in ANC's #3, #9, #5, ...

........................................................................
.............................. CYCLE   33 ..............................
........................................................................

 iter      E             dE          RMSdq      gap      omega  full diag
   1    -54.5107502 -0.545108E+02  0.243E-02    3.82       0.0  T
   2    -54.5107503 -0.564114E-07  0.143E-02    3.82       1.2  T
   3    -54.5107502  0.840763E-07  0.178E-03    3.82       9.2  T
   4    -54.5107503 -0.105852E-06  0.406E-04    3.82      40.5  T
   5    -54.5107503 -0.215521E-08  0.234E-04    3.82      70.2  T
     SCC iter.                  ...        0 min,  0.009 sec
     gradient                   ...        0 min,  0.004 sec
 * total energy  :   -53.6538314 Eh     change       -0.1239567E-04 Eh
   gradient norm :     0.0009325 Eh/α   predicted    -0.9699485E-05 ( -21.75%)
   displ. norm   :     0.1424386 α      lambda       -0.1050417E-04
   maximum displ.:     0.0900462 α      in ANC's #3, #1, #5, ...

........................................................................
.............................. CYCLE   34 ..............................
........................................................................

 iter      E             dE          RMSdq      gap      omega  full diag
   1    -54.5108290 -0.545108E+02  0.536E-02    3.83       0.0  T
   2    -54.5108291 -0.169815E-06  0.314E-02    3.83       1.0  T
   3    -54.5108288  0.332778E-06  0.346E-03    3.83       4.8  T
   4    -54.5108292 -0.412434E-06  0.736E-04    3.83      22.3  T
   5    -54.5108292 -0.491382E-08  0.423E-04    3.83      38.9  T
     SCC iter.                  ...        0 min,  0.009 sec
     gradient                   ...        0 min,  0.004 sec
 * total energy  :   -53.6538416 Eh     change       -0.1019932E-04 Eh
   gradient norm :     0.0006610 Eh/α   predicted    -0.5302034E-05 ( -48.02%)
   displ. norm   :     0.0799689 α      lambda       -0.6635469E-05
   maximum displ.:     0.0471226 α      in ANC's #3, #2, #4, ...

........................................................................
.............................. CYCLE   35 ..............................
........................................................................

 iter      E             dE          RMSdq      gap      omega  full diag
   1    -54.5105547 -0.545106E+02  0.268E-02    3.83       0.0  T
   2    -54.5105547 -0.591997E-07  0.158E-02    3.83       1.0  T
   3    -54.5105545  0.222851E-06  0.266E-03    3.83       6.2  T
   4    -54.5105548 -0.257560E-06  0.495E-04    3.83      33.2  T
   5    -54.5105548 -0.219960E-08  0.284E-04    3.83      57.9  T
     SCC iter.                  ...        0 min,  0.009 sec
     gradient                   ...        0 min,  0.006 sec
 * total energy  :   -53.6538485 Eh     change       -0.6916576E-05 Eh
   gradient norm :     0.0006472 Eh/α   predicted    -0.3329475E-05 ( -51.86%)
   displ. norm   :     0.0592954 α      lambda       -0.4823052E-05
   maximum displ.:     0.0290162 α      in ANC's #4, #3, #5, ...

........................................................................
.............................. CYCLE   36 ..............................
........................................................................

 iter      E             dE          RMSdq      gap      omega  full diag
   1    -54.5105742 -0.545106E+02  0.157E-02    3.83       0.0  T
   2    -54.5105742 -0.383427E-07  0.940E-03    3.83       1.7  T
   3    -54.5105741  0.156574E-06  0.222E-03    3.83       7.4  T
   4    -54.5105743 -0.178226E-06  0.411E-04    3.83      40.0  T
   5    -54.5105743 -0.164373E-08  0.230E-04    3.83      71.5  T
     SCC iter.                  ...        0 min,  0.009 sec
     gradient                   ...        0 min,  0.004 sec
 * total energy  :   -53.6538526 Eh     change       -0.4140145E-05 Eh
   gradient norm :     0.0007706 Eh/α   predicted    -0.2415807E-05 ( -41.65%)
   displ. norm   :     0.0389201 α      lambda       -0.2896590E-05
   maximum displ.:     0.0216318 α      in ANC's #4, #3, #5, ...

   *** GEOMETRY OPTIMIZATION CONVERGED AFTER 36 ITERATIONS ***

------------------------------------------------------------------------
 total energy gain   :        -0.0323058 Eh      -20.2722 kcal/mol
 total RMSD          :         1.1887452 a0        0.6291 Å
 total power (kW/mol):        -2.3560776 (step) -116.1173 (real)
------------------------------------------------------------------------

 ANCopt (total)                0 d,  0 h,  0 min,  0.730 sec
 optimizer setup                ...        0 min,  0.000 sec (  0.014%)
 model hessian                  ...        0 min,  0.050 sec (  6.779%)
 ANC generation                 ...        0 min,  0.002 sec (  0.263%)
 coordinate transformation      ...        0 min,  0.000 sec (  0.060%)
 single point calculation       ...        0 min,  0.663 sec ( 90.695%)
 optimization log               ...        0 min,  0.009 sec (  1.205%)
 hessian update                 ...        0 min,  0.003 sec (  0.392%)
 rational function              ...        0 min,  0.003 sec (  0.401%)

================
 final structure:
================
37
 xtb: 6.7.1 (edcfbbe)
C            0.74016860575042       -1.25418622086277        2.31268085669177
O           -0.06537138698197       -0.92535197706787        1.20169056702671
C            0.38744113557672        0.15910474228888        0.42546214429272
C           -0.64747457823488        0.34810814810089       -0.68254250579813
C           -2.04604215507144        0.04569588160702       -0.34190662303645
C           -2.86446368122470       -0.59484245813924       -1.26999190616040
C           -4.18650863548227       -0.86688977339850       -0.97303727114898
C           -4.71342004225068       -0.50121599935057        0.25427076264173
C           -3.90641415875196        0.13121722716153        1.18477915910569
C           -2.58205392673808        0.40000659018987        0.89364584413145
C           -0.30385470032645        0.80948051627573       -1.88059756232019
O            0.44485052329417        1.29702467045090        1.28849642706997
C            0.34526346646029        2.56411346355433        0.68858438212954
C            1.76099407080221       -0.16825671772434       -0.15408684161728
C            1.87173698691013       -1.24684021736263       -1.02549909298810
C            3.10464114465934       -1.60745750373159       -1.53529761530732
C            4.24010233319897       -0.89732716483809       -1.17798430368361
C            4.13717503829039        0.16293992183846       -0.29551978538313
C            2.90344072824204        0.52193766983914        0.22211679409074
H            0.85147178903354       -0.39946348203564        2.98356865078716
H            0.21483273340919       -2.05908124204172        2.82268678427387
H            1.73169405857587       -1.60016400483082        1.99995351326566
H           -2.45261429006572       -0.89729346708379       -2.22173558360964
H           -4.80740157304941       -1.36985060605567       -1.70037885520452
H           -5.74693716494333       -0.71382826299961        0.48604558435954
H           -4.31190476411731        0.41522621338723        2.14520044912249
H           -1.95861613333737        0.88767980546045        1.62623192844582
H           -1.04618945695048        0.98764862581926       -2.63992783727275
H            0.71583735065622        1.03325809816715       -2.14426797010938
H            0.56536325091637        3.27711041154551        1.48251555428778
H            1.06662609224011        2.69055362917270       -0.12503878045996
H           -0.66120343820812        2.75331736448310        0.29955305321610
H            0.98403640775745       -1.80168324024472       -1.28973093898861
H            3.18177213526450       -2.44726183537844       -2.21004523053516
H            5.20289825393797       -1.17711456551431       -1.57985164022858
H            5.01982109840720        0.71139357970006       -0.00129215838378
H            2.83030288235101        1.33229117961163        0.93125304728639
 
 Bond Distances (Angstroems)
 ---------------------------
C1-O2=1.4111         C1-H20=1.0923        C1-H21=1.0881        C1-H22=1.0957        O2-C1=1.4111         O2-C3=1.4084         
C3-O2=1.4084         C3-C4=1.5279         C3-O12=1.4293        C3-C14=1.5263        C4-C3=1.5279         C4-C5=1.4709         
C4-C11=1.3290        C5-C4=1.4709         C5-C6=1.3934         C5-C10=1.3926        C6-C5=1.3934         C6-C7=1.3820         
C6-H23=1.0802        C7-C6=1.3820         C7-C8=1.3848         C7-H24=1.0805        C8-C7=1.3848         C8-C9=1.3846         
C8-H25=1.0803        C9-C8=1.3846         C9-C10=1.3824        C9-H26=1.0805        C10-C5=1.3926        C10-C9=1.3824        
C10-H27=1.0785       C11-C4=1.3290        C11-H28=1.0767       C11-H29=1.0767       O12-C3=1.4293        O12-C13=1.4055       
C13-O12=1.4055       C13-H30=1.0896       C13-H31=1.0947       C13-H32=1.0955       C14-C3=1.5263        C14-C15=1.3910       
C14-C19=1.3868       C15-C14=1.3910       C15-C16=1.3820       C15-H33=1.0797       C16-C15=1.3820       C16-C17=1.3861       
C16-H34=1.0800       C17-C16=1.3861       C17-C18=1.3833       C17-H35=1.0802       C18-C17=1.3833       C18-C19=1.3853       
C18-H36=1.0800       C19-C14=1.3868       C19-C18=1.3853       C19-H37=1.0793       H20-C1=1.0923        H21-C1=1.0881        
H22-C1=1.0957        H23-C6=1.0802        H24-C7=1.0805        H25-C8=1.0803        H26-C9=1.0805        H27-C10=1.0785       
H28-C11=1.0767       H29-C11=1.0767       H30-C13=1.0896       H31-C13=1.0947       H32-C13=1.0955       H33-C15=1.0797       
H34-C16=1.0800       H35-C17=1.0802       H36-C18=1.0800       H37-C19=1.0793       
 C  H  Rav=1.0838 sigma=0.0066  Rmin=1.0767  Rmax=1.0957    18
 C  C  Rav=1.4055 sigma=0.0527  Rmin=1.3290  Rmax=1.5279    16
 O  C  Rav=1.4136 sigma=0.0093  Rmin=1.4055  Rmax=1.4293     4
 
 selected bond angles (degree)
 --------------------
H20-C1-O2=111.06               H21-C1-O2=105.41               H21-C1-H20=109.89              H22-C1-O2=111.43               
H22-C1-H20=109.28              H22-C1-H21=109.70              C3-O2-C1=115.46                C4-C3-O2=106.09                
O12-C3-O2=107.05               O12-C3-C4=111.51               C14-C3-O2=109.48               C14-C3-C4=111.14               
C14-C3-O12=111.34              C5-C4-C3=116.79                C11-C4-C3=121.44               C11-C4-C5=121.73               
C6-C5-C4=119.92                C10-C5-C4=121.27               C10-C5-C6=118.81               C7-C6-C5=120.61                
H23-C6-C5=119.45               H23-C6-C7=119.93               C8-C7-C6=120.16                H24-C7-C6=119.78               
H24-C7-C8=120.06               C9-C8-C7=119.63                H25-C8-C7=120.15               H25-C8-C9=120.22               
C10-C9-C8=120.38               H26-C9-C8=119.91               H26-C9-C10=119.71              C9-C10-C5=120.41               
H27-C10-C5=119.68              H27-C10-C9=119.91              
 
 selected dihedral angles (degree)
 ---------------------------------
C3-O2-C1-H20= 57.62           C3-O2-C1-H21=176.59           C3-O2-C1-H22=295.53           C4-C3-O2-C1=181.37            
O12-C3-O2-C1=300.55           C14-C3-O2-C1= 61.36           C5-C4-C3-O2= 33.34            C5-C4-C3-O12=277.14           
C5-C4-C3-C14=152.27           C11-C4-C3-O2=211.00           C11-C4-C3-O12= 94.79          C11-C4-C3-C14=329.92          
C6-C5-C4-C3=219.24            C6-C5-C4-C11= 41.59           C10-C5-C4-C3= 39.92           C10-C5-C4-C11=222.27          
C7-C6-C5-C4=181.03            C7-C6-C5-C10=  0.37           H23-C6-C5-C4=  2.24           H23-C6-C5-C10=181.58          
C8-C7-C6-C5=  0.14            C8-C7-C6-H23=178.92           H24-C7-C6-C5=180.39           H24-C7-C6-H23=359.17          
C9-C8-C7-C6=359.62            C9-C8-C7-H24=179.37           H25-C8-C7-C6=179.99           H25-C8-C7-H24=359.74          
C10-C9-C8-C7=  0.10           C10-C9-C8-H25=179.74          H26-C9-C8-C7=180.23           H26-C9-C8-H25=359.86          
C9-C10-C5-C4=178.69           C9-C10-C5-C6=359.36           H27-C10-C5-C4=358.73          H27-C10-C5-C6=179.40          
C5-C10-C9-C8=  0.41           C5-C10-C9-H26=180.29          H27-C10-C9-C8=180.37          H27-C10-C9-H26=  0.24         
           -------------------------------------------------
          |                Final Singlepoint                |
           -------------------------------------------------

          ...................................................
          :                      SETUP                      :
          :.................................................:
          :  # basis functions                  94          :
          :  # atomic orbitals                  94          :
          :  # shells                           56          :
          :  # electrons                        98          :
          :  max. iterations                   250          :
          :  Hamiltonian                  GFN2-xTB          :
          :  restarted?                      false          :
          :  GBSA solvation                  false          :
          :  PC potential                    false          :
          :  electronic temp.          300.0000000     K    :
          :  accuracy                    1.0000000          :
          :  -> integral cutoff          0.2500000E+02      :
          :  -> integral neglect         0.1000000E-07      :
          :  -> SCF convergence          0.1000000E-05 Eh   :
          :  -> wf. convergence          0.1000000E-03 e    :
          :  Broyden damping             0.4000000          :
          :  net charge                          0          :
          :  unpaired electrons                  0          :
          ...................................................

 iter      E             dE          RMSdq      gap      omega  full diag
   1    -54.5105743 -0.545106E+02  0.817E-05    3.83       0.0  T
   2    -54.5105743 -0.402309E-10  0.541E-05    3.83     303.6  T
   3    -54.5105743 -0.283933E-10  0.335E-05    3.83     490.1  T

   *** convergence criteria satisfied after 3 iterations ***

         #    Occupation            Energy/Eh            Energy/eV
      -------------------------------------------------------------
         1        2.0000           -0.7056038             -19.2005
       ...           ...                  ...                  ...
        43        2.0000           -0.4145408             -11.2802
        44        2.0000           -0.4068212             -11.0702
        45        2.0000           -0.4056166             -11.0374
        46        2.0000           -0.4032084             -10.9719
        47        2.0000           -0.3977446             -10.8232
        48        2.0000           -0.3902190             -10.6184
        49        2.0000           -0.3844889             -10.4625 (HOMO)
        50                         -0.2435712              -6.6279 (LUMO)
        51                         -0.2283176              -6.2128
        52                         -0.2251973              -6.1279
        53                         -0.2156882              -5.8692
        54                         -0.1874656              -5.1012
       ...                                ...                  ...
        94                          0.6789225              18.4744
      -------------------------------------------------------------
                  HL-Gap            0.1409178 Eh            3.8346 eV
             Fermi-level           -0.3140301 Eh           -8.5452 eV

 SCC (total)                   0 d,  0 h,  0 min,  0.014 sec
 SCC setup                      ...        0 min,  0.000 sec (  0.619%)
 Dispersion                     ...        0 min,  0.000 sec (  1.322%)
 classical contributions        ...        0 min,  0.000 sec (  0.296%)
 integral evaluation            ...        0 min,  0.002 sec ( 16.052%)
 iterations                     ...        0 min,  0.005 sec ( 40.305%)
 molecular gradient             ...        0 min,  0.005 sec ( 40.224%)
 printout                       ...        0 min,  0.000 sec (  1.003%)

         :::::::::::::::::::::::::::::::::::::::::::::::::::::
         ::                     SUMMARY                     ::
         :::::::::::::::::::::::::::::::::::::::::::::::::::::
         :: total energy             -53.653852641837 Eh    ::
         :: gradient norm              0.000770972624 Eh/a0 ::
         :: HOMO-LUMO gap              3.834567209518 eV    ::
         ::.................................................::
         :: SCC energy               -54.510001176340 Eh    ::
         :: -> isotropic ES            0.041157325091 Eh    ::
         :: -> anisotropic ES          0.003253112480 Eh    ::
         :: -> anisotropic XC          0.024941769909 Eh    ::
         :: -> dispersion             -0.041663582854 Eh    ::
         :: repulsion energy           0.856148534502 Eh    ::
         :: add. restraining           0.000000000000 Eh    ::
         :: total charge              -0.000000000000 e     ::
         :::::::::::::::::::::::::::::::::::::::::::::::::::::

           -------------------------------------------------
          |                Property Printout                |
           -------------------------------------------------

    * Orbital Energies and Occupations

         #    Occupation            Energy/Eh            Energy/eV
      -------------------------------------------------------------
         1        2.0000           -0.7056038             -19.2005
       ...           ...                  ...                  ...
        37        2.0000           -0.4531096             -12.3297
        38        2.0000           -0.4440972             -12.0845
        39        2.0000           -0.4372003             -11.8968
        40        2.0000           -0.4292018             -11.6792
        41        2.0000           -0.4238822             -11.5344
        42        2.0000           -0.4209073             -11.4535
        43        2.0000           -0.4145408             -11.2802
        44        2.0000           -0.4068212             -11.0702
        45        2.0000           -0.4056166             -11.0374
        46        2.0000           -0.4032084             -10.9719
        47        2.0000           -0.3977446             -10.8232
        48        2.0000           -0.3902190             -10.6184
        49        2.0000           -0.3844889             -10.4625 (HOMO)
        50                         -0.2435712              -6.6279 (LUMO)
        51                         -0.2283176              -6.2128
        52                         -0.2251973              -6.1279
        53                         -0.2156882              -5.8692
        54                         -0.1874656              -5.1012
        55                         -0.0988895              -2.6909
        56                         -0.0818616              -2.2276
        57                          0.0204425               0.5563
        58                          0.0382104               1.0398
        59                          0.0567188               1.5434
        60                          0.1031335               2.8064
       ...                                ...                  ...
        94                          0.6789225              18.4744
      -------------------------------------------------------------
                  HL-Gap            0.1409178 Eh            3.8346 eV
             Fermi-level           -0.3140301 Eh           -8.5452 eV

     #   Z          covCN         q      C6AA      α(0)
     1   6 C        3.643     0.043    20.188     6.459
     2   8 O        1.702    -0.314    19.237     5.922
     3   6 C        3.692     0.264    16.723     5.851
     4   6 C        2.948    -0.003    28.090     8.693
     5   6 C        2.979     0.021    27.543     8.609
     6   6 C        2.926    -0.033    28.821     8.804
     7   6 C        2.919    -0.030    28.744     8.792
     8   6 C        2.920    -0.030    28.757     8.794
     9   6 C        2.919    -0.029    28.731     8.790
    10   6 C        2.924    -0.025    28.634     8.775
    11   6 C        2.846    -0.095    30.370     9.032
    12   8 O        1.699    -0.336    19.632     5.982
    13   6 C        3.636     0.048    20.134     6.456
    14   6 C        2.971    -0.015    28.380     8.738
    15   6 C        2.924    -0.030    28.747     8.793
    16   6 C        2.920    -0.029    28.727     8.789
    17   6 C        2.920    -0.030    28.760     8.794
    18   6 C        2.920    -0.031    28.775     8.797
    19   6 C        2.922    -0.032    28.797     8.800
    20   1 H        0.924     0.047     2.354     2.399
    21   1 H        0.925     0.058     2.220     2.330
    22   1 H        0.924     0.028     2.616     2.529
    23   1 H        0.926     0.031     2.568     2.506
    24   1 H        0.926     0.030     2.589     2.516
    25   1 H        0.926     0.030     2.593     2.518
    26   1 H        0.926     0.031     2.574     2.509
    27   1 H        0.926     0.050     2.319     2.382
    28   1 H        0.926     0.048     2.344     2.394
    29   1 H        0.926     0.037     2.487     2.466
    30   1 H        0.925     0.058     2.226     2.333
    31   1 H        0.924     0.029     2.603     2.523
    32   1 H        0.924     0.031     2.575     2.509
    33   1 H        0.926     0.036     2.500     2.473
    34   1 H        0.926     0.034     2.534     2.489
    35   1 H        0.926     0.033     2.548     2.496
    36   1 H        0.926     0.033     2.549     2.497
    37   1 H        0.926     0.043     2.403     2.424

 Mol. C6AA /au·bohr⁶  :      15630.909688
 Mol. C8AA /au·bohr⁸  :     373151.608703
 Mol. α(0) /au        :        197.964626


Wiberg/Mayer (AO) data.
largest (>0.10) Wiberg bond orders for each atom

 ---------------------------------------------------------------------------
     #   Z sym  total        # sym  WBO       # sym  WBO       # sym  WBO
 ---------------------------------------------------------------------------
     1   6 C    3.947 --     2 O    0.983    21 H    0.980    20 H    0.979
                            22 H    0.978
     2   8 O    2.092 --     1 C    0.983     3 C    0.972
     3   6 C    3.919 --     2 O    0.972    14 C    0.955     4 C    0.947
                            12 O    0.936
     4   6 C    3.984 --    11 C    1.894     5 C    1.048     3 C    0.947
     5   6 C    3.989 --    10 C    1.387     6 C    1.385     4 C    1.048
                             8 C    0.105
     6   6 C    3.991 --     7 C    1.453     5 C    1.385    23 H    0.969
                             9 C    0.108
     7   6 C    3.992 --     6 C    1.453     8 C    1.433    24 H    0.971
                            10 C    0.108
     8   6 C    3.992 --     9 C    1.436     7 C    1.433    25 H    0.972
                             5 C    0.105
     9   6 C    3.992 --    10 C    1.450     8 C    1.436    26 H    0.971
                             6 C    0.108
    10   6 C    3.990 --     9 C    1.450     5 C    1.387    27 H    0.967
                             7 C    0.108
    11   6 C    3.989 --     4 C    1.894    29 H    0.973    28 H    0.973
    12   8 O    2.076 --    13 C    0.992     3 C    0.936
    13   6 C    3.951 --    12 O    0.992    30 H    0.979    31 H    0.977
                            32 H    0.976
    14   6 C    3.986 --    19 C    1.426    15 C    1.404     3 C    0.955
                            17 C    0.111
    15   6 C    3.992 --    16 C    1.454    14 C    1.404    33 H    0.969
                            18 C    0.113
    16   6 C    3.992 --    15 C    1.454    17 C    1.430    34 H    0.971
                            19 C    0.110
    17   6 C    3.992 --    18 C    1.447    16 C    1.430    35 H    0.971
                            14 C    0.111
    18   6 C    3.992 --    17 C    1.447    19 C    1.434    36 H    0.971
                            15 C    0.113
    19   6 C    3.991 --    18 C    1.434    14 C    1.426    37 H    0.967
                            16 C    0.110
    20   1 H    0.998 --     1 C    0.979
    21   1 H    0.996 --     1 C    0.980
    22   1 H    0.999 --     1 C    0.978
    23   1 H    0.999 --     6 C    0.969
    24   1 H    0.999 --     7 C    0.971
    25   1 H    0.999 --     8 C    0.972
    26   1 H    0.998 --     9 C    0.971
    27   1 H    0.997 --    10 C    0.967
    28   1 H    0.997 --    11 C    0.973
    29   1 H    0.998 --    11 C    0.973
    30   1 H    0.996 --    13 C    0.979
    31   1 H    0.999 --    13 C    0.977
    32   1 H    0.999 --    13 C    0.976
    33   1 H    0.999 --    15 C    0.969
    34   1 H    0.998 --    16 C    0.971
    35   1 H    0.998 --    17 C    0.971
    36   1 H    0.998 --    18 C    0.971
    37   1 H    0.998 --    19 C    0.967
 ---------------------------------------------------------------------------

Topologies differ in total number of bonds
Writing topology from bond orders to xtbtopo.mol

molecular dipole:
                 x           y           z       tot (Debye)
 q only:        0.242       0.274      -0.218
   full:        0.397       0.349      -0.307       1.553
molecular quadrupole (traceless):
                xx          xy          yy          xz          yz          zz
 q only:        0.919      -0.594       0.088       0.507      -0.467      -1.007
  q+dip:        5.173       1.470      -4.024      -0.866       4.289      -1.149
   full:        2.074      -0.055      -0.842       0.290       0.952      -1.232

           -------------------------------------------------
          |                Geometry Summary                 |
           -------------------------------------------------

      molecular mass/u    :      254.3242536
   center of mass at/Å    :       -0.0537421      -0.0643753       0.0016436
  moments of inertia/u·Å² :        0.6208445E+03   0.2040626E+04   0.2179328E+04
rotational constants/cm⁻¹ :        0.2715275E-01   0.8261009E-02   0.7735242E-02

 * 35 selected distances

     #   Z          #   Z                                           value/Å
     1   6 C        2   8 O                                       1.4111437
     2   8 O        3   6 C                                       1.4084092
     5   6 C        6   6 C                                       1.3933577
     6   6 C        7   6 C                                       1.3820257
     7   6 C        8   6 C                                       1.3847882
     8   6 C        9   6 C                                       1.3845853
     5   6 C       10   6 C                                       1.3926360
     9   6 C       10   6 C                                       1.3823663
     4   6 C       11   6 C                                       1.3290129
     3   6 C       12   8 O                                       1.4293307 (max)
    12   8 O       13   6 C                                       1.4054631
    14   6 C       15   6 C                                       1.3910306
    15   6 C       16   6 C                                       1.3820247
    16   6 C       17   6 C                                       1.3860845
    17   6 C       18   6 C                                       1.3832947
    14   6 C       19   6 C                                       1.3867524
    18   6 C       19   6 C                                       1.3852537
     1   6 C       20   1 H                                       1.0922591
     1   6 C       21   1 H                                       1.0880901
     1   6 C       22   1 H                                       1.0957290
     6   6 C       23   1 H                                       1.0802374
     7   6 C       24   1 H                                       1.0805108
     8   6 C       25   1 H                                       1.0803154
     9   6 C       26   1 H                                       1.0805059
    10   6 C       27   1 H                                       1.0785094
    11   6 C       28   1 H                                       1.0767486
    11   6 C       29   1 H                                       1.0767407 (min)
    13   6 C       30   1 H                                       1.0895575
    13   6 C       31   1 H                                       1.0946844
    13   6 C       32   1 H                                       1.0954996
    15   6 C       33   1 H                                       1.0796674
    16   6 C       34   1 H                                       1.0800486
    17   6 C       35   1 H                                       1.0801641
    18   6 C       36   1 H                                       1.0800165
    19   6 C       37   1 H                                       1.0793037

 * 3 distinct bonds (by element types)

   Z      Z             #   av. dist./Å        max./Å        min./Å
   1 H    6 C          18     1.0838105     1.0957290     1.0767407
   6 C    6 C          13     1.3817856     1.3933577     1.3290129
   6 C    8 O           4     1.4135866     1.4293307     1.4054631


optimized geometry written to: xtbopt.xyz


           -------------------------------------------------
          | TOTAL ENERGY              -53.653852641837 Eh   |
          | GRADIENT NORM               0.000770972624 Eh/α |
          | HOMO-LUMO GAP               3.834567209518 eV   |
           -------------------------------------------------

------------------------------------------------------------------------
 * finished run on 2025/12/01 at 14:22:40.279     
------------------------------------------------------------------------
 total:
 * wall-time:     0 d,  0 h,  0 min,  0.790 sec
 *  cpu-time:     0 d,  0 h,  0 min, 18.064 sec
 * ratio c/w:    22.852 speedup
 SCF:
 * wall-time:     0 d,  0 h,  0 min,  0.035 sec
 *  cpu-time:     0 d,  0 h,  0 min,  0.805 sec
 * ratio c/w:    22.720 speedup
 ANC optimizer:
 * wall-time:     0 d,  0 h,  0 min,  0.745 sec
 *  cpu-time:     0 d,  0 h,  0 min, 17.061 sec
 * ratio c/w:    22.899 speedup

normal termination of xtb
