      -----------------------------------------------------------      
     |                   =====================                   |     
     |                           x T B                           |     
     |                   =====================                   |     
     |                         S. Grimme                         |     
     |          Mulliken Center for Theoretical Chemistry        |     
     |                    University of Bonn                     |     
      -----------------------------------------------------------      

   * xtb version 6.7.1 (edcfbbe) compiled by 'albert@albert-system' on 2024-07-22

   xtb is free software: you can redistribute it and/or modify it under
   the terms of the GNU Lesser General Public License as published by
   the Free Software Foundation, either version 3 of the License, or
   (at your option) any later version.
   
   xtb is distributed in the hope that it will be useful,
   but WITHOUT ANY WARRANTY; without even the implied warranty of
   MERCHANTABILITY or FITNESS FOR A PARTICULAR PURPOSE.  See the
   GNU Lesser General Public License for more details.
   
   Cite this work as:
   * C. Bannwarth, E. Caldeweyher, S. Ehlert, A. Hansen, P. Pracht,
     J. Seibert, S. Spicher, S. Grimme, WIREs Comput. Mol. Sci., 2020, 11,
     e01493. DOI: 10.1002/wcms.1493
   
   for GFN2-xTB:
   * C. Bannwarth, S. Ehlert and S. Grimme., J. Chem. Theory Comput., 2019,
     15, 1652-1671. DOI: 10.1021/acs.jctc.8b01176
   for GFN1-xTB:
   * S. Grimme, C. Bannwarth, P. Shushkov, J. Chem. Theory Comput., 2017,
     13, 1989-2009. DOI: 10.1021/acs.jctc.7b00118
   for GFN0-xTB:
   * P. Pracht, E. Caldeweyher, S. Ehlert, S. Grimme, ChemRxiv, 2019, preprint.
     DOI: 10.26434/chemrxiv.8326202.v1
   for GFN-FF:
   * S. Spicher and S. Grimme, Angew. Chem. Int. Ed., 2020, 59, 15665-15673.
     DOI: 10.1002/anie.202004239
   
   for ALPB and GBSA implicit solvation:
   * S. Ehlert, M. Stahn, S. Spicher, S. Grimme, J. Chem. Theory Comput.,
     2021, 17, 4250-4261. DOI: 10.1021/acs.jctc.1c00471
   
   for ddCOSMO and CPCM-X implicit solvation:
   * M. Stahn, S. Ehlert, S. Grimme, J. Phys. Chem. A,
     2023, XX, XXXX-XXXX. DOI: 10.1021/acs.jpca.3c04382
   
   for DFT-D4:
   * E. Caldeweyher, C. Bannwarth and S. Grimme, J. Chem. Phys., 2017,
     147, 034112. DOI: 10.1063/1.4993215
   * E. Caldeweyher, S. Ehlert, A. Hansen, H. Neugebauer, S. Spicher,
     C. Bannwarth and S. Grimme, J. Chem. Phys., 2019, 150, 154122.
     DOI: 10.1063/1.5090222
   * E. Caldeweyher, J.-M. Mewes, S. Ehlert and S. Grimme, Phys. Chem. Chem. Phys.
     2020, 22, 8499-8512. DOI: 10.1039/D0CP00502A
   
   for sTDA-xTB:
   * S. Grimme and C. Bannwarth, J. Chem. Phys., 2016, 145, 054103.
     DOI: 10.1063/1.4959605
   
   in the mass-spec context:
   * V. Asgeirsson, C. Bauer and S. Grimme, Chem. Sci., 2017, 8, 4879.
     DOI: 10.1039/c7sc00601b
   * J. Koopman and S. Grimme, ACS Omega 2019, 4, 12, 15120-15133.
     DOI: 10.1021/acsomega.9b02011
   
   for metadynamics refer to:
   * S. Grimme, J. Chem. Theory Comput., 2019, 155, 2847-2862
     DOI: 10.1021/acs.jctc.9b00143
   
   for SPH calculations refer to:
   * S. Spicher and S. Grimme, J. Chem. Theory Comput., 2021, 17, 1701-1714
     DOI: 10.1021/acs.jctc.0c01306
   
   for ONIOM refer to:
   * C. Plett, A. Katbashev, S. Ehlert, S. Grimme, M. Bursch,
     Phys. Chem. Chem. Phys., 2023, 25, 17860-17868. DOI: 10.1039/D3CP02178E
   
   for DIPRO refer to:
   * J. Kohn, N. Gildemeister, S. Grimme, D. Fazzi, A. Hansen,
     J. Chem. Phys., 2023, just accepted.
   
   for PTB refer to:
   * S. Grimme, M. Mueller, A. Hansen, J. Chem. Phys., 2023, 158, 124111.
     DOI: 10.1063/5.0137838
   
   with help from (in alphabetical order)
   P. Atkinson, C. Bannwarth, F. Bohle, G. Brandenburg, E. Caldeweyher
   M. Checinski, S. Dohm, S. Ehlert, S. Ehrlich, I. Gerasimov, C. Hölzer
   A. Katbashev, J. Kohn, J. Koopman, C. Lavigne, S. Lehtola, F. März, M. Müller,
   F. Musil, H. Neugebauer, J. Pisarek, C. Plett, P. Pracht, F. Pultar,
   J. Seibert, P. Shushkov, S. Spicher, M. Stahn, M. Steiner, T. Strunk,
   J. Stückrath, T. Rose, and J. Unsleber
   
 * started run on 2025/12/01 at 14:22:38.732     
   ID    Z sym.   atoms
    1    6 C      1, 3-11, 13-19
    2    8 O      2, 12
    3    1 H      20-37

           -------------------------------------------------
          |                Calculation Setup                |
           -------------------------------------------------

          program call               : xtb pipeline_data/3_conformer_xyz/acrylates/rdkit/OQCIXXVMXBXDSC-UHFFFAOYSA-N_conf207.xyz --opt --gfn 2-xTB --iterations 250
          coordinate file            : pipeline_data/3_conformer_xyz/acrylates/rdkit/OQCIXXVMXBXDSC-UHFFFAOYSA-N_conf207.xyz
          omp threads                :                    24

########################################################################
[WARNING] Please study the warnings concerning your input carefully
-1- readin_getIntValue: could not parse '2-xTB'
########################################################################

           -------------------------------------------------
          |                 G F N 2 - x T B                 |
           -------------------------------------------------

        Reference                      10.1021/acs.jctc.8b01176
      * Hamiltonian:
        H0-scaling (s, p, d)           1.850000    2.230000    2.230000
        zeta-weighting                 0.500000
      * Dispersion:
        s8                             2.700000
        a1                             0.520000
        a2                             5.000000
        s9                             5.000000
      * Repulsion:
        kExp                           1.500000    1.000000
        rExp                           1.000000
      * Coulomb:
        alpha                          2.000000
        third order                    shell-resolved
        anisotropic                    true
        a3                             3.000000
        a5                             4.000000
        cn-shift                       1.200000
        cn-exp                         4.000000
        max-rad                        5.000000


          ...................................................
          :                      SETUP                      :
          :.................................................:
          :  # basis functions                  94          :
          :  # atomic orbitals                  94          :
          :  # shells                           56          :
          :  # electrons                        98          :
          :  max. iterations                   250          :
          :  Hamiltonian                  GFN2-xTB          :
          :  restarted?                      false          :
          :  GBSA solvation                  false          :
          :  PC potential                    false          :
          :  electronic temp.          300.0000000     K    :
          :  accuracy                    1.0000000          :
          :  -> integral cutoff          0.2500000E+02      :
          :  -> integral neglect         0.1000000E-07      :
          :  -> SCF convergence          0.1000000E-05 Eh   :
          :  -> wf. convergence          0.1000000E-03 e    :
          :  Broyden damping             0.4000000          :
          :  net charge                          0          :
          :  unpaired electrons                  0          :
          ...................................................

 iter      E             dE          RMSdq      gap      omega  full diag
   1    -54.4203929 -0.544204E+02  0.463E+00    3.76       0.0  T
   2    -54.4783109 -0.579180E-01  0.263E+00    3.65       1.0  T
   3    -54.4749078  0.340309E-02  0.815E-01    3.64       1.0  T
   4    -54.4766626 -0.175488E-02  0.383E-01    3.60       1.0  T
   5    -54.4816853 -0.502267E-02  0.109E-01    3.66       1.0  T
   6    -54.4818652 -0.179908E-03  0.487E-02    3.66       1.0  T
   7    -54.4818948 -0.295970E-04  0.256E-02    3.66       1.0  T
   8    -54.4818987 -0.392322E-05  0.600E-03    3.66       2.7  T
   9    -54.4818994 -0.655559E-06  0.202E-03    3.66       8.2  T
  10    -54.4818994 -0.237125E-07  0.108E-03    3.66      15.2  T
  11    -54.4818994 -0.152229E-07  0.366E-04    3.66      44.9  T
  12    -54.4818994 -0.505459E-09  0.129E-04    3.66     127.1  T

   *** convergence criteria satisfied after 12 iterations ***

         #    Occupation            Energy/Eh            Energy/eV
      -------------------------------------------------------------
         1        2.0000           -0.7165650             -19.4987
       ...           ...                  ...                  ...
        43        2.0000           -0.4143166             -11.2741
        44        2.0000           -0.4094344             -11.1413
        45        2.0000           -0.4080084             -11.1025
        46        2.0000           -0.4044781             -11.0064
        47        2.0000           -0.3942476             -10.7280
        48        2.0000           -0.3871463             -10.5348
        49        2.0000           -0.3841264             -10.4526 (HOMO)
        50                         -0.2495862              -6.7916 (LUMO)
        51                         -0.2308115              -6.2807
        52                         -0.2285859              -6.2201
        53                         -0.2178370              -5.9276
        54                         -0.1765903              -4.8053
       ...                                ...                  ...
        94                          0.7003180              19.0566
      -------------------------------------------------------------
                  HL-Gap            0.1345402 Eh            3.6610 eV
             Fermi-level           -0.3168563 Eh           -8.6221 eV

 SCC (total)                   0 d,  0 h,  0 min,  0.034 sec
 SCC setup                      ...        0 min,  0.000 sec (  0.721%)
 Dispersion                     ...        0 min,  0.000 sec (  1.201%)
 classical contributions        ...        0 min,  0.000 sec (  0.208%)
 integral evaluation            ...        0 min,  0.002 sec (  4.466%)
 iterations                     ...        0 min,  0.028 sec ( 82.044%)
 molecular gradient             ...        0 min,  0.004 sec ( 10.705%)
 printout                       ...        0 min,  0.000 sec (  0.574%)

         :::::::::::::::::::::::::::::::::::::::::::::::::::::
         ::                     SUMMARY                     ::
         :::::::::::::::::::::::::::::::::::::::::::::::::::::
         :: total energy             -53.624609459174 Eh    ::
         :: gradient norm              0.127796547467 Eh/a0 ::
         :: HOMO-LUMO gap              3.661025569219 eV    ::
         ::.................................................::
         :: SCC energy               -54.481454712387 Eh    ::
         :: -> isotropic ES            0.038536550649 Eh    ::
         :: -> anisotropic ES          0.004618718034 Eh    ::
         :: -> anisotropic XC          0.023801326139 Eh    ::
         :: -> dispersion             -0.042551508607 Eh    ::
         :: repulsion energy           0.856845253213 Eh    ::
         :: add. restraining           0.000000000000 Eh    ::
         :: total charge              -0.000000000000 e     ::
         :::::::::::::::::::::::::::::::::::::::::::::::::::::

      ----------------------------------------------------------- 
     |                   =====================                   |
     |                        A N C O P T                        |
     |                   =====================                   |
     |               Approximate Normal Coordinate               |
     |                Rational Function Optimizer                |
      ----------------------------------------------------------- 
      ----------------------------------------------------------- 
     |                   =====================                   |
     |                        A N C O P T                        |
     |                   =====================                   |
     |               Approximate Normal Coordinate               |
     |                Rational Function Optimizer                |
      ----------------------------------------------------------- 

          ...................................................
          :                      SETUP                      :
          :.................................................:
          :   optimization level            normal          :
          :   max. optcycles                   200          :
          :   ANC micro-cycles                  20          :
          :   degrees of freedom               105          :
          :.................................................:
          :   RF solver                   davidson          :
          :   write xtbopt.log                true          :
          :   linear?                        false          :
          :   energy convergence         0.5000000E-05 Eh   :
          :   grad. convergence          0.1000000E-02 Eh/α :
          :   maxmium RF displ.          1.0000000          :
          :   Hlow (freq-cutoff)         0.1000000E-01      :
          :   Hmax (freq-cutoff)         5.0000000          :
          :   S6 in model hess.         20.0000000          :
          ...................................................

generating ANC from exact Hessian ...
Using Lindh-Hessian (1995)
 Shifting diagonal of input Hessian by   9.454875474482089E-003
 Lowest  eigenvalues of input Hessian
    0.000000    0.000000    0.000000    0.000000    0.000000    0.000000
    0.010000    0.010222    0.010582    0.010916    0.011597    0.011728
    0.013096    0.013454    0.014488    0.015267    0.015466    0.016626
 Highest eigenvalues
    1.916154    1.973746    2.012980    2.039915    2.072541    2.085710
 

........................................................................
.............................. CYCLE    1 ..............................
........................................................................

 iter      E             dE          RMSdq      gap      omega  full diag
   1    -54.4818994 -0.544819E+02  0.506E-05    3.66       0.0  T
   2    -54.4818994 -0.110347E-10  0.316E-05    3.66     519.5  T
   3    -54.4818994 -0.824230E-12  0.201E-05    3.66     816.6  T
     SCC iter.                  ...        0 min,  0.006 sec
     gradient                   ...        0 min,  0.004 sec
 * total energy  :   -53.6246095 Eh     change       -0.3486420E-09 Eh
   gradient norm :     0.1277959 Eh/α   predicted     0.0000000E+00 (-100.00%)
   displ. norm   :     0.3419700 α      lambda       -0.2336339E-01
   maximum displ.:     0.1296990 α      in ANC's #15, #19, #45, ...

........................................................................
.............................. CYCLE    2 ..............................
........................................................................

 iter      E             dE          RMSdq      gap      omega  full diag
   1    -54.4953997 -0.544954E+02  0.240E-01    3.60       0.0  T
   2    -54.4955630 -0.163247E-03  0.159E-01    3.60       1.0  T
   3    -54.4954370  0.126030E-03  0.952E-02    3.60       1.0  T
   4    -54.4956547 -0.217757E-03  0.255E-02    3.60       1.0  T
   5    -54.4956689 -0.142142E-04  0.677E-03    3.60       2.4  T
   6    -54.4956697 -0.761665E-06  0.278E-03    3.60       5.9  T
   7    -54.4956699 -0.192259E-06  0.109E-03    3.60      15.1  T
   8    -54.4956699 -0.776237E-08  0.461E-04    3.60      35.6  T
   9    -54.4956699 -0.195860E-08  0.134E-04    3.60     122.7  T
     SCC iter.                  ...        0 min,  0.025 sec
     gradient                   ...        0 min,  0.007 sec
 * total energy  :   -53.6406744 Eh     change       -0.1606493E-01 Eh
   gradient norm :     0.0520841 Eh/α   predicted    -0.1305771E-01 ( -18.72%)
   displ. norm   :     0.3325077 α      lambda       -0.7448349E-02
   maximum displ.:     0.1460334 α      in ANC's #15, #6, #9, ...

........................................................................
.............................. CYCLE    3 ..............................
........................................................................

 iter      E             dE          RMSdq      gap      omega  full diag
   1    -54.4991736 -0.544992E+02  0.187E-01    3.56       0.0  T
   2    -54.4992487 -0.750899E-04  0.116E-01    3.56       1.0  T
   3    -54.4991748  0.738846E-04  0.532E-02    3.56       1.0  T
   4    -54.4992678 -0.930518E-04  0.163E-02    3.56       1.0  T
   5    -54.4992739 -0.605550E-05  0.519E-03    3.56       3.2  T
   6    -54.4992744 -0.494659E-06  0.191E-03    3.56       8.6  T
   7    -54.4992745 -0.930569E-07  0.727E-04    3.56      22.6  T
   8    -54.4992745 -0.274709E-08  0.279E-04    3.56      58.8  T
     SCC iter.                  ...        0 min,  0.026 sec
     gradient                   ...        0 min,  0.003 sec
 * total energy  :   -53.6451941 Eh     change       -0.4519758E-02 Eh
   gradient norm :     0.0143480 Eh/α   predicted    -0.4135926E-02 (  -8.49%)
   displ. norm   :     0.2898036 α      lambda       -0.1556287E-02
   maximum displ.:     0.1829355 α      in ANC's #6, #15, #10, ...

........................................................................
.............................. CYCLE    4 ..............................
........................................................................

 iter      E             dE          RMSdq      gap      omega  full diag
   1    -54.4966896 -0.544967E+02  0.111E-01    3.56       0.0  T
   2    -54.4966950 -0.540930E-05  0.656E-02    3.56       1.0  T
   3    -54.4966803  0.146958E-04  0.217E-02    3.56       1.0  T
   4    -54.4966971 -0.167900E-04  0.400E-03    3.56       4.1  T
   5    -54.4966973 -0.246728E-06  0.220E-03    3.56       7.5  T
   6    -54.4966974 -0.920655E-07  0.690E-04    3.56      23.8  T
   7    -54.4966974 -0.447788E-08  0.342E-04    3.56      48.1  T
     SCC iter.                  ...        0 min,  0.014 sec
     gradient                   ...        0 min,  0.003 sec
 * total energy  :   -53.6462518 Eh     change       -0.1057699E-02 Eh
   gradient norm :     0.0082714 Eh/α   predicted    -0.8435428E-03 ( -20.25%)
   displ. norm   :     0.3280245 α      lambda       -0.8859651E-03
   maximum displ.:     0.2359476 α      in ANC's #6, #10, #3, ...

........................................................................
.............................. CYCLE    5 ..............................
........................................................................

 iter      E             dE          RMSdq      gap      omega  full diag
   1    -54.4953992 -0.544954E+02  0.110E-01    3.57       0.0  T
   2    -54.4954012 -0.191691E-05  0.646E-02    3.57       1.0  T
   3    -54.4953956  0.555818E-05  0.139E-02    3.57       1.2  T
   4    -54.4954020 -0.640198E-05  0.289E-03    3.57       5.7  T
   5    -54.4954021 -0.951608E-07  0.138E-03    3.57      11.9  T
   6    -54.4954021 -0.315731E-07  0.612E-04    3.57      26.9  T
   7    -54.4954021 -0.383376E-08  0.182E-04    3.57      90.2  T
     SCC iter.                  ...        0 min,  0.012 sec
     gradient                   ...        0 min,  0.004 sec
 * total energy  :   -53.6469001 Eh     change       -0.6482071E-03 Eh
   gradient norm :     0.0086708 Eh/α   predicted    -0.4906708E-03 ( -24.30%)
   displ. norm   :     0.3457627 α      lambda       -0.6974274E-03
   maximum displ.:     0.2407378 α      in ANC's #6, #3, #4, ...

........................................................................
.............................. CYCLE    6 ..............................
........................................................................

 iter      E             dE          RMSdq      gap      omega  full diag
   1    -54.4963399 -0.544963E+02  0.114E-01    3.57       0.0  T
   2    -54.4963416 -0.165456E-05  0.673E-02    3.57       1.0  T
   3    -54.4963349  0.664565E-05  0.146E-02    3.57       1.1  T
   4    -54.4963424 -0.748730E-05  0.287E-03    3.57       5.7  T
   5    -54.4963426 -0.144738E-06  0.123E-03    3.57      13.4  T
   6    -54.4963426 -0.556062E-08  0.548E-04    3.57      30.0  T
   7    -54.4963426 -0.406506E-08  0.172E-04    3.57      95.3  T
     SCC iter.                  ...        0 min,  0.012 sec
     gradient                   ...        0 min,  0.004 sec
 * total energy  :   -53.6474922 Eh     change       -0.5921283E-03 Eh
   gradient norm :     0.0091213 Eh/α   predicted    -0.3904045E-03 ( -34.07%)
   displ. norm   :     0.5183344 α      lambda       -0.9714428E-03
   maximum displ.:     0.3420703 α      in ANC's #6, #3, #4, ...

........................................................................
.............................. CYCLE    7 ..............................
........................................................................

 iter      E             dE          RMSdq      gap      omega  full diag
   1    -54.4975413 -0.544975E+02  0.172E-01    3.57       0.0  T
   2    -54.4975444 -0.310662E-05  0.101E-01    3.57       1.0  T
   3    -54.4975346  0.984153E-05  0.181E-02    3.57       1.0  T
   4    -54.4975459 -0.113284E-04  0.374E-03    3.57       4.4  T
   5    -54.4975461 -0.223354E-06  0.172E-03    3.57       9.5  T
   6    -54.4975461 -0.142041E-07  0.735E-04    3.57      22.4  T
   7    -54.4975462 -0.622637E-08  0.293E-04    3.57      56.2  T
     SCC iter.                  ...        0 min,  0.013 sec
     gradient                   ...        0 min,  0.004 sec
 * total energy  :   -53.6483316 Eh     change       -0.8393920E-03 Eh
   gradient norm :     0.0088650 Eh/α   predicted    -0.6162246E-03 ( -26.59%)
   displ. norm   :     0.6653156 α      lambda       -0.1111238E-02
   maximum displ.:     0.4239295 α      in ANC's #6, #3, #4, ...

........................................................................
.............................. CYCLE    8 ..............................
........................................................................

 iter      E             dE          RMSdq      gap      omega  full diag
   1    -54.4973268 -0.544973E+02  0.222E-01    3.57       0.0  T
   2    -54.4973305 -0.369851E-05  0.131E-01    3.57       1.0  T
   3    -54.4973273  0.317795E-05  0.112E-02    3.57       1.5  T
   4    -54.4973321 -0.477545E-05  0.370E-03    3.57       4.4  T
   5    -54.4973322 -0.123006E-06  0.210E-03    3.57       7.8  T
   6    -54.4973323 -0.449443E-07  0.877E-04    3.57      18.7  T
   7    -54.4973323 -0.105345E-07  0.304E-04    3.57      54.0  T
     SCC iter.                  ...        0 min,  0.012 sec
     gradient                   ...        0 min,  0.003 sec
 * total energy  :   -53.6492738 Eh     change       -0.9421907E-03 Eh
   gradient norm :     0.0096609 Eh/α   predicted    -0.8015651E-03 ( -14.93%)
   displ. norm   :     0.6795993 α      lambda       -0.1029610E-02
   maximum displ.:     0.4190432 α      in ANC's #6, #3, #4, ...

........................................................................
.............................. CYCLE    9 ..............................
........................................................................

 iter      E             dE          RMSdq      gap      omega  full diag
   1    -54.4980486 -0.544980E+02  0.228E-01    3.58       0.0  T
   2    -54.4980518 -0.318210E-05  0.134E-01    3.58       1.0  T
   3    -54.4980476  0.419255E-05  0.124E-02    3.58       1.3  T
   4    -54.4980536 -0.604615E-05  0.332E-03    3.58       5.0  T
   5    -54.4980536  0.273472E-08  0.216E-03    3.58       7.6  T
   6    -54.4980537 -0.726224E-07  0.594E-04    3.58      27.7  T
   7    -54.4980537 -0.496690E-08  0.245E-04    3.58      67.0  T
     SCC iter.                  ...        0 min,  0.012 sec
     gradient                   ...        0 min,  0.004 sec
 * total energy  :   -53.6501128 Eh     change       -0.8390073E-03 Eh
   gradient norm :     0.0108423 Eh/α   predicted    -0.7525823E-03 ( -10.30%)
   displ. norm   :     0.6098133 α      lambda       -0.8675610E-03
   maximum displ.:     0.3508956 α      in ANC's #6, #3, #2, ...

........................................................................
.............................. CYCLE   10 ..............................
........................................................................

 iter      E             dE          RMSdq      gap      omega  full diag
   1    -54.5000346 -0.545000E+02  0.203E-01    3.61       0.0  T
   2    -54.5000378 -0.319993E-05  0.120E-01    3.61       1.0  T
   3    -54.5000251  0.126752E-04  0.206E-02    3.61       1.0  T
   4    -54.5000399 -0.148528E-04  0.351E-03    3.61       4.7  T
   5    -54.5000401 -0.119800E-06  0.206E-03    3.61       8.0  T
   6    -54.5000401 -0.377163E-07  0.686E-04    3.61      24.0  T
   7    -54.5000401 -0.664588E-08  0.238E-04    3.61      69.1  T
     SCC iter.                  ...        0 min,  0.016 sec
     gradient                   ...        0 min,  0.004 sec
 * total energy  :   -53.6508141 Eh     change       -0.7013221E-03 Eh
   gradient norm :     0.0106368 Eh/α   predicted    -0.5950963E-03 ( -15.15%)
   displ. norm   :     0.5360724 α      lambda       -0.8971682E-03
   maximum displ.:     0.2730969 α      in ANC's #2, #6, #3, ...

........................................................................
.............................. CYCLE   11 ..............................
........................................................................

 iter      E             dE          RMSdq      gap      omega  full diag
   1    -54.5101331 -0.545101E+02  0.186E-01    3.65       0.0  T
   2    -54.5101384 -0.534861E-05  0.109E-01    3.65       1.0  T
   3    -54.5101235  0.149499E-04  0.228E-02    3.65       1.0  T
   4    -54.5101407 -0.172449E-04  0.428E-03    3.65       3.8  T
   5    -54.5101410 -0.280574E-06  0.222E-03    3.65       7.4  T
   6    -54.5101410 -0.466844E-07  0.985E-04    3.65      16.7  T
   7    -54.5101410 -0.709986E-08  0.357E-04    3.65      46.1  T
     SCC iter.                  ...        0 min,  0.012 sec
     gradient                   ...        0 min,  0.004 sec
 * total energy  :   -53.6512812 Eh     change       -0.4671062E-03 Eh
   gradient norm :     0.0136952 Eh/α   predicted    -0.5774964E-03 (  23.63%)
   displ. norm   :     0.6037412 α      lambda       -0.1025136E-02
   maximum displ.:     0.3043970 α      in ANC's #6, #2, #3, ...

........................................................................
.............................. CYCLE   12 ..............................
........................................................................

 iter      E             dE          RMSdq      gap      omega  full diag
   1    -54.5021026 -0.545021E+02  0.201E-01    3.67       0.0  T
   2    -54.5021082 -0.551445E-05  0.119E-01    3.67       1.0  T
   3    -54.5021003  0.788222E-05  0.172E-02    3.67       1.0  T
   4    -54.5021100 -0.971660E-05  0.477E-03    3.67       3.4  T
   5    -54.5021103 -0.306844E-06  0.235E-03    3.67       7.0  T
   6    -54.5021103 -0.265509E-07  0.119E-03    3.67      13.8  T
   7    -54.5021104 -0.228888E-07  0.218E-04    3.67      75.5  T
   8    -54.5021104 -0.357765E-09  0.102E-04    3.67     161.9  T
     SCC iter.                  ...        0 min,  0.014 sec
     gradient                   ...        0 min,  0.004 sec
 * total energy  :   -53.6518542 Eh     change       -0.5729676E-03 Eh
   gradient norm :     0.0106274 Eh/α   predicted    -0.6994057E-03 (  22.07%)
   displ. norm   :     0.3161252 α      lambda       -0.3730785E-03
   maximum displ.:     0.1859108 α      in ANC's #2, #6, #3, ...

........................................................................
.............................. CYCLE   13 ..............................
........................................................................

 iter      E             dE          RMSdq      gap      omega  full diag
   1    -54.5016295 -0.545016E+02  0.105E-01    3.67       0.0  T
   2    -54.5016306 -0.110038E-05  0.617E-02    3.67       1.0  T
   3    -54.5016291  0.148485E-05  0.714E-03    3.67       2.3  T
   4    -54.5016309 -0.186062E-05  0.192E-03    3.67       8.6  T
   5    -54.5016310 -0.542285E-07  0.980E-04    3.67      16.8  T
   6    -54.5016310 -0.823990E-08  0.441E-04    3.67      37.3  T
     SCC iter.                  ...        0 min,  0.011 sec
     gradient                   ...        0 min,  0.004 sec
 * total energy  :   -53.6521624 Eh     change       -0.3082752E-03 Eh
   gradient norm :     0.0080555 Eh/α   predicted    -0.2051820E-03 ( -33.44%)
   displ. norm   :     0.4037623 α      lambda       -0.8136876E-03
   maximum displ.:     0.3193611 α      in ANC's #2, #1, #4, ...

........................................................................
.............................. CYCLE   14 ..............................
........................................................................

 iter      E             dE          RMSdq      gap      omega  full diag
   1    -54.5160860 -0.545161E+02  0.126E-01    3.72       0.0  T
   2    -54.5160923 -0.629580E-05  0.751E-02    3.72       1.0  T
   3    -54.5160782  0.141293E-04  0.225E-02    3.72       1.0  T
   4    -54.5160941 -0.159821E-04  0.527E-03    3.72       3.1  T
   5    -54.5160948 -0.662296E-06  0.184E-03    3.72       8.9  T
   6    -54.5160948 -0.157780E-07  0.838E-04    3.72      19.6  T
   7    -54.5160948 -0.570122E-08  0.349E-04    3.72      47.1  T
     SCC iter.                  ...        0 min,  0.012 sec
     gradient                   ...        0 min,  0.003 sec
 * total energy  :   -53.6524006 Eh     change       -0.2381365E-03 Eh
   gradient norm :     0.0118359 Eh/α   predicted    -0.4731706E-03 (  98.70%)
   displ. norm   :     0.4793642 α      lambda       -0.6101650E-03
   maximum displ.:     0.2651419 α      in ANC's #2, #3, #6, ...

........................................................................
.............................. CYCLE   15 ..............................
........................................................................

 iter      E             dE          RMSdq      gap      omega  full diag
   1    -54.5060803 -0.545061E+02  0.163E-01    3.71       0.0  T
   2    -54.5060824 -0.204982E-05  0.957E-02    3.71       1.0  T
   3    -54.5060783  0.408346E-05  0.111E-02    3.71       1.5  T
   4    -54.5060834 -0.514511E-05  0.240E-03    3.71       6.9  T
   5    -54.5060835 -0.454079E-07  0.151E-03    3.71      10.9  T
   6    -54.5060835 -0.225605E-07  0.499E-04    3.71      32.9  T
   7    -54.5060835 -0.386951E-08  0.175E-04    3.71      94.1  T
     SCC iter.                  ...        0 min,  0.011 sec
     gradient                   ...        0 min,  0.003 sec
 * total energy  :   -53.6527630 Eh     change       -0.3623947E-03 Eh
   gradient norm :     0.0073247 Eh/α   predicted    -0.3751930E-03 (   3.53%)
   displ. norm   :     0.2812582 α      lambda       -0.1786061E-03
   maximum displ.:     0.1849964 α      in ANC's #2, #6, #3, ...

........................................................................
.............................. CYCLE   16 ..............................
........................................................................

 iter      E             dE          RMSdq      gap      omega  full diag
   1    -54.5038984 -0.545039E+02  0.866E-02    3.71       0.0  T
   2    -54.5038990 -0.604589E-06  0.509E-02    3.71       1.0  T
   3    -54.5038983  0.690101E-06  0.542E-03    3.71       3.0  T
   4    -54.5038993 -0.942975E-06  0.157E-03    3.71      10.5  T
   5    -54.5038993 -0.215287E-07  0.833E-04    3.71      19.7  T
   6    -54.5038993 -0.475021E-08  0.343E-04    3.71      47.9  T
     SCC iter.                  ...        0 min,  0.010 sec
     gradient                   ...        0 min,  0.003 sec
 * total energy  :   -53.6528847 Eh     change       -0.1217199E-03 Eh
   gradient norm :     0.0055812 Eh/α   predicted    -0.9636775E-04 ( -20.83%)
   displ. norm   :     0.2852962 α      lambda       -0.2022231E-03
   maximum displ.:     0.2249953 α      in ANC's #2, #1, #3, ...

........................................................................
.............................. CYCLE   17 ..............................
........................................................................

 iter      E             dE          RMSdq      gap      omega  full diag
   1    -54.5062496 -0.545062E+02  0.753E-02    3.73       0.0  T
   2    -54.5062501 -0.508073E-06  0.443E-02    3.73       1.0  T
   3    -54.5062488  0.128413E-05  0.669E-03    3.73       2.5  T
   4    -54.5062504 -0.155770E-05  0.131E-03    3.73      12.6  T
   5    -54.5062504 -0.168307E-07  0.763E-04    3.73      21.6  T
   6    -54.5062504 -0.401494E-08  0.336E-04    3.73      49.0  T
     SCC iter.                  ...        0 min,  0.022 sec
     gradient                   ...        0 min,  0.004 sec
 * total energy  :   -53.6530361 Eh     change       -0.1514023E-03 Eh
   gradient norm :     0.0038422 Eh/α   predicted    -0.1093421E-03 ( -27.78%)
   displ. norm   :     0.4008678 α      lambda       -0.2363459E-03
   maximum displ.:     0.3298067 α      in ANC's #2, #1, #3, ...

........................................................................
.............................. CYCLE   18 ..............................
........................................................................

 iter      E             dE          RMSdq      gap      omega  full diag
   1    -54.5102810 -0.545103E+02  0.102E-01    3.75       0.0  T
   2    -54.5102819 -0.938090E-06  0.597E-02    3.75       1.0  T
   3    -54.5102806  0.133026E-05  0.643E-03    3.75       2.6  T
   4    -54.5102824 -0.178243E-05  0.150E-03    3.75      10.9  T
   5    -54.5102824 -0.109012E-07  0.813E-04    3.75      20.2  T
   6    -54.5102824 -0.542079E-08  0.391E-04    3.75      42.1  T
     SCC iter.                  ...        0 min,  0.016 sec
     gradient                   ...        0 min,  0.004 sec
 * total energy  :   -53.6531541 Eh     change       -0.1179823E-03 Eh
   gradient norm :     0.0070848 Eh/α   predicted    -0.1371660E-03 (  16.26%)
   displ. norm   :     0.3652651 α      lambda       -0.1723424E-03
   maximum displ.:     0.2918771 α      in ANC's #2, #1, #3, ...

........................................................................
.............................. CYCLE   19 ..............................
........................................................................

 iter      E             dE          RMSdq      gap      omega  full diag
   1    -54.5090739 -0.545091E+02  0.968E-02    3.75       0.0  T
   2    -54.5090746 -0.787795E-06  0.569E-02    3.75       1.0  T
   3    -54.5090725  0.215295E-05  0.841E-03    3.75       2.0  T
   4    -54.5090751 -0.259375E-05  0.150E-03    3.75      11.0  T
   5    -54.5090751 -0.165572E-07  0.970E-04    3.75      16.9  T
   6    -54.5090751 -0.109007E-07  0.354E-04    3.75      46.5  T
     SCC iter.                  ...        0 min,  0.010 sec
     gradient                   ...        0 min,  0.004 sec
 * total energy  :   -53.6532535 Eh     change       -0.9939596E-04 Eh
   gradient norm :     0.0058062 Eh/α   predicted    -0.9767029E-04 (  -1.74%)
   displ. norm   :     0.2029808 α      lambda       -0.9762213E-04
   maximum displ.:     0.1620460 α      in ANC's #2, #1, #56, ...

........................................................................
.............................. CYCLE   20 ..............................
........................................................................

 iter      E             dE          RMSdq      gap      omega  full diag
   1    -54.5096067 -0.545096E+02  0.440E-02    3.76       0.0  T
   2    -54.5096070 -0.292155E-06  0.259E-02    3.76       1.0  T
   3    -54.5096064  0.538971E-06  0.413E-03    3.76       4.0  T
   4    -54.5096071 -0.656039E-06  0.809E-04    3.76      20.3  T
   5    -54.5096071 -0.101533E-07  0.433E-04    3.76      37.9  T
     SCC iter.                  ...        0 min,  0.008 sec
     gradient                   ...        0 min,  0.004 sec
 * total energy  :   -53.6533160 Eh     change       -0.6248046E-04 Eh
   gradient norm :     0.0053153 Eh/α   predicted    -0.5082726E-04 ( -18.65%)
   displ. norm   :     0.2916444 α      lambda       -0.1128294E-03
   maximum displ.:     0.2288215 α      in ANC's #2, #1, #3, ...
 * RMSD in coord.:     1.1187753 α      energy gain  -0.2870650E-01 Eh

generating ANC from exact Hessian ...
Using Lindh-Hessian (1995)
 Shifting diagonal of input Hessian by   9.412292829923289E-003
 Lowest  eigenvalues of input Hessian
    0.000000    0.000000    0.000000    0.000000    0.000000    0.000000
    0.010000    0.010323    0.010555    0.011039    0.011393    0.012119
    0.013030    0.013592    0.014635    0.015479    0.015839    0.017386
 Highest eigenvalues
    1.901113    1.923240    2.005903    2.012226    2.022258    2.058739
 

........................................................................
.............................. CYCLE   21 ..............................
........................................................................

 iter      E             dE          RMSdq      gap      omega  full diag
   1    -54.5100564 -0.545101E+02  0.692E-02    3.77       0.0  T
   2    -54.5100569 -0.527028E-06  0.407E-02    3.77       1.0  T
   3    -54.5100560  0.900636E-06  0.533E-03    3.77       3.1  T
   4    -54.5100571 -0.110782E-05  0.119E-03    3.77      13.9  T
   5    -54.5100571 -0.179910E-07  0.689E-04    3.77      23.9  T
   6    -54.5100571 -0.549612E-08  0.280E-04    3.77      58.7  T
     SCC iter.                  ...        0 min,  0.012 sec
     gradient                   ...        0 min,  0.005 sec
 * total energy  :   -53.6533924 Eh     change       -0.7641999E-04 Eh
   gradient norm :     0.0043639 Eh/α   predicted     0.0000000E+00 (-100.00%)
   displ. norm   :     0.0555314 α      lambda       -0.6852220E-04
   maximum displ.:     0.0314349 α      in ANC's #9, #11, #4, ...

........................................................................
.............................. CYCLE   22 ..............................
........................................................................

 iter      E             dE          RMSdq      gap      omega  full diag
   1    -54.5096403 -0.545096E+02  0.195E-02    3.77       0.0  T
   2    -54.5096404 -0.961417E-07  0.117E-02    3.77       1.4  T
   3    -54.5096400  0.431896E-06  0.386E-03    3.77       4.3  T
   4    -54.5096405 -0.486903E-06  0.646E-04    3.77      25.4  T
   5    -54.5096405 -0.673639E-08  0.304E-04    3.77      54.0  T
     SCC iter.                  ...        0 min,  0.016 sec
     gradient                   ...        0 min,  0.006 sec
 * total energy  :   -53.6534482 Eh     change       -0.5577802E-04 Eh
   gradient norm :     0.0018601 Eh/α   predicted    -0.3517397E-04 ( -36.94%)
   displ. norm   :     0.2392607 α      lambda       -0.1149505E-03
   maximum displ.:     0.1352904 α      in ANC's #9, #11, #4, ...

........................................................................
.............................. CYCLE   23 ..............................
........................................................................

 iter      E             dE          RMSdq      gap      omega  full diag
   1    -54.5083440 -0.545083E+02  0.692E-02    3.78       0.0  T
   2    -54.5083449 -0.890308E-06  0.413E-02    3.78       1.0  T
   3    -54.5083433  0.162471E-05  0.769E-03    3.78       2.1  T
   4    -54.5083453 -0.198387E-05  0.207E-03    3.78       8.0  T
   5    -54.5083453 -0.509304E-07  0.105E-03    3.78      15.7  T
   6    -54.5083453 -0.101916E-07  0.404E-04    3.78      40.7  T
   7    -54.5083453 -0.199453E-08  0.131E-04    3.78     125.5  T
     SCC iter.                  ...        0 min,  0.012 sec
     gradient                   ...        0 min,  0.004 sec
 * total energy  :   -53.6535209 Eh     change       -0.7271903E-04 Eh
   gradient norm :     0.0059514 Eh/α   predicted    -0.5894332E-04 ( -18.94%)
   displ. norm   :     0.0392811 α      lambda       -0.4599127E-04
   maximum displ.:     0.0187700 α      in ANC's #1, #3, #4, ...

........................................................................
.............................. CYCLE   24 ..............................
........................................................................

 iter      E             dE          RMSdq      gap      omega  full diag
   1    -54.5090631 -0.545091E+02  0.131E-02    3.78       0.0  T
   2    -54.5090632 -0.700835E-07  0.772E-03    3.78       2.1  T
   3    -54.5090631  0.366294E-07  0.132E-03    3.78      12.5  T
   4    -54.5090632 -0.477527E-07  0.436E-04    3.78      37.7  T
   5    -54.5090632 -0.346824E-08  0.186E-04    3.78      88.2  T
     SCC iter.                  ...        0 min,  0.009 sec
     gradient                   ...        0 min,  0.004 sec
 * total energy  :   -53.6535596 Eh     change       -0.3869980E-04 Eh
   gradient norm :     0.0039564 Eh/α   predicted    -0.2305024E-04 ( -40.44%)
   displ. norm   :     0.1596392 α      lambda       -0.1042407E-03
   maximum displ.:     0.0746394 α      in ANC's #1, #3, #4, ...

........................................................................
.............................. CYCLE   25 ..............................
........................................................................

 iter      E             dE          RMSdq      gap      omega  full diag
   1    -54.5104019 -0.545104E+02  0.469E-02    3.79       0.0  T
   2    -54.5104022 -0.362919E-06  0.277E-02    3.79       1.0  T
   3    -54.5104021  0.156260E-06  0.275E-03    3.79       6.0  T
   4    -54.5104023 -0.247098E-06  0.955E-04    3.79      17.2  T
   5    -54.5104023 -0.135955E-07  0.525E-04    3.79      31.3  T
     SCC iter.                  ...        0 min,  0.009 sec
     gradient                   ...        0 min,  0.004 sec
 * total energy  :   -53.6536257 Eh     change       -0.6616957E-04 Eh
   gradient norm :     0.0017084 Eh/α   predicted    -0.5344915E-04 ( -19.22%)
   displ. norm   :     0.2515807 α      lambda       -0.4520181E-04
   maximum displ.:     0.1148977 α      in ANC's #3, #1, #9, ...

........................................................................
.............................. CYCLE   26 ..............................
........................................................................

 iter      E             dE          RMSdq      gap      omega  full diag
   1    -54.5098127 -0.545098E+02  0.719E-02    3.79       0.0  T
   2    -54.5098132 -0.530834E-06  0.425E-02    3.79       1.0  T
   3    -54.5098119  0.136657E-05  0.727E-03    3.79       2.3  T
   4    -54.5098135 -0.162751E-05  0.151E-03    3.79      10.9  T
   5    -54.5098135 -0.209703E-07  0.776E-04    3.79      21.2  T
   6    -54.5098135 -0.586451E-08  0.306E-04    3.79      53.7  T
     SCC iter.                  ...        0 min,  0.010 sec
     gradient                   ...        0 min,  0.003 sec
 * total energy  :   -53.6536677 Eh     change       -0.4198148E-04 Eh
   gradient norm :     0.0031154 Eh/α   predicted    -0.2323954E-04 ( -44.64%)
   displ. norm   :     0.1222200 α      lambda       -0.3436990E-04
   maximum displ.:     0.0629613 α      in ANC's #3, #1, #2, ...

........................................................................
.............................. CYCLE   27 ..............................
........................................................................

 iter      E             dE          RMSdq      gap      omega  full diag
   1    -54.5098332 -0.545098E+02  0.389E-02    3.79       0.0  T
   2    -54.5098333 -0.103044E-06  0.229E-02    3.79       1.0  T
   3    -54.5098332  0.658579E-07  0.176E-03    3.79       9.3  T
   4    -54.5098333 -0.110960E-06  0.572E-04    3.79      28.8  T
   5    -54.5098333 -0.123121E-08  0.335E-04    3.79      49.1  T
     SCC iter.                  ...        0 min,  0.009 sec
     gradient                   ...        0 min,  0.004 sec
 * total energy  :   -53.6536956 Eh     change       -0.2787196E-04 Eh
   gradient norm :     0.0020032 Eh/α   predicted    -0.1744244E-04 ( -37.42%)
   displ. norm   :     0.1786630 α      lambda       -0.4263481E-04
   maximum displ.:     0.0965881 α      in ANC's #3, #1, #2, ...

........................................................................
.............................. CYCLE   28 ..............................
........................................................................

 iter      E             dE          RMSdq      gap      omega  full diag
   1    -54.5099330 -0.545099E+02  0.604E-02    3.79       0.0  T
   2    -54.5099332 -0.236278E-06  0.355E-02    3.80       1.0  T
   3    -54.5099328  0.416633E-06  0.373E-03    3.79       4.4  T
   4    -54.5099333 -0.537239E-06  0.886E-04    3.80      18.6  T
   5    -54.5099333 -0.612632E-08  0.523E-04    3.80      31.4  T
     SCC iter.                  ...        0 min,  0.009 sec
     gradient                   ...        0 min,  0.004 sec
 * total energy  :   -53.6537275 Eh     change       -0.3188825E-04 Eh
   gradient norm :     0.0010358 Eh/α   predicted    -0.2200063E-04 ( -31.01%)
   displ. norm   :     0.2344739 α      lambda       -0.2555439E-04
   maximum displ.:     0.1306165 α      in ANC's #3, #1, #5, ...

........................................................................
.............................. CYCLE   29 ..............................
........................................................................

 iter      E             dE          RMSdq      gap      omega  full diag
   1    -54.5097556 -0.545098E+02  0.818E-02    3.80       0.0  T
   2    -54.5097560 -0.367099E-06  0.481E-02    3.80       1.0  T
   3    -54.5097553  0.689163E-06  0.488E-03    3.80       3.4  T
   4    -54.5097562 -0.893834E-06  0.111E-03    3.80      14.9  T
   5    -54.5097562 -0.755225E-08  0.647E-04    3.80      25.4  T
   6    -54.5097562 -0.544029E-08  0.183E-04    3.80      89.9  T
     SCC iter.                  ...        0 min,  0.011 sec
     gradient                   ...        0 min,  0.004 sec
 * total energy  :   -53.6537556 Eh     change       -0.2810351E-04 Eh
   gradient norm :     0.0022093 Eh/α   predicted    -0.1309434E-04 ( -53.41%)
   displ. norm   :     0.0981888 α      lambda       -0.1925360E-04
   maximum displ.:     0.0576614 α      in ANC's #3, #5, #1, ...

........................................................................
.............................. CYCLE   30 ..............................
........................................................................

 iter      E             dE          RMSdq      gap      omega  full diag
   1    -54.5102459 -0.545102E+02  0.365E-02    3.80       0.0  T
   2    -54.5102460 -0.746770E-07  0.214E-02    3.80       1.0  T
   3    -54.5102459  0.104375E-06  0.203E-03    3.80       8.1  T
   4    -54.5102460 -0.137593E-06  0.485E-04    3.80      33.9  T
   5    -54.5102460 -0.307924E-08  0.234E-04    3.80      70.4  T
     SCC iter.                  ...        0 min,  0.009 sec
     gradient                   ...        0 min,  0.004 sec
 * total energy  :   -53.6537727 Eh     change       -0.1709801E-04 Eh
   gradient norm :     0.0020847 Eh/α   predicted    -0.9721346E-05 ( -43.14%)
   displ. norm   :     0.1912926 α      lambda       -0.3728345E-04
   maximum displ.:     0.1128420 α      in ANC's #3, #5, #1, ...

........................................................................
.............................. CYCLE   31 ..............................
........................................................................

 iter      E             dE          RMSdq      gap      omega  full diag
   1    -54.5104965 -0.545105E+02  0.715E-02    3.81       0.0  T
   2    -54.5104968 -0.282594E-06  0.420E-02    3.81       1.0  T
   3    -54.5104963  0.460050E-06  0.427E-03    3.81       3.9  T
   4    -54.5104969 -0.594453E-06  0.947E-04    3.81      17.4  T
   5    -54.5104970 -0.102243E-07  0.470E-04    3.81      35.0  T
     SCC iter.                  ...        0 min,  0.009 sec
     gradient                   ...        0 min,  0.004 sec
 * total energy  :   -53.6538029 Eh     change       -0.3025825E-04 Eh
   gradient norm :     0.0012708 Eh/α   predicted    -0.1932522E-04 ( -36.13%)
   displ. norm   :     0.3565490 α      lambda       -0.3485276E-04
   maximum displ.:     0.2118704 α      in ANC's #3, #5, #1, ...

........................................................................
.............................. CYCLE   32 ..............................
........................................................................

 iter      E             dE          RMSdq      gap      omega  full diag
   1    -54.5100111 -0.545100E+02  0.134E-01    3.82       0.0  T
   2    -54.5100121 -0.986171E-06  0.787E-02    3.82       1.0  T
   3    -54.5100105  0.158101E-05  0.791E-03    3.82       2.1  T
   4    -54.5100126 -0.204192E-05  0.175E-03    3.82       9.4  T
   5    -54.5100126 -0.348668E-07  0.889E-04    3.82      18.5  T
   6    -54.5100126 -0.559186E-08  0.345E-04    3.82      47.6  T
     SCC iter.                  ...        0 min,  0.011 sec
     gradient                   ...        0 min,  0.004 sec
 * total energy  :   -53.6538318 Eh     change       -0.2889913E-04 Eh
   gradient norm :     0.0017720 Eh/α   predicted    -0.1841243E-04 ( -36.29%)
   displ. norm   :     0.0765900 α      lambda       -0.1059482E-04
   maximum displ.:     0.0456677 α      in ANC's #3, #5, #1, ...

........................................................................
.............................. CYCLE   33 ..............................
........................................................................

 iter      E             dE          RMSdq      gap      omega  full diag
   1    -54.5110509 -0.545111E+02  0.290E-02    3.82       0.0  T
   2    -54.5110510 -0.730281E-07  0.170E-02    3.82       1.0  T
   3    -54.5110508  0.143156E-06  0.225E-03    3.82       7.3  T
   4    -54.5110510 -0.171974E-06  0.501E-04    3.82      32.8  T
   5    -54.5110510 -0.395249E-08  0.261E-04    3.82      63.0  T
     SCC iter.                  ...        0 min,  0.009 sec
     gradient                   ...        0 min,  0.004 sec
 * total energy  :   -53.6538414 Eh     change       -0.9541986E-05 Eh
   gradient norm :     0.0009455 Eh/α   predicted    -0.5315093E-05 ( -44.30%)
   displ. norm   :     0.1210677 α      lambda       -0.6884853E-05
   maximum displ.:     0.0749160 α      in ANC's #3, #1, #5, ...

........................................................................
.............................. CYCLE   34 ..............................
........................................................................

 iter      E             dE          RMSdq      gap      omega  full diag
   1    -54.5105874 -0.545106E+02  0.438E-02    3.83       0.0  T
   2    -54.5105875 -0.128413E-06  0.257E-02    3.83       1.0  T
   3    -54.5105871  0.390329E-06  0.356E-03    3.83       4.6  T
   4    -54.5105876 -0.460777E-06  0.646E-04    3.83      25.4  T
   5    -54.5105876 -0.431125E-08  0.374E-04    3.83      44.0  T
     SCC iter.                  ...        0 min,  0.009 sec
     gradient                   ...        0 min,  0.003 sec
 * total energy  :   -53.6538484 Eh     change       -0.7003662E-05 Eh
   gradient norm :     0.0005194 Eh/α   predicted    -0.3467762E-05 ( -50.49%)
   displ. norm   :     0.0589880 α      lambda       -0.4457263E-05
   maximum displ.:     0.0322252 α      in ANC's #3, #6, #9, ...

........................................................................
.............................. CYCLE   35 ..............................
........................................................................

 iter      E             dE          RMSdq      gap      omega  full diag
   1    -54.5106493 -0.545106E+02  0.172E-02    3.83       0.0  T
   2    -54.5106494 -0.361582E-07  0.101E-02    3.83       1.6  T
   3    -54.5106492  0.175076E-06  0.228E-03    3.83       7.2  T
   4    -54.5106494 -0.198450E-06  0.381E-04    3.83      43.1  T
   5    -54.5106494 -0.179144E-08  0.216E-04    3.83      76.0  T
     SCC iter.                  ...        0 min,  0.009 sec
     gradient                   ...        0 min,  0.004 sec
 * total energy  :   -53.6538526 Eh     change       -0.4174044E-05 Eh
   gradient norm :     0.0005548 Eh/α   predicted    -0.2234009E-05 ( -46.48%)
   displ. norm   :     0.0581175 α      lambda        0.1293678E-05
   maximum displ.:     0.0316988 α      in ANC's #3, #6, #9, ...

   *** GEOMETRY OPTIMIZATION CONVERGED AFTER 35 ITERATIONS ***

------------------------------------------------------------------------
 total energy gain   :        -0.0292431 Eh      -18.3503 kcal/mol
 total RMSD          :         1.1675480 a0        0.6178 Å
 total power (kW/mol):        -2.1936502 (step) -110.8605 (real)
------------------------------------------------------------------------

 ANCopt (total)                0 d,  0 h,  0 min,  0.693 sec
 optimizer setup                ...        0 min,  0.000 sec (  0.015%)
 model hessian                  ...        0 min,  0.052 sec (  7.516%)
 ANC generation                 ...        0 min,  0.002 sec (  0.278%)
 coordinate transformation      ...        0 min,  0.000 sec (  0.065%)
 single point calculation       ...        0 min,  0.615 sec ( 88.757%)
 optimization log               ...        0 min,  0.013 sec (  1.888%)
 hessian update                 ...        0 min,  0.006 sec (  0.872%)
 rational function              ...        0 min,  0.003 sec (  0.397%)

================
 final structure:
================
37
 xtb: 6.7.1 (edcfbbe)
C           -0.25375115049847        0.56484670801816       -2.68562257624282
O            0.34695370137046        0.51123744632881       -1.40990383100852
C           -0.34956754332119       -0.24068783074656       -0.44368639558976
C            0.49929490646863       -0.18731700717255        0.82592977898117
C            1.95833171441827       -0.14154932417852        0.64584044289315
C            2.73639414790700        0.66334201930620        1.47542831758368
C            4.11049250955554        0.70079081246334        1.33225125761873
C            4.73004716945616       -0.06654063427967        0.36003407279905
C            3.96463415080994       -0.86531621722974       -0.47261600024467
C            2.58952706758322       -0.90138511736885       -0.33588097964812
C           -0.05547639776387       -0.22817782909403        2.03284386034742
O           -0.45742956964918       -1.57384408931529       -0.94679250061259
C           -0.61474576101093       -2.60466713227536       -0.00460643705510
C           -1.72526030621739        0.37904544977004       -0.21257328261437
C           -1.79082289805808        1.67486763123078        0.28842198417137
C           -3.01444240633800        2.29154663731523        0.46853959992401
C           -4.18455296919784        1.62271516372134        0.14653585041565
C           -4.12253281535176        0.34213170837736       -0.37246321869081
C           -2.89710715801443       -0.27596806184854       -0.55961932248643
H           -1.22608416948261        1.06858259250730       -2.64961339284159
H            0.43344651316069        1.13787353430497       -3.30462388589124
H           -0.38189496122595       -0.43698632081504       -3.10180919889679
H            2.25552070850161        1.27677237204537        2.22329839082782
H            4.70070646564396        1.33392094342199        1.97904521064622
H            5.80417744773613       -0.03704487568630        0.24896294354185
H            4.44281671722940       -1.46300695329861       -1.23538395902198
H            2.00008901662320       -1.52188531915471       -0.99214694717680
H           -1.12177908218664       -0.26024426858186        2.17946930917663
H            0.55130102834858       -0.24028635516067        2.92225264464148
H            0.29756340702697       -2.76512893689729        0.58032114800992
H           -0.83115083405075       -3.49880290982415       -0.58848872820777
H           -1.44364954439074       -2.40890779347002        0.68296971981231
H           -0.87340121553580        2.19214174683210        0.52732566003551
H           -3.05607948700393        3.29767097371589        0.85950544955691
H           -5.14095372945753        2.10339834973552        0.29116323643455
H           -5.03003216650232       -0.17840969274425       -0.64128346733264
H           -2.85058550657874       -1.26472841994164       -0.98999275385536
 
 Bond Distances (Angstroems)
 ---------------------------
C1-O2=1.4111         C1-H20=1.0957        C1-H21=1.0880        C1-H22=1.0924        O2-C1=1.4111         O2-C3=1.4086         
C3-O2=1.4086         C3-C4=1.5282         C3-O12=1.4290        C3-C14=1.5264        C4-C3=1.5282         C4-C5=1.4708         
C4-C11=1.3289        C5-C4=1.4708         C5-C6=1.3934         C5-C10=1.3927        C6-C5=1.3934         C6-C7=1.3820         
C6-H23=1.0802        C7-C6=1.3820         C7-C8=1.3849         C7-H24=1.0805        C8-C7=1.3849         C8-C9=1.3846         
C8-H25=1.0803        C9-C8=1.3846         C9-C10=1.3824        C9-H26=1.0806        C10-C5=1.3927        C10-C9=1.3824        
C10-H27=1.0785       C11-C4=1.3289        C11-H28=1.0768       C11-H29=1.0767       O12-C3=1.4290        O12-C13=1.4054       
C13-O12=1.4054       C13-H30=1.0955       C13-H31=1.0896       C13-H32=1.0946       C14-C3=1.5264        C14-C15=1.3908       
C14-C19=1.3866       C15-C14=1.3908       C15-C16=1.3820       C15-H33=1.0800       C16-C15=1.3820       C16-C17=1.3857       
C16-H34=1.0802       C17-C16=1.3857       C17-C18=1.3831       C17-H35=1.0801       C18-C17=1.3831       C18-C19=1.3852       
C18-H36=1.0802       C19-C14=1.3866       C19-C18=1.3852       C19-H37=1.0794       H20-C1=1.0957        H21-C1=1.0880        
H22-C1=1.0924        H23-C6=1.0802        H24-C7=1.0805        H25-C8=1.0803        H26-C9=1.0806        H27-C10=1.0785       
H28-C11=1.0768       H29-C11=1.0767       H30-C13=1.0955       H31-C13=1.0896       H32-C13=1.0946       H33-C15=1.0800       
H34-C16=1.0802       H35-C17=1.0801       H36-C18=1.0802       H37-C19=1.0794       
 C  H  Rav=1.0838 sigma=0.0065  Rmin=1.0767  Rmax=1.0957    18
 C  C  Rav=1.4055 sigma=0.0527  Rmin=1.3289  Rmax=1.5282    16
 O  C  Rav=1.4135 sigma=0.0092  Rmin=1.4054  Rmax=1.4290     4
 
 selected bond angles (degree)
 --------------------
H20-C1-O2=111.44               H21-C1-O2=105.40               H21-C1-H20=109.70              H22-C1-O2=111.07               
H22-C1-H20=109.27              H22-C1-H21=109.90              C3-O2-C1=115.46                C4-C3-O2=106.06                
O12-C3-O2=107.09               O12-C3-C4=111.53               C14-C3-O2=109.44               C14-C3-C4=111.14               
C14-C3-O12=111.35              C5-C4-C3=116.77                C11-C4-C3=121.44               C11-C4-C5=121.75               
C6-C5-C4=119.93                C10-C5-C4=121.26               C10-C5-C6=118.80               C7-C6-C5=120.61                
H23-C6-C5=119.45               H23-C6-C7=119.93               C8-C7-C6=120.17                H24-C7-C6=119.80               
H24-C7-C8=120.03               C9-C8-C7=119.64                H25-C8-C7=120.13               H25-C8-C9=120.24               
C10-C9-C8=120.36               H26-C9-C8=119.93               H26-C9-C10=119.71              C9-C10-C5=120.42               
H27-C10-C5=119.68              H27-C10-C9=119.90              
 
 selected dihedral angles (degree)
 ---------------------------------
C3-O2-C1-H20= 63.64           C3-O2-C1-H21=182.57           C3-O2-C1-H22=301.55           C4-C3-O2-C1=178.46            
O12-C3-O2-C1= 59.25           C14-C3-O2-C1=298.42           C5-C4-C3-O2=326.52            C5-C4-C3-O12= 82.77           
C5-C4-C3-C14=207.67           C11-C4-C3-O2=148.83           C11-C4-C3-O12=265.08          C11-C4-C3-C14= 29.98          
C6-C5-C4-C3=140.88            C6-C5-C4-C11=318.57           C10-C5-C4-C3=320.24           C10-C5-C4-C11=137.92          
C7-C6-C5-C4=178.98            C7-C6-C5-C10=359.60           H23-C6-C5-C4=357.78           H23-C6-C5-C10=178.40          
C8-C7-C6-C5=359.89            C8-C7-C6-H23=181.09           H24-C7-C6-C5=179.65           H24-C7-C6-H23=  0.86          
C9-C8-C7-C6=  0.37            C9-C8-C7-H24=180.61           H25-C8-C7-C6=180.02           H25-C8-C7-H24=  0.26          
C10-C9-C8-C7=359.88           C10-C9-C8-H25=180.23          H26-C9-C8-C7=179.76           H26-C9-C8-H25=  0.11          
C9-C10-C5-C4=181.29           C9-C10-C5-C6=  0.65           H27-C10-C5-C4=  1.24          H27-C10-C5-C6=180.60          
C5-C10-C9-C8=359.60           C5-C10-C9-H26=179.72          H27-C10-C9-C8=179.65          H27-C10-C9-H26=359.77         
           -------------------------------------------------
          |                Final Singlepoint                |
           -------------------------------------------------

          ...................................................
          :                      SETUP                      :
          :.................................................:
          :  # basis functions                  94          :
          :  # atomic orbitals                  94          :
          :  # shells                           56          :
          :  # electrons                        98          :
          :  max. iterations                   250          :
          :  Hamiltonian                  GFN2-xTB          :
          :  restarted?                      false          :
          :  GBSA solvation                  false          :
          :  PC potential                    false          :
          :  electronic temp.          300.0000000     K    :
          :  accuracy                    1.0000000          :
          :  -> integral cutoff          0.2500000E+02      :
          :  -> integral neglect         0.1000000E-07      :
          :  -> SCF convergence          0.1000000E-05 Eh   :
          :  -> wf. convergence          0.1000000E-03 e    :
          :  Broyden damping             0.4000000          :
          :  net charge                          0          :
          :  unpaired electrons                  0          :
          ...................................................

 iter      E             dE          RMSdq      gap      omega  full diag
   1    -54.5106494 -0.545106E+02  0.736E-05    3.83       0.0  T
   2    -54.5106494 -0.233342E-10  0.476E-05    3.83     345.3  T
   3    -54.5106494 -0.960654E-11  0.302E-05    3.83     544.0  T

   *** convergence criteria satisfied after 3 iterations ***

         #    Occupation            Energy/Eh            Energy/eV
      -------------------------------------------------------------
         1        2.0000           -0.7056352             -19.2013
       ...           ...                  ...                  ...
        43        2.0000           -0.4145817             -11.2813
        44        2.0000           -0.4068205             -11.0701
        45        2.0000           -0.4056623             -11.0386
        46        2.0000           -0.4032432             -10.9728
        47        2.0000           -0.3977436             -10.8232
        48        2.0000           -0.3901292             -10.6160
        49        2.0000           -0.3844814             -10.4623 (HOMO)
        50                         -0.2436279              -6.6295 (LUMO)
        51                         -0.2282632              -6.2114
        52                         -0.2251712              -6.1272
        53                         -0.2156925              -5.8693
        54                         -0.1873836              -5.0990
       ...                                ...                  ...
        94                          0.6788998              18.4738
      -------------------------------------------------------------
                  HL-Gap            0.1408535 Eh            3.8328 eV
             Fermi-level           -0.3140547 Eh           -8.5459 eV

 SCC (total)                   0 d,  0 h,  0 min,  0.010 sec
 SCC setup                      ...        0 min,  0.000 sec (  0.796%)
 Dispersion                     ...        0 min,  0.000 sec (  1.723%)
 classical contributions        ...        0 min,  0.000 sec (  0.383%)
 integral evaluation            ...        0 min,  0.001 sec (  8.478%)
 iterations                     ...        0 min,  0.005 sec ( 53.499%)
 molecular gradient             ...        0 min,  0.003 sec ( 33.581%)
 printout                       ...        0 min,  0.000 sec (  1.319%)

         :::::::::::::::::::::::::::::::::::::::::::::::::::::
         ::                     SUMMARY                     ::
         :::::::::::::::::::::::::::::::::::::::::::::::::::::
         :: total energy             -53.653852563507 Eh    ::
         :: gradient norm              0.000554257162 Eh/a0 ::
         :: HOMO-LUMO gap              3.832819165587 eV    ::
         ::.................................................::
         :: SCC energy               -54.510076496455 Eh    ::
         :: -> isotropic ES            0.041142325699 Eh    ::
         :: -> anisotropic ES          0.003256262955 Eh    ::
         :: -> anisotropic XC          0.024939982464 Eh    ::
         :: -> dispersion             -0.041667705199 Eh    ::
         :: repulsion energy           0.856223932948 Eh    ::
         :: add. restraining           0.000000000000 Eh    ::
         :: total charge              -0.000000000000 e     ::
         :::::::::::::::::::::::::::::::::::::::::::::::::::::

           -------------------------------------------------
          |                Property Printout                |
           -------------------------------------------------

    * Orbital Energies and Occupations

         #    Occupation            Energy/Eh            Energy/eV
      -------------------------------------------------------------
         1        2.0000           -0.7056352             -19.2013
       ...           ...                  ...                  ...
        37        2.0000           -0.4531107             -12.3298
        38        2.0000           -0.4440615             -12.0835
        39        2.0000           -0.4371964             -11.8967
        40        2.0000           -0.4292453             -11.6804
        41        2.0000           -0.4238589             -11.5338
        42        2.0000           -0.4209381             -11.4543
        43        2.0000           -0.4145817             -11.2813
        44        2.0000           -0.4068205             -11.0701
        45        2.0000           -0.4056623             -11.0386
        46        2.0000           -0.4032432             -10.9728
        47        2.0000           -0.3977436             -10.8232
        48        2.0000           -0.3901292             -10.6160
        49        2.0000           -0.3844814             -10.4623 (HOMO)
        50                         -0.2436279              -6.6295 (LUMO)
        51                         -0.2282632              -6.2114
        52                         -0.2251712              -6.1272
        53                         -0.2156925              -5.8693
        54                         -0.1873836              -5.0990
        55                         -0.0987940              -2.6883
        56                         -0.0818452              -2.2271
        57                          0.0206802               0.5627
        58                          0.0383020               1.0423
        59                          0.0565624               1.5391
        60                          0.1031142               2.8059
       ...                                ...                  ...
        94                          0.6788998              18.4738
      -------------------------------------------------------------
                  HL-Gap            0.1408535 Eh            3.8328 eV
             Fermi-level           -0.3140547 Eh           -8.5459 eV

     #   Z          covCN         q      C6AA      α(0)
     1   6 C        3.643     0.043    20.187     6.459
     2   8 O        1.702    -0.314    19.239     5.922
     3   6 C        3.692     0.264    16.723     5.851
     4   6 C        2.948    -0.003    28.090     8.693
     5   6 C        2.978     0.021    27.543     8.609
     6   6 C        2.926    -0.033    28.821     8.804
     7   6 C        2.919    -0.030    28.744     8.792
     8   6 C        2.920    -0.030    28.757     8.794
     9   6 C        2.919    -0.029    28.731     8.790
    10   6 C        2.924    -0.025    28.634     8.775
    11   6 C        2.846    -0.095    30.369     9.032
    12   8 O        1.699    -0.336    19.629     5.982
    13   6 C        3.636     0.048    20.133     6.456
    14   6 C        2.971    -0.015    28.380     8.738
    15   6 C        2.924    -0.030    28.746     8.792
    16   6 C        2.920    -0.029    28.726     8.789
    17   6 C        2.920    -0.030    28.759     8.794
    18   6 C        2.920    -0.031    28.775     8.797
    19   6 C        2.922    -0.032    28.797     8.800
    20   1 H        0.924     0.028     2.615     2.529
    21   1 H        0.925     0.058     2.221     2.331
    22   1 H        0.924     0.047     2.356     2.400
    23   1 H        0.926     0.031     2.568     2.506
    24   1 H        0.926     0.030     2.589     2.516
    25   1 H        0.926     0.030     2.593     2.518
    26   1 H        0.926     0.031     2.574     2.509
    27   1 H        0.926     0.050     2.319     2.381
    28   1 H        0.926     0.037     2.488     2.466
    29   1 H        0.926     0.048     2.344     2.394
    30   1 H        0.924     0.031     2.575     2.509
    31   1 H        0.925     0.058     2.226     2.333
    32   1 H        0.924     0.029     2.603     2.523
    33   1 H        0.926     0.036     2.500     2.473
    34   1 H        0.926     0.034     2.535     2.490
    35   1 H        0.926     0.033     2.548     2.496
    36   1 H        0.926     0.033     2.550     2.497
    37   1 H        0.926     0.043     2.403     2.424

 Mol. C6AA /au·bohr⁶  :      15631.004916
 Mol. C8AA /au·bohr⁸  :     373152.050622
 Mol. α(0) /au        :        197.965176


Wiberg/Mayer (AO) data.
largest (>0.10) Wiberg bond orders for each atom

 ---------------------------------------------------------------------------
     #   Z sym  total        # sym  WBO       # sym  WBO       # sym  WBO
 ---------------------------------------------------------------------------
     1   6 C    3.947 --     2 O    0.983    21 H    0.980    22 H    0.979
                            20 H    0.978
     2   8 O    2.092 --     1 C    0.983     3 C    0.971
     3   6 C    3.919 --     2 O    0.971    14 C    0.955     4 C    0.946
                            12 O    0.936
     4   6 C    3.984 --    11 C    1.894     5 C    1.048     3 C    0.946
     5   6 C    3.989 --    10 C    1.387     6 C    1.385     4 C    1.048
                             8 C    0.105
     6   6 C    3.991 --     7 C    1.453     5 C    1.385    23 H    0.969
                             9 C    0.108
     7   6 C    3.992 --     6 C    1.453     8 C    1.433    24 H    0.971
                            10 C    0.108
     8   6 C    3.992 --     9 C    1.436     7 C    1.433    25 H    0.972
                             5 C    0.105
     9   6 C    3.992 --    10 C    1.450     8 C    1.436    26 H    0.971
                             6 C    0.108
    10   6 C    3.990 --     9 C    1.450     5 C    1.387    27 H    0.967
                             7 C    0.108
    11   6 C    3.989 --     4 C    1.894    28 H    0.973    29 H    0.973
    12   8 O    2.077 --    13 C    0.992     3 C    0.936
    13   6 C    3.951 --    12 O    0.992    31 H    0.979    32 H    0.977
                            30 H    0.976
    14   6 C    3.986 --    19 C    1.426    15 C    1.405     3 C    0.955
                            17 C    0.111
    15   6 C    3.992 --    16 C    1.454    14 C    1.405    33 H    0.969
                            18 C    0.113
    16   6 C    3.992 --    15 C    1.454    17 C    1.431    34 H    0.971
                            19 C    0.110
    17   6 C    3.992 --    18 C    1.447    16 C    1.431    35 H    0.971
                            14 C    0.111
    18   6 C    3.992 --    17 C    1.447    19 C    1.434    36 H    0.971
                            15 C    0.113
    19   6 C    3.991 --    18 C    1.434    14 C    1.426    37 H    0.967
                            16 C    0.110
    20   1 H    0.999 --     1 C    0.978
    21   1 H    0.996 --     1 C    0.980
    22   1 H    0.998 --     1 C    0.979
    23   1 H    0.999 --     6 C    0.969
    24   1 H    0.999 --     7 C    0.971
    25   1 H    0.999 --     8 C    0.972
    26   1 H    0.998 --     9 C    0.971
    27   1 H    0.997 --    10 C    0.967
    28   1 H    0.998 --    11 C    0.973
    29   1 H    0.997 --    11 C    0.973
    30   1 H    0.999 --    13 C    0.976
    31   1 H    0.996 --    13 C    0.979
    32   1 H    0.999 --    13 C    0.977
    33   1 H    0.999 --    15 C    0.969
    34   1 H    0.998 --    16 C    0.971
    35   1 H    0.998 --    17 C    0.971
    36   1 H    0.998 --    18 C    0.971
    37   1 H    0.998 --    19 C    0.967
 ---------------------------------------------------------------------------

Topologies differ in total number of bonds
Writing topology from bond orders to xtbtopo.mol

molecular dipole:
                 x           y           z       tot (Debye)
 q only:       -0.303      -0.171       0.244
   full:       -0.477      -0.201       0.325       1.552
molecular quadrupole (traceless):
                xx          xy          yy          xz          yz          zz
 q only:        0.601      -0.395      -0.181       0.809      -0.817      -0.420
  q+dip:        5.371      -0.254      -1.463       0.724       4.487      -3.908
   full:        1.852      -0.306      -0.314       0.978       0.617      -1.538

           -------------------------------------------------
          |                Geometry Summary                 |
           -------------------------------------------------

      molecular mass/u    :      254.3242536
   center of mass at/Å    :        0.0618632       0.0553704      -0.0347233
  moments of inertia/u·Å² :        0.6206926E+03   0.2040286E+04   0.2179196E+04
rotational constants/cm⁻¹ :        0.2715939E-01   0.8262387E-02   0.7735714E-02

 * 35 selected distances

     #   Z          #   Z                                           value/Å
     1   6 C        2   8 O                                       1.4110914
     2   8 O        3   6 C                                       1.4085844
     5   6 C        6   6 C                                       1.3933584
     6   6 C        7   6 C                                       1.3820451
     7   6 C        8   6 C                                       1.3848654
     8   6 C        9   6 C                                       1.3846321
     5   6 C       10   6 C                                       1.3926720
     9   6 C       10   6 C                                       1.3823593
     4   6 C       11   6 C                                       1.3289405
     3   6 C       12   8 O                                       1.4290052 (max)
    12   8 O       13   6 C                                       1.4053681
    14   6 C       15   6 C                                       1.3908451
    15   6 C       16   6 C                                       1.3820204
    16   6 C       17   6 C                                       1.3857060
    17   6 C       18   6 C                                       1.3831489
    14   6 C       19   6 C                                       1.3866178
    18   6 C       19   6 C                                       1.3851870
     1   6 C       20   1 H                                       1.0956634
     1   6 C       21   1 H                                       1.0880088
     1   6 C       22   1 H                                       1.0923835
     6   6 C       23   1 H                                       1.0802064
     7   6 C       24   1 H                                       1.0805318
     8   6 C       25   1 H                                       1.0802606
     9   6 C       26   1 H                                       1.0806054
    10   6 C       27   1 H                                       1.0784911
    11   6 C       28   1 H                                       1.0768142
    11   6 C       29   1 H                                       1.0767422 (min)
    13   6 C       30   1 H                                       1.0955348
    13   6 C       31   1 H                                       1.0896002
    13   6 C       32   1 H                                       1.0946070
    15   6 C       33   1 H                                       1.0799584
    16   6 C       34   1 H                                       1.0802196
    17   6 C       35   1 H                                       1.0801278
    18   6 C       36   1 H                                       1.0801773
    19   6 C       37   1 H                                       1.0793669

 * 3 distinct bonds (by element types)

   Z      Z             #   av. dist./Å        max./Å        min./Å
   1 H    6 C          18     1.0838500     1.0956634     1.0767422
   6 C    6 C          13     1.3817229     1.3933584     1.3289405
   6 C    8 O           4     1.4135123     1.4290052     1.4053681


optimized geometry written to: xtbopt.xyz


           -------------------------------------------------
          | TOTAL ENERGY              -53.653852563507 Eh   |
          | GRADIENT NORM               0.000554257162 Eh/α |
          | HOMO-LUMO GAP               3.832819165587 eV   |
           -------------------------------------------------
########################################################################
[WARNING] Runtime exception occurred
-2- restart_readRestart: Dimension missmatch in restart file.
-1- restart_readRestart: Number of electron missmatch in restart file.
########################################################################

------------------------------------------------------------------------
 * finished run on 2025/12/01 at 14:22:39.480     
------------------------------------------------------------------------
 total:
 * wall-time:     0 d,  0 h,  0 min,  0.747 sec
 *  cpu-time:     0 d,  0 h,  0 min, 16.982 sec
 * ratio c/w:    22.729 speedup
 SCF:
 * wall-time:     0 d,  0 h,  0 min,  0.034 sec
 *  cpu-time:     0 d,  0 h,  0 min,  0.781 sec
 * ratio c/w:    22.716 speedup
 ANC optimizer:
 * wall-time:     0 d,  0 h,  0 min,  0.704 sec
 *  cpu-time:     0 d,  0 h,  0 min, 16.055 sec
 * ratio c/w:    22.812 speedup

normal termination of xtb
