      -----------------------------------------------------------      
     |                   =====================                   |     
     |                           x T B                           |     
     |                   =====================                   |     
     |                         S. Grimme                         |     
     |          Mulliken Center for Theoretical Chemistry        |     
     |                    University of Bonn                     |     
      -----------------------------------------------------------      

   * xtb version 6.7.1 (edcfbbe) compiled by 'albert@albert-system' on 2024-07-22

   xtb is free software: you can redistribute it and/or modify it under
   the terms of the GNU Lesser General Public License as published by
   the Free Software Foundation, either version 3 of the License, or
   (at your option) any later version.
   
   xtb is distributed in the hope that it will be useful,
   but WITHOUT ANY WARRANTY; without even the implied warranty of
   MERCHANTABILITY or FITNESS FOR A PARTICULAR PURPOSE.  See the
   GNU Lesser General Public License for more details.
   
   Cite this work as:
   * C. Bannwarth, E. Caldeweyher, S. Ehlert, A. Hansen, P. Pracht,
     J. Seibert, S. Spicher, S. Grimme, WIREs Comput. Mol. Sci., 2020, 11,
     e01493. DOI: 10.1002/wcms.1493
   
   for GFN2-xTB:
   * C. Bannwarth, S. Ehlert and S. Grimme., J. Chem. Theory Comput., 2019,
     15, 1652-1671. DOI: 10.1021/acs.jctc.8b01176
   for GFN1-xTB:
   * S. Grimme, C. Bannwarth, P. Shushkov, J. Chem. Theory Comput., 2017,
     13, 1989-2009. DOI: 10.1021/acs.jctc.7b00118
   for GFN0-xTB:
   * P. Pracht, E. Caldeweyher, S. Ehlert, S. Grimme, ChemRxiv, 2019, preprint.
     DOI: 10.26434/chemrxiv.8326202.v1
   for GFN-FF:
   * S. Spicher and S. Grimme, Angew. Chem. Int. Ed., 2020, 59, 15665-15673.
     DOI: 10.1002/anie.202004239
   
   for ALPB and GBSA implicit solvation:
   * S. Ehlert, M. Stahn, S. Spicher, S. Grimme, J. Chem. Theory Comput.,
     2021, 17, 4250-4261. DOI: 10.1021/acs.jctc.1c00471
   
   for ddCOSMO and CPCM-X implicit solvation:
   * M. Stahn, S. Ehlert, S. Grimme, J. Phys. Chem. A,
     2023, XX, XXXX-XXXX. DOI: 10.1021/acs.jpca.3c04382
   
   for DFT-D4:
   * E. Caldeweyher, C. Bannwarth and S. Grimme, J. Chem. Phys., 2017,
     147, 034112. DOI: 10.1063/1.4993215
   * E. Caldeweyher, S. Ehlert, A. Hansen, H. Neugebauer, S. Spicher,
     C. Bannwarth and S. Grimme, J. Chem. Phys., 2019, 150, 154122.
     DOI: 10.1063/1.5090222
   * E. Caldeweyher, J.-M. Mewes, S. Ehlert and S. Grimme, Phys. Chem. Chem. Phys.
     2020, 22, 8499-8512. DOI: 10.1039/D0CP00502A
   
   for sTDA-xTB:
   * S. Grimme and C. Bannwarth, J. Chem. Phys., 2016, 145, 054103.
     DOI: 10.1063/1.4959605
   
   in the mass-spec context:
   * V. Asgeirsson, C. Bauer and S. Grimme, Chem. Sci., 2017, 8, 4879.
     DOI: 10.1039/c7sc00601b
   * J. Koopman and S. Grimme, ACS Omega 2019, 4, 12, 15120-15133.
     DOI: 10.1021/acsomega.9b02011
   
   for metadynamics refer to:
   * S. Grimme, J. Chem. Theory Comput., 2019, 155, 2847-2862
     DOI: 10.1021/acs.jctc.9b00143
   
   for SPH calculations refer to:
   * S. Spicher and S. Grimme, J. Chem. Theory Comput., 2021, 17, 1701-1714
     DOI: 10.1021/acs.jctc.0c01306
   
   for ONIOM refer to:
   * C. Plett, A. Katbashev, S. Ehlert, S. Grimme, M. Bursch,
     Phys. Chem. Chem. Phys., 2023, 25, 17860-17868. DOI: 10.1039/D3CP02178E
   
   for DIPRO refer to:
   * J. Kohn, N. Gildemeister, S. Grimme, D. Fazzi, A. Hansen,
     J. Chem. Phys., 2023, just accepted.
   
   for PTB refer to:
   * S. Grimme, M. Mueller, A. Hansen, J. Chem. Phys., 2023, 158, 124111.
     DOI: 10.1063/5.0137838
   
   with help from (in alphabetical order)
   P. Atkinson, C. Bannwarth, F. Bohle, G. Brandenburg, E. Caldeweyher
   M. Checinski, S. Dohm, S. Ehlert, S. Ehrlich, I. Gerasimov, C. Hölzer
   A. Katbashev, J. Kohn, J. Koopman, C. Lavigne, S. Lehtola, F. März, M. Müller,
   F. Musil, H. Neugebauer, J. Pisarek, C. Plett, P. Pracht, F. Pultar,
   J. Seibert, P. Shushkov, S. Spicher, M. Stahn, M. Steiner, T. Strunk,
   J. Stückrath, T. Rose, and J. Unsleber
   
 * started run on 2025/12/01 at 14:22:43.331     
   ID    Z sym.   atoms
    1    6 C      1-4, 7, 8, 10, 11, 13
    2    8 O      5, 6, 14
    3    7 N      9, 12
    4    1 H      15-28

           -------------------------------------------------
          |                Calculation Setup                |
           -------------------------------------------------

          program call               : xtb pipeline_data/3_conformer_xyz/acrylates/rdkit/PFPUZMSQZJFLBK-UHFFFAOYSA-N_conf96.xyz --opt --gfn 2-xTB --iterations 250
          coordinate file            : pipeline_data/3_conformer_xyz/acrylates/rdkit/PFPUZMSQZJFLBK-UHFFFAOYSA-N_conf96.xyz
          omp threads                :                    24

########################################################################
[WARNING] Please study the warnings concerning your input carefully
-1- readin_getIntValue: could not parse '2-xTB'
########################################################################

           -------------------------------------------------
          |                 G F N 2 - x T B                 |
           -------------------------------------------------

        Reference                      10.1021/acs.jctc.8b01176
      * Hamiltonian:
        H0-scaling (s, p, d)           1.850000    2.230000    2.230000
        zeta-weighting                 0.500000
      * Dispersion:
        s8                             2.700000
        a1                             0.520000
        a2                             5.000000
        s9                             5.000000
      * Repulsion:
        kExp                           1.500000    1.000000
        rExp                           1.000000
      * Coulomb:
        alpha                          2.000000
        third order                    shell-resolved
        anisotropic                    true
        a3                             3.000000
        a5                             4.000000
        cn-shift                       1.200000
        cn-exp                         4.000000
        max-rad                        5.000000

q/qsh data taken from xtbrestart
CAMM data taken from xtbrestart

          ...................................................
          :                      SETUP                      :
          :.................................................:
          :  # basis functions                  70          :
          :  # atomic orbitals                  70          :
          :  # shells                           42          :
          :  # electrons                        78          :
          :  max. iterations                   250          :
          :  Hamiltonian                  GFN2-xTB          :
          :  restarted?                       true          :
          :  GBSA solvation                  false          :
          :  PC potential                    false          :
          :  electronic temp.          300.0000000     K    :
          :  accuracy                    1.0000000          :
          :  -> integral cutoff          0.2500000E+02      :
          :  -> integral neglect         0.1000000E-07      :
          :  -> SCF convergence          0.1000000E-05 Eh   :
          :  -> wf. convergence          0.1000000E-03 e    :
          :  Broyden damping             0.4000000          :
          :  net charge                          0          :
          :  unpaired electrons                  0          :
          ...................................................

 iter      E             dE          RMSdq      gap      omega  full diag
   1    -44.8947684 -0.448948E+02  0.467E+00    2.08       0.0  T
   2    -44.9025050 -0.773660E-02  0.277E+00    2.19       1.0  T
   3    -44.8947153  0.778966E-02  0.699E-01    2.31       1.0  T
   4    -44.9047425 -0.100272E-01  0.195E-01    2.27       1.0  T
   5    -44.9051878 -0.445368E-03  0.109E-01    2.28       1.0  T
   6    -44.9052179 -0.300184E-04  0.326E-02    2.27       1.0  T
   7    -44.9052320 -0.141292E-04  0.120E-02    2.27       1.6  T
   8    -44.9052325 -0.544467E-06  0.499E-03    2.27       3.8  T
   9    -44.9052326 -0.101975E-06  0.172E-03    2.27      11.0  T
  10    -44.9052326 -0.873748E-08  0.757E-04    2.27      25.0  T
  11    -44.9052326 -0.407564E-08  0.238E-04    2.27      79.4  T

   *** convergence criteria satisfied after 11 iterations ***

         #    Occupation            Energy/Eh            Energy/eV
      -------------------------------------------------------------
         1        2.0000           -0.7421678             -20.1954
       ...           ...                  ...                  ...
        33        2.0000           -0.4592773             -12.4976
        34        2.0000           -0.4479705             -12.1899
        35        2.0000           -0.4302773             -11.7084
        36        2.0000           -0.4137864             -11.2597
        37        2.0000           -0.3966310             -10.7929
        38        2.0000           -0.3926467             -10.6845
        39        2.0000           -0.3739916             -10.1768 (HOMO)
        40                         -0.2906591              -7.9092 (LUMO)
        41                         -0.1998026              -5.4369
        42                         -0.1746574              -4.7527
        43                         -0.0713407              -1.9413
        44                         -0.0175762              -0.4783
       ...                                ...                  ...
        70                          0.6346364              17.2693
      -------------------------------------------------------------
                  HL-Gap            0.0833325 Eh            2.2676 eV
             Fermi-level           -0.3323253 Eh           -9.0430 eV

 SCC (total)                   0 d,  0 h,  0 min,  0.023 sec
 SCC setup                      ...        0 min,  0.000 sec (  0.955%)
 Dispersion                     ...        0 min,  0.000 sec (  1.436%)
 classical contributions        ...        0 min,  0.000 sec (  0.278%)
 integral evaluation            ...        0 min,  0.001 sec (  4.137%)
 iterations                     ...        0 min,  0.018 sec ( 77.894%)
 molecular gradient             ...        0 min,  0.003 sec ( 14.519%)
 printout                       ...        0 min,  0.000 sec (  0.659%)

         :::::::::::::::::::::::::::::::::::::::::::::::::::::
         ::                     SUMMARY                     ::
         :::::::::::::::::::::::::::::::::::::::::::::::::::::
         :: total energy             -44.448158715209 Eh    ::
         :: gradient norm              0.180875416911 Eh/a0 ::
         :: HOMO-LUMO gap              2.267591520715 eV    ::
         ::.................................................::
         :: SCC energy               -44.904961109146 Eh    ::
         :: -> isotropic ES            0.096407438447 Eh    ::
         :: -> anisotropic ES          0.005363909319 Eh    ::
         :: -> anisotropic XC          0.014172953880 Eh    ::
         :: -> dispersion             -0.023119850431 Eh    ::
         :: repulsion energy           0.456802393937 Eh    ::
         :: add. restraining           0.000000000000 Eh    ::
         :: total charge              -0.000000000000 e     ::
         :::::::::::::::::::::::::::::::::::::::::::::::::::::

      ----------------------------------------------------------- 
     |                   =====================                   |
     |                        A N C O P T                        |
     |                   =====================                   |
     |               Approximate Normal Coordinate               |
     |                Rational Function Optimizer                |
      ----------------------------------------------------------- 
      ----------------------------------------------------------- 
     |                   =====================                   |
     |                        A N C O P T                        |
     |                   =====================                   |
     |               Approximate Normal Coordinate               |
     |                Rational Function Optimizer                |
      ----------------------------------------------------------- 

          ...................................................
          :                      SETUP                      :
          :.................................................:
          :   optimization level            normal          :
          :   max. optcycles                   200          :
          :   ANC micro-cycles                  20          :
          :   degrees of freedom                78          :
          :.................................................:
          :   RF solver                   davidson          :
          :   write xtbopt.log                true          :
          :   linear?                        false          :
          :   energy convergence         0.5000000E-05 Eh   :
          :   grad. convergence          0.1000000E-02 Eh/α :
          :   maxmium RF displ.          1.0000000          :
          :   Hlow (freq-cutoff)         0.1000000E-01      :
          :   Hmax (freq-cutoff)         5.0000000          :
          :   S6 in model hess.         20.0000000          :
          ...................................................

generating ANC from exact Hessian ...
Using Lindh-Hessian (1995)
 Shifting diagonal of input Hessian by   9.490010543181710E-003
 Lowest  eigenvalues of input Hessian
    0.000000    0.000000    0.000000    0.000000    0.000000    0.000000
    0.010000    0.010172    0.010536    0.012847    0.013688    0.015317
    0.017915    0.018875    0.021918    0.022618    0.025012    0.028322
 Highest eigenvalues
    1.591889    1.794217    1.804499    1.939537    2.137609    2.171676
 

........................................................................
.............................. CYCLE    1 ..............................
........................................................................

 iter      E             dE          RMSdq      gap      omega  full diag
   1    -44.9052326 -0.449052E+02  0.941E-05    2.27       0.0  T
   2    -44.9052326 -0.167901E-10  0.578E-05    2.27     327.0  T
   3    -44.9052326  0.208900E-11  0.244E-05    2.27     774.3  T
     SCC iter.                  ...        0 min,  0.004 sec
     gradient                   ...        0 min,  0.002 sec
 * total energy  :   -44.4481587 Eh     change       -0.3584049E-09 Eh
   gradient norm :     0.1808770 Eh/α   predicted     0.0000000E+00 (-100.00%)
   displ. norm   :     0.3709757 α      lambda       -0.3797470E-01
   maximum displ.:     0.1743801 α      in ANC's #18, #16, #30, ...

........................................................................
.............................. CYCLE    2 ..............................
........................................................................

 iter      E             dE          RMSdq      gap      omega  full diag
   1    -44.9697400 -0.449697E+02  0.323E-01    2.48       0.0  T
   2    -44.9704247 -0.684697E-03  0.201E-01    2.48       1.0  T
   3    -44.9704476 -0.228472E-04  0.106E-01    2.48       1.0  T
   4    -44.9704618 -0.142884E-04  0.477E-02    2.48       1.0  T
   5    -44.9705113 -0.494879E-04  0.110E-02    2.48       1.7  T
   6    -44.9705129 -0.158104E-05  0.486E-03    2.48       3.9  T
   7    -44.9705130 -0.749093E-07  0.163E-03    2.48      11.6  T
   8    -44.9705130 -0.668308E-08  0.689E-04    2.48      27.4  T
   9    -44.9705130 -0.193370E-08  0.208E-04    2.48      90.8  T
     SCC iter.                  ...        0 min,  0.010 sec
     gradient                   ...        0 min,  0.003 sec
 * total energy  :   -44.4748151 Eh     change       -0.2665638E-01 Eh
   gradient norm :     0.0704023 Eh/α   predicted    -0.2161588E-01 ( -18.91%)
   displ. norm   :     0.3397070 α      lambda       -0.1130869E-01
   maximum displ.:     0.1421308 α      in ANC's #18, #16, #12, ...

........................................................................
.............................. CYCLE    3 ..............................
........................................................................

 iter      E             dE          RMSdq      gap      omega  full diag
   1    -45.0031745 -0.450032E+02  0.241E-01    2.63       0.0  T
   2    -45.0034520 -0.277451E-03  0.146E-01    2.66       1.0  T
   3    -45.0034413  0.106916E-04  0.692E-02    2.65       1.0  T
   4    -45.0034510 -0.966169E-05  0.348E-02    2.65       1.0  T
   5    -45.0034782 -0.271962E-04  0.635E-03    2.65       3.0  T
   6    -45.0034785 -0.326064E-06  0.290E-03    2.65       6.5  T
   7    -45.0034785 -0.222536E-07  0.807E-04    2.65      23.4  T
   8    -45.0034785 -0.221829E-08  0.368E-04    2.65      51.3  T
     SCC iter.                  ...        0 min,  0.009 sec
     gradient                   ...        0 min,  0.002 sec
 * total energy  :   -44.4811405 Eh     change       -0.6325447E-02 Eh
   gradient norm :     0.0233512 Eh/α   predicted    -0.6308892E-02 (  -0.26%)
   displ. norm   :     0.2155570 α      lambda       -0.1690863E-02
   maximum displ.:     0.1038171 α      in ANC's #11, #12, #16, ...

........................................................................
.............................. CYCLE    4 ..............................
........................................................................

 iter      E             dE          RMSdq      gap      omega  full diag
   1    -45.0030078 -0.450030E+02  0.971E-02    2.66       0.0  T
   2    -45.0030328 -0.249702E-04  0.586E-02    2.68       1.0  T
   3    -45.0030326  0.179551E-06  0.181E-02    2.67       1.0  T
   4    -45.0030331 -0.536218E-06  0.657E-03    2.67       2.9  T
   5    -45.0030340 -0.924436E-06  0.210E-03    2.67       9.0  T
   6    -45.0030341 -0.363012E-07  0.918E-04    2.67      20.6  T
   7    -45.0030341 -0.316728E-08  0.243E-04    2.67      77.7  T
     SCC iter.                  ...        0 min,  0.008 sec
     gradient                   ...        0 min,  0.002 sec
 * total energy  :   -44.4823543 Eh     change       -0.1213787E-02 Eh
   gradient norm :     0.0109890 Eh/α   predicted    -0.8848045E-03 ( -27.10%)
   displ. norm   :     0.2797587 α      lambda       -0.1183921E-02
   maximum displ.:     0.1435567 α      in ANC's #11, #12, #16, ...

........................................................................
.............................. CYCLE    5 ..............................
........................................................................

 iter      E             dE          RMSdq      gap      omega  full diag
   1    -45.0012561 -0.450013E+02  0.104E-01    2.70       0.0  T
   2    -45.0012736 -0.174940E-04  0.619E-02    2.71       1.0  T
   3    -45.0012741 -0.556613E-06  0.139E-02    2.71       1.4  T
   4    -45.0012749 -0.814085E-06  0.347E-03    2.71       5.5  T
   5    -45.0012750 -0.432878E-07  0.189E-03    2.71      10.0  T
   6    -45.0012750 -0.350340E-09  0.825E-04    2.71      22.9  T
   7    -45.0012750 -0.108875E-07  0.302E-04    2.71      62.5  T
     SCC iter.                  ...        0 min,  0.008 sec
     gradient                   ...        0 min,  0.002 sec
 * total energy  :   -44.4830892 Eh     change       -0.7348706E-03 Eh
   gradient norm :     0.0120083 Eh/α   predicted    -0.6383357E-03 ( -13.14%)
   displ. norm   :     0.1914488 α      lambda       -0.5214592E-03
   maximum displ.:     0.0815009 α      in ANC's #11, #2, #5, ...

........................................................................
.............................. CYCLE    6 ..............................
........................................................................

 iter      E             dE          RMSdq      gap      omega  full diag
   1    -45.0014167 -0.450014E+02  0.761E-02    2.73       0.0  T
   2    -45.0014195 -0.284299E-05  0.446E-02    2.73       1.0  T
   3    -45.0014178  0.167039E-05  0.113E-02    2.73       1.7  T
   4    -45.0014201 -0.230924E-05  0.450E-03    2.73       4.2  T
   5    -45.0014204 -0.291979E-06  0.186E-03    2.73      10.2  T
   6    -45.0014204 -0.937833E-08  0.530E-04    2.73      35.7  T
   7    -45.0014204 -0.167869E-08  0.197E-04    2.73      96.0  T
     SCC iter.                  ...        0 min,  0.008 sec
     gradient                   ...        0 min,  0.002 sec
 * total energy  :   -44.4834549 Eh     change       -0.3657489E-03 Eh
   gradient norm :     0.0116847 Eh/α   predicted    -0.2702888E-03 ( -26.10%)
   displ. norm   :     0.2411028 α      lambda       -0.5570326E-03
   maximum displ.:     0.1201847 α      in ANC's #2, #5, #11, ...

........................................................................
.............................. CYCLE    7 ..............................
........................................................................

 iter      E             dE          RMSdq      gap      omega  full diag
   1    -45.0016406 -0.450016E+02  0.112E-01    2.75       0.0  T
   2    -45.0016490 -0.830920E-05  0.660E-02    2.75       1.0  T
   3    -45.0016490 -0.562224E-07  0.108E-02    2.76       1.8  T
   4    -45.0016499 -0.885969E-06  0.615E-03    2.76       3.1  T
   5    -45.0016505 -0.586196E-06  0.274E-03    2.76       6.9  T
   6    -45.0016505 -0.413738E-07  0.725E-04    2.76      26.1  T
   7    -45.0016505 -0.243327E-08  0.287E-04    2.76      65.8  T
     SCC iter.                  ...        0 min,  0.008 sec
     gradient                   ...        0 min,  0.002 sec
 * total energy  :   -44.4838536 Eh     change       -0.3986092E-03 Eh
   gradient norm :     0.0101576 Eh/α   predicted    -0.2947164E-03 ( -26.06%)
   displ. norm   :     0.2408046 α      lambda       -0.4722619E-03
   maximum displ.:     0.1279802 α      in ANC's #2, #5, #8, ...

........................................................................
.............................. CYCLE    8 ..............................
........................................................................

 iter      E             dE          RMSdq      gap      omega  full diag
   1    -45.0026875 -0.450027E+02  0.117E-01    2.78       0.0  T
   2    -45.0026963 -0.883874E-05  0.687E-02    2.78       1.0  T
   3    -45.0026940  0.232679E-05  0.154E-02    2.78       1.2  T
   4    -45.0026974 -0.336377E-05  0.733E-03    2.78       2.6  T
   5    -45.0026983 -0.940428E-06  0.276E-03    2.78       6.8  T
   6    -45.0026983 -0.241676E-07  0.794E-04    2.78      23.8  T
   7    -45.0026984 -0.392451E-08  0.328E-04    2.78      57.6  T
     SCC iter.                  ...        0 min,  0.008 sec
     gradient                   ...        0 min,  0.003 sec
 * total energy  :   -44.4841891 Eh     change       -0.3355605E-03 Eh
   gradient norm :     0.0077015 Eh/α   predicted    -0.2498240E-03 ( -25.55%)
   displ. norm   :     0.2510961 α      lambda       -0.3683183E-03
   maximum displ.:     0.1401581 α      in ANC's #2, #5, #8, ...

........................................................................
.............................. CYCLE    9 ..............................
........................................................................

 iter      E             dE          RMSdq      gap      omega  full diag
   1    -45.0016928 -0.450017E+02  0.125E-01    2.78       0.0  T
   2    -45.0017020 -0.916837E-05  0.736E-02    2.79       1.0  T
   3    -45.0017015  0.508802E-06  0.120E-02    2.79       1.6  T
   4    -45.0017033 -0.176799E-05  0.576E-03    2.79       3.3  T
   5    -45.0017037 -0.477006E-06  0.294E-03    2.79       6.4  T
   6    -45.0017038 -0.638087E-07  0.109E-03    2.79      17.4  T
   7    -45.0017038 -0.752937E-08  0.340E-04    2.79      55.6  T
   8    -45.0017038 -0.335014E-09  0.131E-04    2.79     144.3  T
     SCC iter.                  ...        0 min,  0.009 sec
     gradient                   ...        0 min,  0.003 sec
 * total energy  :   -44.4844199 Eh     change       -0.2308103E-03 Eh
   gradient norm :     0.0109199 Eh/α   predicted    -0.1957713E-03 ( -15.18%)
   displ. norm   :     0.1675428 α      lambda       -0.2932526E-03
   maximum displ.:     0.0839578 α      in ANC's #2, #8, #13, ...

........................................................................
.............................. CYCLE   10 ..............................
........................................................................

 iter      E             dE          RMSdq      gap      omega  full diag
   1    -45.0042657 -0.450043E+02  0.757E-02    2.83       0.0  T
   2    -45.0042799 -0.141857E-04  0.444E-02    2.83       1.0  T
   3    -45.0042781  0.177024E-05  0.158E-02    2.82       1.2  T
   4    -45.0042793 -0.121767E-05  0.887E-03    2.82       2.1  T
   5    -45.0042810 -0.171319E-05  0.154E-03    2.82      12.3  T
   6    -45.0042811 -0.109925E-07  0.785E-04    2.82      24.1  T
   7    -45.0042811 -0.218002E-08  0.239E-04    2.82      79.1  T
     SCC iter.                  ...        0 min,  0.008 sec
     gradient                   ...        0 min,  0.003 sec
 * total energy  :   -44.4845342 Eh     change       -0.1142499E-03 Eh
   gradient norm :     0.0076357 Eh/α   predicted    -0.1507433E-03 (  31.94%)
   displ. norm   :     0.1130294 α      lambda       -0.1393459E-03
   maximum displ.:     0.0672734 α      in ANC's #2, #7, #3, ...

........................................................................
.............................. CYCLE   11 ..............................
........................................................................

 iter      E             dE          RMSdq      gap      omega  full diag
   1    -45.0021150 -0.450021E+02  0.545E-02    2.81       0.0  T
   2    -45.0021174 -0.236919E-05  0.328E-02    2.82       1.0  T
   3    -45.0021146  0.277359E-05  0.122E-02    2.82       1.5  T
   4    -45.0021178 -0.318022E-05  0.375E-03    2.82       5.0  T
   5    -45.0021181 -0.265351E-06  0.121E-03    2.82      15.6  T
   6    -45.0021181 -0.468886E-08  0.635E-04    2.82      29.8  T
   7    -45.0021181 -0.131231E-08  0.131E-04    2.82     144.7  T
     SCC iter.                  ...        0 min,  0.009 sec
     gradient                   ...        0 min,  0.003 sec
 * total energy  :   -44.4846058 Eh     change       -0.7161091E-04 Eh
   gradient norm :     0.0051180 Eh/α   predicted    -0.7059524E-04 (  -1.42%)
   displ. norm   :     0.0823022 α      lambda       -0.1241904E-03
   maximum displ.:     0.0292694 α      in ANC's #7, #10, #1, ...

........................................................................
.............................. CYCLE   12 ..............................
........................................................................

 iter      E             dE          RMSdq      gap      omega  full diag
   1    -45.0029753 -0.450030E+02  0.432E-02    2.81       0.0  T
   2    -45.0029768 -0.155129E-05  0.255E-02    2.81       1.0  T
   3    -45.0029759  0.909823E-06  0.779E-03    2.81       2.4  T
   4    -45.0029770 -0.106270E-05  0.317E-03    2.81       6.0  T
   5    -45.0029772 -0.186627E-06  0.960E-04    2.81      19.7  T
   6    -45.0029772 -0.277939E-08  0.333E-04    2.81      56.8  T
     SCC iter.                  ...        0 min,  0.008 sec
     gradient                   ...        0 min,  0.003 sec
 * total energy  :   -44.4846486 Eh     change       -0.4281142E-04 Eh
   gradient norm :     0.0086463 Eh/α   predicted    -0.6251749E-04 (  46.03%)
   displ. norm   :     0.0711841 α      lambda       -0.8999699E-04
   maximum displ.:     0.0359504 α      in ANC's #3, #7, #1, ...

........................................................................
.............................. CYCLE   13 ..............................
........................................................................

 iter      E             dE          RMSdq      gap      omega  full diag
   1    -45.0028576 -0.450029E+02  0.274E-02    2.83       0.0  T
   2    -45.0028586 -0.104588E-05  0.163E-02    2.83       1.2  T
   3    -45.0028578  0.820234E-06  0.709E-03    2.83       2.7  T
   4    -45.0028587 -0.907756E-06  0.236E-03    2.83       8.0  T
   5    -45.0028588 -0.119437E-06  0.430E-04    2.83      43.9  T
   6    -45.0028588 -0.931948E-09  0.228E-04    2.83      82.9  T
     SCC iter.                  ...        0 min,  0.007 sec
     gradient                   ...        0 min,  0.002 sec
 * total energy  :   -44.4847145 Eh     change       -0.6588666E-04 Eh
   gradient norm :     0.0038311 Eh/α   predicted    -0.4522731E-04 ( -31.36%)
   displ. norm   :     0.2083010 α      lambda       -0.1089844E-03
   maximum displ.:     0.1207059 α      in ANC's #2, #7, #3, ...

........................................................................
.............................. CYCLE   14 ..............................
........................................................................

 iter      E             dE          RMSdq      gap      omega  full diag
   1    -45.0015944 -0.450016E+02  0.749E-02    2.84       0.0  T
   2    -45.0015964 -0.207334E-05  0.438E-02    2.84       1.0  T
   3    -45.0015946  0.179459E-05  0.104E-02    2.84       1.8  T
   4    -45.0015968 -0.213522E-05  0.365E-03    2.84       5.2  T
   5    -45.0015970 -0.246138E-06  0.127E-03    2.84      14.8  T
   6    -45.0015970 -0.382553E-08  0.483E-04    2.84      39.2  T
   7    -45.0015970 -0.151082E-08  0.148E-04    2.84     127.5  T
     SCC iter.                  ...        0 min,  0.009 sec
     gradient                   ...        0 min,  0.003 sec
 * total energy  :   -44.4847929 Eh     change       -0.7843243E-04 Eh
   gradient norm :     0.0043031 Eh/α   predicted    -0.5686138E-04 ( -27.50%)
   displ. norm   :     0.2566195 α      lambda       -0.1086991E-03
   maximum displ.:     0.1414675 α      in ANC's #2, #1, #3, ...

........................................................................
.............................. CYCLE   15 ..............................
........................................................................

 iter      E             dE          RMSdq      gap      omega  full diag
   1    -45.0013578 -0.450014E+02  0.853E-02    2.86       0.0  T
   2    -45.0013607 -0.293913E-05  0.496E-02    2.85       1.0  T
   3    -45.0013586  0.214499E-05  0.114E-02    2.86       1.7  T
   4    -45.0013611 -0.255824E-05  0.425E-03    2.86       4.4  T
   5    -45.0013615 -0.336924E-06  0.141E-03    2.86      13.4  T
   6    -45.0013615 -0.317156E-08  0.417E-04    2.86      45.3  T
   7    -45.0013615 -0.894268E-09  0.170E-04    2.86     111.2  T
     SCC iter.                  ...        0 min,  0.009 sec
     gradient                   ...        0 min,  0.002 sec
 * total energy  :   -44.4848746 Eh     change       -0.8172098E-04 Eh
   gradient norm :     0.0044048 Eh/α   predicted    -0.5792961E-04 ( -29.11%)
   displ. norm   :     0.3113550 α      lambda       -0.1187268E-03
   maximum displ.:     0.1735748 α      in ANC's #2, #1, #3, ...

........................................................................
.............................. CYCLE   16 ..............................
........................................................................

 iter      E             dE          RMSdq      gap      omega  full diag
   1    -45.0010949 -0.450011E+02  0.101E-01    2.87       0.0  T
   2    -45.0010998 -0.492488E-05  0.586E-02    2.86       1.0  T
   3    -45.0010987  0.107868E-05  0.106E-02    2.86       1.8  T
   4    -45.0011003 -0.155979E-05  0.506E-03    2.86       3.7  T
   5    -45.0011007 -0.476841E-06  0.181E-03    2.86      10.5  T
   6    -45.0011007 -0.106775E-07  0.691E-04    2.86      27.3  T
   7    -45.0011007 -0.303553E-08  0.232E-04    2.86      81.3  T
     SCC iter.                  ...        0 min,  0.009 sec
     gradient                   ...        0 min,  0.003 sec
 * total energy  :   -44.4849604 Eh     change       -0.8579635E-04 Eh
   gradient norm :     0.0041032 Eh/α   predicted    -0.6511924E-04 ( -24.10%)
   displ. norm   :     0.2437615 α      lambda       -0.1196500E-03
   maximum displ.:     0.1450686 α      in ANC's #1, #2, #3, ...

........................................................................
.............................. CYCLE   17 ..............................
........................................................................

 iter      E             dE          RMSdq      gap      omega  full diag
   1    -45.0040545 -0.450041E+02  0.720E-02    2.88       0.0  T
   2    -45.0040601 -0.563689E-05  0.419E-02    2.87       1.0  T
   3    -45.0040578  0.229475E-05  0.132E-02    2.88       1.4  T
   4    -45.0040604 -0.259157E-05  0.551E-03    2.88       3.4  T
   5    -45.0040611 -0.642747E-06  0.144E-03    2.88      13.1  T
   6    -45.0040611 -0.937891E-08  0.727E-04    2.88      26.0  T
   7    -45.0040611 -0.174628E-08  0.167E-04    2.88     112.8  T
     SCC iter.                  ...        0 min,  0.009 sec
     gradient                   ...        0 min,  0.003 sec
 * total energy  :   -44.4850304 Eh     change       -0.6992380E-04 Eh
   gradient norm :     0.0036280 Eh/α   predicted    -0.6338412E-04 (  -9.35%)
   displ. norm   :     0.2926863 α      lambda       -0.7743068E-04
   maximum displ.:     0.1613643 α      in ANC's #2, #1, #3, ...

........................................................................
.............................. CYCLE   18 ..............................
........................................................................

 iter      E             dE          RMSdq      gap      omega  full diag
   1    -45.0022787 -0.450023E+02  0.940E-02    2.87       0.0  T
   2    -45.0022819 -0.321770E-05  0.550E-02    2.87       1.0  T
   3    -45.0022810  0.881813E-06  0.940E-03    2.86       2.0  T
   4    -45.0022827 -0.167336E-05  0.325E-03    2.87       5.8  T
   5    -45.0022828 -0.102052E-06  0.199E-03    2.87       9.5  T
   6    -45.0022829 -0.327162E-07  0.727E-04    2.86      26.0  T
   7    -45.0022829 -0.261516E-08  0.207E-04    2.86      91.3  T
     SCC iter.                  ...        0 min,  0.009 sec
     gradient                   ...        0 min,  0.003 sec
 * total energy  :   -44.4850685 Eh     change       -0.3811266E-04 Eh
   gradient norm :     0.0063994 Eh/α   predicted    -0.4203357E-04 (  10.29%)
   displ. norm   :     0.0641232 α      lambda       -0.5423112E-04
   maximum displ.:     0.0470903 α      in ANC's #1, #4, #3, ...

........................................................................
.............................. CYCLE   19 ..............................
........................................................................

 iter      E             dE          RMSdq      gap      omega  full diag
   1    -45.0040733 -0.450041E+02  0.221E-02    2.87       0.0  T
   2    -45.0040746 -0.132047E-05  0.131E-02    2.87       1.4  T
   3    -45.0040745  0.143712E-06  0.454E-03    2.87       4.2  T
   4    -45.0040746 -0.846814E-07  0.267E-03    2.87       7.1  T
   5    -45.0040747 -0.148722E-06  0.420E-04    2.87      44.9  T
   6    -45.0040747 -0.893422E-09  0.236E-04    2.87      79.9  T
     SCC iter.                  ...        0 min,  0.008 sec
     gradient                   ...        0 min,  0.003 sec
 * total energy  :   -44.4851051 Eh     change       -0.3665764E-04 Eh
   gradient norm :     0.0024827 Eh/α   predicted    -0.2722926E-04 ( -25.72%)
   displ. norm   :     0.1554171 α      lambda       -0.4278139E-04
   maximum displ.:     0.1141576 α      in ANC's #1, #2, #3, ...

........................................................................
.............................. CYCLE   20 ..............................
........................................................................

 iter      E             dE          RMSdq      gap      omega  full diag
   1    -45.0040453 -0.450040E+02  0.461E-02    2.87       0.0  T
   2    -45.0040463 -0.925139E-06  0.269E-02    2.87       1.0  T
   3    -45.0040463 -0.727058E-07  0.263E-03    2.86       7.2  T
   4    -45.0040464 -0.670131E-07  0.103E-03    2.86      18.3  T
   5    -45.0040464 -0.387546E-08  0.605E-04    2.87      31.3  T
   6    -45.0040464 -0.722025E-09  0.279E-04    2.87      67.7  T
     SCC iter.                  ...        0 min,  0.007 sec
     gradient                   ...        0 min,  0.002 sec
 * total energy  :   -44.4851346 Eh     change       -0.2948050E-04 Eh
   gradient norm :     0.0019990 Eh/α   predicted    -0.2190853E-04 ( -25.68%)
   displ. norm   :     0.1437989 α      lambda       -0.2147234E-04
   maximum displ.:     0.1095532 α      in ANC's #1, #2, #3, ...
 * RMSD in coord.:     0.5596951 α      energy gain  -0.3697589E-01 Eh

generating ANC from exact Hessian ...
Using Lindh-Hessian (1995)
 Shifting diagonal of input Hessian by   9.494356704149534E-003
 Lowest  eigenvalues of input Hessian
    0.000000    0.000000    0.000000    0.000000    0.000000    0.000000
    0.010000    0.010325    0.010579    0.012638    0.013904    0.016477
    0.018405    0.019593    0.022468    0.023187    0.028784    0.030381
 Highest eigenvalues
    1.685020    1.826367    1.920731    2.061163    2.382417    2.540041
 

........................................................................
.............................. CYCLE   21 ..............................
........................................................................

 iter      E             dE          RMSdq      gap      omega  full diag
   1    -45.0039518 -0.450040E+02  0.420E-02    2.86       0.0  T
   2    -45.0039528 -0.924514E-06  0.245E-02    2.86       1.0  T
   3    -45.0039527  0.552361E-07  0.380E-03    2.86       5.0  T
   4    -45.0039529 -0.196778E-06  0.103E-03    2.86      18.4  T
   5    -45.0039529 -0.580789E-08  0.557E-04    2.86      33.9  T
   6    -45.0039529  0.699401E-09  0.319E-04    2.86      59.3  T
     SCC iter.                  ...        0 min,  0.007 sec
     gradient                   ...        0 min,  0.002 sec
 * total energy  :   -44.4851588 Eh     change       -0.2424081E-04 Eh
   gradient norm :     0.0024710 Eh/α   predicted     0.0000000E+00 (-100.00%)
   displ. norm   :     0.0244989 α      lambda       -0.9297270E-05
   maximum displ.:     0.0170294 α      in ANC's #1, #4, #5, ...

........................................................................
.............................. CYCLE   22 ..............................
........................................................................

 iter      E             dE          RMSdq      gap      omega  full diag
   1    -45.0039155 -0.450039E+02  0.760E-03    2.86       0.0  T
   2    -45.0039156 -0.113735E-06  0.427E-03    2.86       4.4  T
   3    -45.0039156  0.114852E-07  0.150E-03    2.86      12.6  T
   4    -45.0039156 -0.571356E-08  0.702E-04    2.86      26.9  T
   5    -45.0039156 -0.121895E-07  0.127E-04    2.86     148.7  T
     SCC iter.                  ...        0 min,  0.006 sec
     gradient                   ...        0 min,  0.002 sec
 * total energy  :   -44.4851709 Eh     change       -0.1206490E-04 Eh
   gradient norm :     0.0010774 Eh/α   predicted    -0.7236526E-05 ( -40.02%)
   displ. norm   :     0.1050702 α      lambda       -0.2615555E-04
   maximum displ.:     0.0719258 α      in ANC's #1, #4, #5, ...

........................................................................
.............................. CYCLE   23 ..............................
........................................................................

 iter      E             dE          RMSdq      gap      omega  full diag
   1    -45.0038068 -0.450038E+02  0.288E-02    2.86       0.0  T
   2    -45.0038077 -0.840673E-06  0.165E-02    2.86       1.1  T
   3    -45.0038073  0.335842E-06  0.524E-03    2.86       3.6  T
   4    -45.0038077 -0.309535E-06  0.225E-03    2.86       8.4  T
   5    -45.0038078 -0.117884E-06  0.421E-04    2.86      44.9  T
   6    -45.0038078 -0.620524E-09  0.186E-04    2.86     101.7  T
     SCC iter.                  ...        0 min,  0.007 sec
     gradient                   ...        0 min,  0.002 sec
 * total energy  :   -44.4851923 Eh     change       -0.2137281E-04 Eh
   gradient norm :     0.0026689 Eh/α   predicted    -0.1314278E-04 ( -38.51%)
   displ. norm   :     0.0358801 α      lambda       -0.9752257E-05
   maximum displ.:     0.0273699 α      in ANC's #1, #4, #5, ...

........................................................................
.............................. CYCLE   24 ..............................
........................................................................

 iter      E             dE          RMSdq      gap      omega  full diag
   1    -45.0038388 -0.450038E+02  0.923E-03    2.86       0.0  T
   2    -45.0038388 -0.290970E-07  0.546E-03    2.86       3.5  T
   3    -45.0038388  0.582467E-08  0.692E-04    2.86      27.3  T
   4    -45.0038388 -0.702457E-08  0.376E-04    2.86      50.2  T
     SCC iter.                  ...        0 min,  0.005 sec
     gradient                   ...        0 min,  0.002 sec
 * total energy  :   -44.4852008 Eh     change       -0.8477435E-05 Eh
   gradient norm :     0.0021657 Eh/α   predicted    -0.4883112E-05 ( -42.40%)
   displ. norm   :     0.0719150 α      lambda       -0.1961058E-04
   maximum displ.:     0.0541618 α      in ANC's #1, #4, #10, ...

........................................................................
.............................. CYCLE   25 ..............................
........................................................................

 iter      E             dE          RMSdq      gap      omega  full diag
   1    -45.0039129 -0.450039E+02  0.200E-02    2.86       0.0  T
   2    -45.0039133 -0.327082E-06  0.117E-02    2.86       1.6  T
   3    -45.0039133 -0.704301E-08  0.170E-03    2.86      11.1  T
   4    -45.0039133 -0.113353E-07  0.374E-04    2.86      50.5  T
   5    -45.0039133 -0.373539E-09  0.235E-04    2.86      80.4  T
     SCC iter.                  ...        0 min,  0.006 sec
     gradient                   ...        0 min,  0.002 sec
 * total energy  :   -44.4852154 Eh     change       -0.1465498E-04 Eh
   gradient norm :     0.0009147 Eh/α   predicted    -0.9871218E-05 ( -32.64%)
   displ. norm   :     0.1041381 α      lambda       -0.1186076E-04
   maximum displ.:     0.0809591 α      in ANC's #1, #4, #10, ...

........................................................................
.............................. CYCLE   26 ..............................
........................................................................

 iter      E             dE          RMSdq      gap      omega  full diag
   1    -45.0039285 -0.450039E+02  0.281E-02    2.86       0.0  T
   2    -45.0039292 -0.622095E-06  0.164E-02    2.86       1.2  T
   3    -45.0039291  0.389777E-07  0.297E-03    2.86       6.4  T
   4    -45.0039292 -0.536769E-07  0.128E-03    2.86      14.7  T
   5    -45.0039292 -0.345528E-07  0.422E-04    2.86      44.8  T
   6    -45.0039292 -0.115987E-08  0.183E-04    2.86     103.5  T
     SCC iter.                  ...        0 min,  0.007 sec
     gradient                   ...        0 min,  0.002 sec
 * total energy  :   -44.4852274 Eh     change       -0.1201300E-04 Eh
   gradient norm :     0.0017404 Eh/α   predicted    -0.5959888E-05 ( -50.39%)
   displ. norm   :     0.0614115 α      lambda       -0.7020658E-05
   maximum displ.:     0.0490643 α      in ANC's #1, #4, #2, ...

........................................................................
.............................. CYCLE   27 ..............................
........................................................................

 iter      E             dE          RMSdq      gap      omega  full diag
   1    -45.0039719 -0.450040E+02  0.184E-02    2.85       0.0  T
   2    -45.0039720 -0.122666E-06  0.107E-02    2.85       1.8  T
   3    -45.0039720  0.160780E-07  0.144E-03    2.85      13.1  T
   4    -45.0039720 -0.272093E-07  0.663E-04    2.85      28.5  T
   5    -45.0039720 -0.787634E-08  0.273E-04    2.85      69.3  T
     SCC iter.                  ...        0 min,  0.006 sec
     gradient                   ...        0 min,  0.003 sec
 * total energy  :   -44.4852363 Eh     change       -0.8837843E-05 Eh
   gradient norm :     0.0013771 Eh/α   predicted    -0.3517264E-05 ( -60.20%)
   displ. norm   :     0.0776502 α      lambda       -0.9926115E-05
   maximum displ.:     0.0607918 α      in ANC's #1, #2, #4, ...

........................................................................
.............................. CYCLE   28 ..............................
........................................................................

 iter      E             dE          RMSdq      gap      omega  full diag
   1    -45.0040306 -0.450040E+02  0.234E-02    2.85       0.0  T
   2    -45.0040308 -0.151060E-06  0.137E-02    2.85       1.4  T
   3    -45.0040308  0.236437E-08  0.138E-03    2.85      13.7  T
   4    -45.0040308 -0.268505E-07  0.623E-04    2.85      30.3  T
   5    -45.0040308 -0.377513E-08  0.351E-04    2.85      53.9  T
     SCC iter.                  ...        0 min,  0.005 sec
     gradient                   ...        0 min,  0.002 sec
 * total energy  :   -44.4852472 Eh     change       -0.1090112E-04 Eh
   gradient norm :     0.0007440 Eh/α   predicted    -0.4978883E-05 ( -54.33%)
   displ. norm   :     0.0773798 α      lambda       -0.6727325E-05
   maximum displ.:     0.0587009 α      in ANC's #1, #2, #3, ...

........................................................................
.............................. CYCLE   29 ..............................
........................................................................

 iter      E             dE          RMSdq      gap      omega  full diag
   1    -45.0039757 -0.450040E+02  0.239E-02    2.84       0.0  T
   2    -45.0039758 -0.828587E-07  0.139E-02    2.84       1.4  T
   3    -45.0039758 -0.165980E-07  0.785E-04    2.84      24.1  T
   4    -45.0039758 -0.376715E-08  0.426E-04    2.84      44.4  T
     SCC iter.                  ...        0 min,  0.004 sec
     gradient                   ...        0 min,  0.002 sec
 * total energy  :   -44.4852556 Eh     change       -0.8460019E-05 Eh
   gradient norm :     0.0009726 Eh/α   predicted    -0.3374404E-05 ( -60.11%)
   displ. norm   :     0.0792694 α      lambda       -0.6425898E-05
   maximum displ.:     0.0581263 α      in ANC's #1, #2, #3, ...

........................................................................
.............................. CYCLE   30 ..............................
........................................................................

 iter      E             dE          RMSdq      gap      omega  full diag
   1    -45.0040038 -0.450040E+02  0.229E-02    2.84       0.0  T
   2    -45.0040038 -0.498476E-07  0.134E-02    2.84       1.4  T
   3    -45.0040038 -0.149027E-07  0.664E-04    2.84      28.4  T
   4    -45.0040038 -0.216676E-08  0.383E-04    2.84      49.3  T
     SCC iter.                  ...        0 min,  0.004 sec
     gradient                   ...        0 min,  0.002 sec
 * total energy  :   -44.4852646 Eh     change       -0.9010178E-05 Eh
   gradient norm :     0.0009156 Eh/α   predicted    -0.3224450E-05 ( -64.21%)
   displ. norm   :     0.1130121 α      lambda       -0.9785506E-05
   maximum displ.:     0.0793807 α      in ANC's #1, #2, #3, ...

........................................................................
.............................. CYCLE   31 ..............................
........................................................................

 iter      E             dE          RMSdq      gap      omega  full diag
   1    -45.0039944 -0.450040E+02  0.314E-02    2.84       0.0  T
   2    -45.0039945 -0.107776E-06  0.184E-02    2.84       1.0  T
   3    -45.0039945 -0.296323E-07  0.805E-04    2.84      23.5  T
   4    -45.0039945 -0.227868E-08  0.439E-04    2.84      43.1  T
     SCC iter.                  ...        0 min,  0.005 sec
     gradient                   ...        0 min,  0.002 sec
 * total energy  :   -44.4852782 Eh     change       -0.1358489E-04 Eh
   gradient norm :     0.0007086 Eh/α   predicted    -0.4924332E-05 ( -63.75%)
   displ. norm   :     0.1856842 α      lambda       -0.1496515E-04
   maximum displ.:     0.1281083 α      in ANC's #1, #2, #3, ...

........................................................................
.............................. CYCLE   32 ..............................
........................................................................

 iter      E             dE          RMSdq      gap      omega  full diag
   1    -45.0038770 -0.450039E+02  0.503E-02    2.84       0.0  T
   2    -45.0038773 -0.300767E-06  0.294E-02    2.84       1.0  T
   3    -45.0038773 -0.581630E-07  0.158E-03    2.84      12.0  T
   4    -45.0038773 -0.109552E-07  0.110E-03    2.84      17.2  T
   5    -45.0038774 -0.148131E-07  0.506E-04    2.84      37.3  T
   6    -45.0038774 -0.163820E-08  0.923E-05    2.84     204.8  T
     SCC iter.                  ...        0 min,  0.007 sec
     gradient                   ...        0 min,  0.002 sec
 * total energy  :   -44.4852977 Eh     change       -0.1951843E-04 Eh
   gradient norm :     0.0007289 Eh/α   predicted    -0.7598732E-05 ( -61.07%)
   displ. norm   :     0.2391052 α      lambda       -0.1565278E-04
   maximum displ.:     0.1649119 α      in ANC's #1, #2, #3, ...

........................................................................
.............................. CYCLE   33 ..............................
........................................................................

 iter      E             dE          RMSdq      gap      omega  full diag
   1    -45.0036677 -0.450037E+02  0.641E-02    2.84       0.0  T
   2    -45.0036682 -0.493923E-06  0.374E-02    2.84       1.0  T
   3    -45.0036684 -0.119560E-06  0.182E-03    2.84      10.4  T
   4    -45.0036684 -0.183158E-07  0.971E-04    2.84      19.5  T
   5    -45.0036684 -0.595072E-09  0.490E-04    2.84      38.5  T
     SCC iter.                  ...        0 min,  0.011 sec
     gradient                   ...        0 min,  0.003 sec
 * total energy  :   -44.4853165 Eh     change       -0.1879710E-04 Eh
   gradient norm :     0.0010915 Eh/α   predicted    -0.8028705E-05 ( -57.29%)
   displ. norm   :     0.2158288 α      lambda       -0.1120215E-04
   maximum displ.:     0.1510126 α      in ANC's #1, #2, #3, ...

........................................................................
.............................. CYCLE   34 ..............................
........................................................................

 iter      E             dE          RMSdq      gap      omega  full diag
   1    -45.0037253 -0.450037E+02  0.575E-02    2.84       0.0  T
   2    -45.0037257 -0.387902E-06  0.336E-02    2.84       1.0  T
   3    -45.0037258 -0.847383E-07  0.186E-03    2.84      10.2  T
   4    -45.0037258 -0.307736E-07  0.958E-04    2.84      19.7  T
   5    -45.0037258 -0.124458E-08  0.509E-04    2.84      37.1  T
     SCC iter.                  ...        0 min,  0.011 sec
     gradient                   ...        0 min,  0.003 sec
 * total energy  :   -44.4853300 Eh     change       -0.1341639E-04 Eh
   gradient norm :     0.0010996 Eh/α   predicted    -0.5719496E-05 ( -57.37%)
   displ. norm   :     0.1917081 α      lambda       -0.8680197E-05
   maximum displ.:     0.1365795 α      in ANC's #1, #2, #3, ...

........................................................................
.............................. CYCLE   35 ..............................
........................................................................

 iter      E             dE          RMSdq      gap      omega  full diag
   1    -45.0039020 -0.450039E+02  0.510E-02    2.84       0.0  T
   2    -45.0039023 -0.310502E-06  0.298E-02    2.84       1.0  T
   3    -45.0039023 -0.573551E-07  0.185E-03    2.84      10.2  T
   4    -45.0039024 -0.392350E-07  0.889E-04    2.84      21.2  T
   5    -45.0039024 -0.908223E-09  0.494E-04    2.83      38.3  T
     SCC iter.                  ...        0 min,  0.011 sec
     gradient                   ...        0 min,  0.004 sec
 * total energy  :   -44.4853406 Eh     change       -0.1064041E-04 Eh
   gradient norm :     0.0008324 Eh/α   predicted    -0.4414387E-05 ( -58.51%)
   displ. norm   :     0.1974508 α      lambda       -0.7956388E-05
   maximum displ.:     0.1430405 α      in ANC's #1, #2, #3, ...

........................................................................
.............................. CYCLE   36 ..............................
........................................................................

 iter      E             dE          RMSdq      gap      omega  full diag
   1    -45.0039243 -0.450039E+02  0.530E-02    2.84       0.0  T
   2    -45.0039247 -0.343000E-06  0.310E-02    2.84       1.0  T
   3    -45.0039247 -0.594275E-07  0.204E-03    2.84       9.3  T
   4    -45.0039248 -0.515583E-07  0.968E-04    2.84      19.5  T
   5    -45.0039248 -0.733344E-09  0.559E-04    2.84      33.8  T
     SCC iter.                  ...        0 min,  0.011 sec
     gradient                   ...        0 min,  0.003 sec
 * total energy  :   -44.4853501 Eh     change       -0.9535939E-05 Eh
   gradient norm :     0.0006486 Eh/α   predicted    -0.4048122E-05 ( -57.55%)
   displ. norm   :     0.1757287 α      lambda       -0.6200034E-05
   maximum displ.:     0.1296877 α      in ANC's #1, #2, #3, ...

........................................................................
.............................. CYCLE   37 ..............................
........................................................................

 iter      E             dE          RMSdq      gap      omega  full diag
   1    -45.0041224 -0.450041E+02  0.469E-02    2.84       0.0  T
   2    -45.0041227 -0.301725E-06  0.274E-02    2.84       1.0  T
   3    -45.0041227 -0.147474E-07  0.229E-03    2.84       8.3  T
   4    -45.0041228 -0.709723E-07  0.115E-03    2.84      16.4  T
   5    -45.0041228 -0.125539E-07  0.602E-04    2.84      31.4  T
   6    -45.0041228 -0.255434E-08  0.185E-04    2.84     102.1  T
     SCC iter.                  ...        0 min,  0.013 sec
     gradient                   ...        0 min,  0.003 sec
 * total energy  :   -44.4853571 Eh     change       -0.7009399E-05 Eh
   gradient norm :     0.0004427 Eh/α   predicted    -0.3146346E-05 ( -55.11%)
   displ. norm   :     0.1457260 α      lambda       -0.3452799E-05
   maximum displ.:     0.1079603 α      in ANC's #1, #2, #3, ...

........................................................................
.............................. CYCLE   38 ..............................
........................................................................

 iter      E             dE          RMSdq      gap      omega  full diag
   1    -45.0038160 -0.450038E+02  0.400E-02    2.84       0.0  T
   2    -45.0038162 -0.171910E-06  0.235E-02    2.84       1.0  T
   3    -45.0038162 -0.154214E-07  0.183E-03    2.84      10.3  T
   4    -45.0038163 -0.481044E-07  0.922E-04    2.84      20.5  T
   5    -45.0038163 -0.606940E-08  0.495E-04    2.84      38.2  T
     SCC iter.                  ...        0 min,  0.011 sec
     gradient                   ...        0 min,  0.003 sec
 * total energy  :   -44.4853606 Eh     change       -0.3458495E-05 Eh
   gradient norm :     0.0006584 Eh/α   predicted    -0.1746355E-05 ( -49.51%)
   displ. norm   :     0.1477258 α      lambda        0.1139112E-05
   maximum displ.:     0.1094721 α      in ANC's #1, #2, #3, ...

   *** GEOMETRY OPTIMIZATION CONVERGED AFTER 38 ITERATIONS ***

------------------------------------------------------------------------
 total energy gain   :        -0.0372019 Eh      -23.3445 kcal/mol
 total RMSD          :         0.8295787 a0        0.4390 Å
 total power (kW/mol):        -2.5703564 (step) -201.8302 (real)
------------------------------------------------------------------------

 ANCopt (total)                0 d,  0 h,  0 min,  0.484 sec
 optimizer setup                ...        0 min,  0.000 sec (  0.025%)
 model hessian                  ...        0 min,  0.025 sec (  5.194%)
 ANC generation                 ...        0 min,  0.001 sec (  0.270%)
 coordinate transformation      ...        0 min,  0.000 sec (  0.072%)
 single point calculation       ...        0 min,  0.437 sec ( 90.344%)
 optimization log               ...        0 min,  0.011 sec (  2.308%)
 hessian update                 ...        0 min,  0.004 sec (  0.890%)
 rational function              ...        0 min,  0.003 sec (  0.594%)

================
 final structure:
================
28
 xtb: 6.7.1 (edcfbbe)
C           -3.76814685555902       -1.44367611207215        0.28956655326213
C           -2.72070729409844       -0.45318287063184        0.68647346950421
C           -2.92756477981543        0.85696505510342        0.76866714009920
C           -1.39652899871802       -1.05427950239910        1.00468158605037
O           -1.19057712804847       -2.24259290238704        1.05804093800395
O           -0.44829835516208       -0.13049669431122        1.22658210438878
C            0.85800992124595       -0.61143794831510        1.53045860016429
C            1.61881176646746       -1.07105880909876        0.27913824225320
N            1.93233487585842       -0.00301722993956       -0.62553051061401
C            0.93462092547428        0.67250965677255       -1.42497871272518
C            1.76598501454371        1.73252089792497       -2.16298448319171
N            2.93170508428007        1.84240367660187       -1.31542426973099
C            3.07693812592070        0.74085245374255       -0.50785267721343
O            4.03346236697894        0.47575063268767        0.18181191619198
H           -3.47205847088634       -1.94958839409250       -0.62844875576162
H           -4.72715527671361       -0.95689546315825        0.13926854396558
H           -3.86142751651772       -2.20702348226962        1.05993715084291
H           -2.14840376755778        1.53512291368906        1.06953108008562
H           -3.88945886785740        1.28706455724398        0.54451090606454
H            0.77959263247254       -1.45146043845870        2.22782002963982
H            1.37610761295914        0.22605734824952        2.00055622161815
H            1.03199838212514       -1.82981314666007       -0.24611217611752
H            2.56997772470346       -1.50148908356424        0.60115025453033
H            0.44536640164244       -0.03019009382060       -2.10515856753649
H            0.16943891268550        1.13722000322056       -0.79101929002620
H            2.03052641974493        1.39681502374892       -3.17501168696987
H            1.24651103975363        2.69090705972646       -2.23728707595725
H            3.74893910407722        2.34201189247052       -1.62256553081776
 
 Bond Distances (Angstroems)
 ---------------------------
C1-C2=1.4952         C1-H15=1.0892        C1-H16=1.0859        C1-H17=1.0885        C2-C1=1.4952         C2-C3=1.3289         
C2-C4=1.4886         C3-C2=1.3289         C3-H18=1.0759        C3-H19=1.0773        C4-C2=1.4886         C4-O5=1.2072         
C4-O6=1.3423         O5-C4=1.2072         O6-C4=1.3423         O6-C7=1.4248         C7-O6=1.4248         C7-C8=1.5349         
C7-H20=1.0946        C7-H21=1.0912        C8-C7=1.5349         C8-N9=1.4344         C8-H22=1.0936        C8-H23=1.0926        
N9-C8=1.4344         N9-C10=1.4460        N9-C13=1.3701        C10-N9=1.4460        C10-C11=1.5360       C10-H24=1.0935       
C10-H25=1.0970       C11-C10=1.5360       C11-N12=1.4455       C11-H26=1.0986       C11-H27=1.0926       N12-C11=1.4455       
N12-C13=1.3736       N12-H28=1.0059       C13-N9=1.3701        C13-N12=1.3736       C13-O14=1.2087       O14-C13=1.2087       
H15-C1=1.0892        H16-C1=1.0859        H17-C1=1.0885        H18-C3=1.0759        H19-C3=1.0773        H20-C7=1.0946        
H21-C7=1.0912        H22-C8=1.0936        H23-C8=1.0926        H24-C10=1.0935       H25-C10=1.0970       H26-C11=1.0986       
H27-C11=1.0926       H28-N12=1.0059       
 C  H  Rav=1.0900 sigma=0.0066  Rmin=1.0759  Rmax=1.0986    13
 C  C  Rav=1.4767 sigma=0.0765  Rmin=1.3289  Rmax=1.5360     5
 N  H  Rav=1.0059 sigma=0.0000  Rmin=1.0059  Rmax=1.0059     1
 N  C  Rav=1.4139 sigma=0.0346  Rmin=1.3701  Rmax=1.4460     5
 O  C  Rav=1.2957 sigma=0.0925  Rmin=1.2072  Rmax=1.4248     4
 
 selected bond angles (degree)
 --------------------
H15-C1-C2=109.94               H16-C1-C2=111.00               H16-C1-H15=109.37              H17-C1-C2=109.68               
H17-C1-H15=107.10              H17-C1-H16=109.67              C3-C2-C1=124.09                C4-C2-C1=114.35                
C4-C2-C3=121.56                H18-C3-C2=121.74               H19-C3-C2=121.31               H19-C3-H18=116.95              
O5-C4-C2=123.96                O6-C4-C2=112.70                O6-C4-O5=123.34                C7-O6-C4=116.78                
C8-C7-O6=112.44                H20-C7-O6=109.22               H20-C7-C8=108.97               H21-C7-O6=105.55               
H21-C7-C8=110.22               H21-C7-H20=110.40              N9-C8-C7=113.55                H22-C8-C7=109.47               
H22-C8-N9=109.33               H23-C8-C7=108.01               H23-C8-N9=106.79               H23-C8-H22=109.59              
C10-N9-C8=123.08               C13-N9-C8=122.19               C13-N9-C10=111.73              C11-C10-N9=102.39              
H24-C10-N9=110.63              H24-C10-C11=112.75             H25-C10-N9=111.08              H25-C10-C11=111.28             
H25-C10-H24=108.64             
 
 selected dihedral angles (degree)
 ---------------------------------
C3-C2-C1-H15=117.65           C3-C2-C1-H16=356.51           C3-C2-C1-H17=235.16           C4-C2-C1-H15=297.08           
C4-C2-C1-H16=175.94           C4-C2-C1-H17= 54.59           H18-C3-C2-C1=179.29           H18-C3-C2-C4=359.90           
H19-C3-C2-C1=359.85           H19-C3-C2-C4=180.46           O5-C4-C2-C1=353.84            O5-C4-C2-C3=173.28            
O6-C4-C2-C1=173.78            O6-C4-C2-C3=353.23            C7-O6-C4-C2=180.42            C7-O6-C4-O5=  0.37            
C8-C7-O6-C4= 78.63            H20-C7-O6-C4=317.53           H21-C7-O6-C4=198.84           N9-C8-C7-O6= 66.49            
N9-C8-C7-H20=187.73           N9-C8-C7-H21=309.03           H22-C8-C7-O6=304.01           H22-C8-C7-H20= 65.25          
H22-C8-C7-H21=186.54          H23-C8-C7-O6=184.73           H23-C8-C7-H20=305.97          H23-C8-C7-H21= 67.27          
C10-N9-C8-C7=288.93           C10-N9-C8-H22= 51.50          C10-N9-C8-H23=169.99          C13-N9-C8-C7= 87.68           
C13-N9-C8-H22=210.25          C13-N9-C8-H23=328.74          C11-C10-N9-C8=178.29          C11-C10-N9-C13= 17.57         
H24-C10-N9-C8=298.67          H24-C10-N9-C13=137.95         H25-C10-N9-C8= 59.42          H25-C10-N9-C13=258.70         
           -------------------------------------------------
          |                Final Singlepoint                |
           -------------------------------------------------

          ...................................................
          :                      SETUP                      :
          :.................................................:
          :  # basis functions                  70          :
          :  # atomic orbitals                  70          :
          :  # shells                           42          :
          :  # electrons                        78          :
          :  max. iterations                   250          :
          :  Hamiltonian                  GFN2-xTB          :
          :  restarted?                      false          :
          :  GBSA solvation                  false          :
          :  PC potential                    false          :
          :  electronic temp.          300.0000000     K    :
          :  accuracy                    1.0000000          :
          :  -> integral cutoff          0.2500000E+02      :
          :  -> integral neglect         0.1000000E-07      :
          :  -> SCF convergence          0.1000000E-05 Eh   :
          :  -> wf. convergence          0.1000000E-03 e    :
          :  Broyden damping             0.4000000          :
          :  net charge                          0          :
          :  unpaired electrons                  0          :
          ...................................................

 iter      E             dE          RMSdq      gap      omega  full diag
   1    -45.0038163 -0.450038E+02  0.131E-04    2.84       0.0  T
   2    -45.0038163 -0.522391E-10  0.878E-05    2.84     215.1  T
   3    -45.0038163 -0.368203E-10  0.620E-05    2.84     304.8  T

   *** convergence criteria satisfied after 3 iterations ***

         #    Occupation            Energy/Eh            Energy/eV
      -------------------------------------------------------------
         1        2.0000           -0.7475384             -20.3416
       ...           ...                  ...                  ...
        33        2.0000           -0.4612847             -12.5522
        34        2.0000           -0.4591611             -12.4944
        35        2.0000           -0.4245698             -11.5531
        36        2.0000           -0.4170525             -11.3486
        37        2.0000           -0.4074549             -11.0874
        38        2.0000           -0.3960491             -10.7770
        39        2.0000           -0.3803863             -10.3508 (HOMO)
        40                         -0.2761189              -7.5136 (LUMO)
        41                         -0.1796387              -4.8882
        42                         -0.1688390              -4.5943
        43                         -0.0248494              -0.6762
        44                          0.0005917               0.0161
       ...                                ...                  ...
        70                          0.6955746              18.9275
      -------------------------------------------------------------
                  HL-Gap            0.1042674 Eh            2.8373 eV
             Fermi-level           -0.3282526 Eh           -8.9322 eV

 SCC (total)                   0 d,  0 h,  0 min,  0.011 sec
 SCC setup                      ...        0 min,  0.000 sec (  4.402%)
 Dispersion                     ...        0 min,  0.000 sec (  2.297%)
 classical contributions        ...        0 min,  0.000 sec (  0.960%)
 integral evaluation            ...        0 min,  0.001 sec (  5.837%)
 iterations                     ...        0 min,  0.007 sec ( 59.922%)
 molecular gradient             ...        0 min,  0.003 sec ( 25.377%)
 printout                       ...        0 min,  0.000 sec (  0.953%)

         :::::::::::::::::::::::::::::::::::::::::::::::::::::
         ::                     SUMMARY                     ::
         :::::::::::::::::::::::::::::::::::::::::::::::::::::
         :: total energy             -44.485360605080 Eh    ::
         :: gradient norm              0.000658207218 Eh/a0 ::
         :: HOMO-LUMO gap              2.837259445810 eV    ::
         ::.................................................::
         :: SCC energy               -45.003616000937 Eh    ::
         :: -> isotropic ES            0.092555717144 Eh    ::
         :: -> anisotropic ES          0.004015713639 Eh    ::
         :: -> anisotropic XC          0.013135941276 Eh    ::
         :: -> dispersion             -0.023203090483 Eh    ::
         :: repulsion energy           0.518255395857 Eh    ::
         :: add. restraining           0.000000000000 Eh    ::
         :: total charge               0.000000000000 e     ::
         :::::::::::::::::::::::::::::::::::::::::::::::::::::

           -------------------------------------------------
          |                Property Printout                |
           -------------------------------------------------

    * Orbital Energies and Occupations

         #    Occupation            Energy/Eh            Energy/eV
      -------------------------------------------------------------
         1        2.0000           -0.7475384             -20.3416
       ...           ...                  ...                  ...
        27        2.0000           -0.4973532             -13.5337
        28        2.0000           -0.4920827             -13.3903
        29        2.0000           -0.4887827             -13.3005
        30        2.0000           -0.4756768             -12.9438
        31        2.0000           -0.4711883             -12.8217
        32        2.0000           -0.4690231             -12.7628
        33        2.0000           -0.4612847             -12.5522
        34        2.0000           -0.4591611             -12.4944
        35        2.0000           -0.4245698             -11.5531
        36        2.0000           -0.4170525             -11.3486
        37        2.0000           -0.4074549             -11.0874
        38        2.0000           -0.3960491             -10.7770
        39        2.0000           -0.3803863             -10.3508 (HOMO)
        40                         -0.2761189              -7.5136 (LUMO)
        41                         -0.1796387              -4.8882
        42                         -0.1688390              -4.5943
        43                         -0.0248494              -0.6762
        44                          0.0005917               0.0161
        45                          0.0380893               1.0365
        46                          0.0453129               1.2330
        47                          0.0756205               2.0577
        48                          0.0939964               2.5578
        49                          0.1013335               2.7574
        50                          0.1085214               2.9530
       ...                                ...                  ...
        70                          0.6955746              18.9275
      -------------------------------------------------------------
                  HL-Gap            0.1042674 Eh            2.8373 eV
             Fermi-level           -0.3282526 Eh           -8.9322 eV

     #   Z          covCN         q      C6AA      α(0)
     1   6 C        3.759    -0.111    22.675     6.789
     2   6 C        2.937    -0.008    28.222     8.713
     3   6 C        2.844    -0.083    30.067     8.986
     4   6 C        2.726     0.349    21.069     7.515
     5   8 O        0.856    -0.413    21.951     6.282
     6   8 O        1.704    -0.270    18.470     5.802
     7   6 C        3.701     0.070    19.554     6.323
     8   6 C        3.741    -0.002    20.699     6.491
     9   7 N        2.784    -0.131    23.840     7.252
    10   6 C        3.790     0.003    20.541     6.455
    11   6 C        3.785     0.008    20.462     6.443
    12   7 N        2.736    -0.218    25.741     7.535
    13   6 C        2.759     0.325    21.472     7.588
    14   8 O        0.857    -0.468    23.082     6.441
    15   1 H        0.925     0.062     2.171     2.304
    16   1 H        0.925     0.052     2.298     2.371
    17   1 H        0.925     0.070     2.088     2.260
    18   1 H        0.926     0.061     2.193     2.316
    19   1 H        0.926     0.057     2.237     2.339
    20   1 H        0.924     0.065     2.146     2.291
    21   1 H        0.924     0.068     2.104     2.268
    22   1 H        0.924     0.064     2.152     2.294
    23   1 H        0.924     0.083     1.951     2.184
    24   1 H        0.924     0.047     2.361     2.403
    25   1 H        0.924     0.053     2.287     2.365
    26   1 H        0.923     0.040     2.452     2.449
    27   1 H        0.924     0.053     2.287     2.365
    28   1 H        0.860     0.176     1.239     1.744

 Mol. C6AA /au·bohr⁶  :       7527.805661
 Mol. C8AA /au·bohr⁸  :     167266.783936
 Mol. α(0) /au        :        130.567423


Wiberg/Mayer (AO) data.
largest (>0.10) Wiberg bond orders for each atom

 ---------------------------------------------------------------------------
     #   Z sym  total        # sym  WBO       # sym  WBO       # sym  WBO
 ---------------------------------------------------------------------------
     1   6 C    3.993 --     2 C    1.030    16 H    0.985    17 H    0.966
                            15 H    0.966
     2   6 C    3.987 --     3 C    1.877     1 C    1.030     4 C    0.994
     3   6 C    3.988 --     2 C    1.877    19 H    0.974    18 H    0.973
     4   6 C    3.916 --     5 O    1.728     6 O    1.115     2 C    0.994
     5   8 O    2.033 --     4 C    1.728     6 O    0.169
     6   8 O    2.304 --     4 C    1.115     7 C    0.946     5 O    0.169
     7   6 C    3.928 --     8 C    0.982    21 H    0.970    20 H    0.965
                             6 O    0.946
     8   6 C    3.974 --     9 N    1.004     7 C    0.982    22 H    0.967
                            23 H    0.962
     9   7 N    3.408 --    13 C    1.142     8 C    1.004    10 C    0.994
                            14 O    0.150
    10   6 C    3.979 --    11 C    0.997     9 N    0.994    24 H    0.973
                            25 H    0.966
    11   6 C    3.979 --    12 N    1.006    10 C    0.997    27 H    0.973
                            26 H    0.970
    12   7 N    3.322 --    13 C    1.138    11 C    1.006    28 H    0.941
                            14 O    0.145
    13   6 C    3.960 --    14 O    1.625     9 N    1.142    12 N    1.138
    14   8 O    1.972 --    13 C    1.625     9 N    0.150    12 N    0.145
    15   1 H    0.996 --     1 C    0.966
    16   1 H    0.997 --     1 C    0.985
    17   1 H    0.995 --     1 C    0.966
    18   1 H    0.996 --     3 C    0.973
    19   1 H    0.997 --     3 C    0.974
    20   1 H    0.995 --     7 C    0.965
    21   1 H    0.995 --     7 C    0.970
    22   1 H    0.996 --     8 C    0.967
    23   1 H    0.993 --     8 C    0.962
    24   1 H    0.998 --    10 C    0.973
    25   1 H    0.997 --    10 C    0.966
    26   1 H    0.998 --    11 C    0.970
    27   1 H    0.997 --    11 C    0.973
    28   1 H    0.969 --    12 N    0.941
 ---------------------------------------------------------------------------

Topologies differ in total number of bonds
Writing topology from bond orders to xtbtopo.mol

molecular dipole:
                 x           y           z       tot (Debye)
 q only:       -1.358       0.885      -1.005
   full:       -1.434       1.045      -1.172       5.406
molecular quadrupole (traceless):
                xx          xy          yy          xz          yz          zz
 q only:       -8.567      -1.248       1.151      -4.540      -2.508       7.416
  q+dip:      -10.947      -0.806       1.639      -7.587      -2.136       9.307
   full:      -10.899      -0.706       0.248      -7.908      -2.555      10.651

           -------------------------------------------------
          |                Geometry Summary                 |
           -------------------------------------------------

      molecular mass/u    :      198.2194148
   center of mass at/Å    :        0.3580543      -0.0578882       0.0739089
  moments of inertia/u·Å² :        0.3593265E+03   0.1376872E+04   0.1566410E+04
rotational constants/cm⁻¹ :        0.4691452E-01   0.1224343E-01   0.1076196E-01

 * 26 selected distances

     #   Z          #   Z                                           value/Å
     2   6 C        3   6 C                                       1.3289220
     4   6 C        5   8 O                                       1.2072085
     4   6 C        6   8 O                                       1.3422951
     6   8 O        7   6 C                                       1.4248113
     7   6 C        8   6 C                                       1.5348856
     8   6 C        9   7 N                                       1.4343763
     9   7 N       10   6 C                                       1.4459902
    10   6 C       11   6 C                                       1.5360479 (max)
    11   6 C       12   7 N                                       1.4454536
     9   7 N       13   6 C                                       1.3701486
    12   7 N       13   6 C                                       1.3735647
    13   6 C       14   8 O                                       1.2086584
     1   6 C       15   1 H                                       1.0892052
     1   6 C       16   1 H                                       1.0859292
     1   6 C       17   1 H                                       1.0885181
     3   6 C       18   1 H                                       1.0758761
     3   6 C       19   1 H                                       1.0772521
     7   6 C       20   1 H                                       1.0945777
     7   6 C       21   1 H                                       1.0912450
     8   6 C       22   1 H                                       1.0935933
     8   6 C       23   1 H                                       1.0925561
    10   6 C       24   1 H                                       1.0935272
    10   6 C       25   1 H                                       1.0969795
    11   6 C       26   1 H                                       1.0985808
    11   6 C       27   1 H                                       1.0926474
    12   7 N       28   1 H                                       1.0058905 (min)

 * 5 distinct bonds (by element types)

   Z      Z             #   av. dist./Å        max./Å        min./Å
   1 H    6 C          13     1.0900375     1.0985808     1.0758761
   6 C    6 C           3     1.4666185     1.5360479     1.3289220
   1 H    7 N           1     1.0058905     1.0058905     1.0058905
   6 C    7 N           5     1.4139067     1.4459902     1.3701486
   6 C    8 O           4     1.2957433     1.4248113     1.2072085


optimized geometry written to: xtbopt.xyz


           -------------------------------------------------
          | TOTAL ENERGY              -44.485360605080 Eh   |
          | GRADIENT NORM               0.000658207218 Eh/α |
          | HOMO-LUMO GAP               2.837259445810 eV   |
           -------------------------------------------------

------------------------------------------------------------------------
 * finished run on 2025/12/01 at 14:22:43.859     
------------------------------------------------------------------------
 total:
 * wall-time:     0 d,  0 h,  0 min,  0.528 sec
 *  cpu-time:     0 d,  0 h,  0 min, 12.077 sec
 * ratio c/w:    22.882 speedup
 SCF:
 * wall-time:     0 d,  0 h,  0 min,  0.023 sec
 *  cpu-time:     0 d,  0 h,  0 min,  0.517 sec
 * ratio c/w:    22.748 speedup
 ANC optimizer:
 * wall-time:     0 d,  0 h,  0 min,  0.496 sec
 *  cpu-time:     0 d,  0 h,  0 min, 11.387 sec
 * ratio c/w:    22.946 speedup

normal termination of xtb
