      -----------------------------------------------------------      
     |                   =====================                   |     
     |                           x T B                           |     
     |                   =====================                   |     
     |                         S. Grimme                         |     
     |          Mulliken Center for Theoretical Chemistry        |     
     |                    University of Bonn                     |     
      -----------------------------------------------------------      

   * xtb version 6.7.1 (edcfbbe) compiled by 'albert@albert-system' on 2024-07-22

   xtb is free software: you can redistribute it and/or modify it under
   the terms of the GNU Lesser General Public License as published by
   the Free Software Foundation, either version 3 of the License, or
   (at your option) any later version.
   
   xtb is distributed in the hope that it will be useful,
   but WITHOUT ANY WARRANTY; without even the implied warranty of
   MERCHANTABILITY or FITNESS FOR A PARTICULAR PURPOSE.  See the
   GNU Lesser General Public License for more details.
   
   Cite this work as:
   * C. Bannwarth, E. Caldeweyher, S. Ehlert, A. Hansen, P. Pracht,
     J. Seibert, S. Spicher, S. Grimme, WIREs Comput. Mol. Sci., 2020, 11,
     e01493. DOI: 10.1002/wcms.1493
   
   for GFN2-xTB:
   * C. Bannwarth, S. Ehlert and S. Grimme., J. Chem. Theory Comput., 2019,
     15, 1652-1671. DOI: 10.1021/acs.jctc.8b01176
   for GFN1-xTB:
   * S. Grimme, C. Bannwarth, P. Shushkov, J. Chem. Theory Comput., 2017,
     13, 1989-2009. DOI: 10.1021/acs.jctc.7b00118
   for GFN0-xTB:
   * P. Pracht, E. Caldeweyher, S. Ehlert, S. Grimme, ChemRxiv, 2019, preprint.
     DOI: 10.26434/chemrxiv.8326202.v1
   for GFN-FF:
   * S. Spicher and S. Grimme, Angew. Chem. Int. Ed., 2020, 59, 15665-15673.
     DOI: 10.1002/anie.202004239
   
   for ALPB and GBSA implicit solvation:
   * S. Ehlert, M. Stahn, S. Spicher, S. Grimme, J. Chem. Theory Comput.,
     2021, 17, 4250-4261. DOI: 10.1021/acs.jctc.1c00471
   
   for ddCOSMO and CPCM-X implicit solvation:
   * M. Stahn, S. Ehlert, S. Grimme, J. Phys. Chem. A,
     2023, XX, XXXX-XXXX. DOI: 10.1021/acs.jpca.3c04382
   
   for DFT-D4:
   * E. Caldeweyher, C. Bannwarth and S. Grimme, J. Chem. Phys., 2017,
     147, 034112. DOI: 10.1063/1.4993215
   * E. Caldeweyher, S. Ehlert, A. Hansen, H. Neugebauer, S. Spicher,
     C. Bannwarth and S. Grimme, J. Chem. Phys., 2019, 150, 154122.
     DOI: 10.1063/1.5090222
   * E. Caldeweyher, J.-M. Mewes, S. Ehlert and S. Grimme, Phys. Chem. Chem. Phys.
     2020, 22, 8499-8512. DOI: 10.1039/D0CP00502A
   
   for sTDA-xTB:
   * S. Grimme and C. Bannwarth, J. Chem. Phys., 2016, 145, 054103.
     DOI: 10.1063/1.4959605
   
   in the mass-spec context:
   * V. Asgeirsson, C. Bauer and S. Grimme, Chem. Sci., 2017, 8, 4879.
     DOI: 10.1039/c7sc00601b
   * J. Koopman and S. Grimme, ACS Omega 2019, 4, 12, 15120-15133.
     DOI: 10.1021/acsomega.9b02011
   
   for metadynamics refer to:
   * S. Grimme, J. Chem. Theory Comput., 2019, 155, 2847-2862
     DOI: 10.1021/acs.jctc.9b00143
   
   for SPH calculations refer to:
   * S. Spicher and S. Grimme, J. Chem. Theory Comput., 2021, 17, 1701-1714
     DOI: 10.1021/acs.jctc.0c01306
   
   for ONIOM refer to:
   * C. Plett, A. Katbashev, S. Ehlert, S. Grimme, M. Bursch,
     Phys. Chem. Chem. Phys., 2023, 25, 17860-17868. DOI: 10.1039/D3CP02178E
   
   for DIPRO refer to:
   * J. Kohn, N. Gildemeister, S. Grimme, D. Fazzi, A. Hansen,
     J. Chem. Phys., 2023, just accepted.
   
   for PTB refer to:
   * S. Grimme, M. Mueller, A. Hansen, J. Chem. Phys., 2023, 158, 124111.
     DOI: 10.1063/5.0137838
   
   with help from (in alphabetical order)
   P. Atkinson, C. Bannwarth, F. Bohle, G. Brandenburg, E. Caldeweyher
   M. Checinski, S. Dohm, S. Ehlert, S. Ehrlich, I. Gerasimov, C. Hölzer
   A. Katbashev, J. Kohn, J. Koopman, C. Lavigne, S. Lehtola, F. März, M. Müller,
   F. Musil, H. Neugebauer, J. Pisarek, C. Plett, P. Pracht, F. Pultar,
   J. Seibert, P. Shushkov, S. Spicher, M. Stahn, M. Steiner, T. Strunk,
   J. Stückrath, T. Rose, and J. Unsleber
   
 * started run on 2025/12/01 at 14:22:46.440     
   ID    Z sym.   atoms
    1    8 O      1, 13, 15, 23
    2    6 C      2, 3, 5-12, 14, 16-22, 24, 25
    3   16 S      4
    4    1 H      26-47

           -------------------------------------------------
          |                Calculation Setup                |
           -------------------------------------------------

          program call               : xtb pipeline_data/3_conformer_xyz/acrylates/rdkit/PUUAYUBAIZMECZ-JLHYYAGUSA-N_conf132.xyz --opt --gfn 2-xTB --iterations 250
          coordinate file            : pipeline_data/3_conformer_xyz/acrylates/rdkit/PUUAYUBAIZMECZ-JLHYYAGUSA-N_conf132.xyz
          omp threads                :                    24

########################################################################
[WARNING] Please study the warnings concerning your input carefully
-1- readin_getIntValue: could not parse '2-xTB'
########################################################################

           -------------------------------------------------
          |                 G F N 2 - x T B                 |
           -------------------------------------------------

        Reference                      10.1021/acs.jctc.8b01176
      * Hamiltonian:
        H0-scaling (s, p, d)           1.850000    2.230000    2.230000
        zeta-weighting                 0.500000
      * Dispersion:
        s8                             2.700000
        a1                             0.520000
        a2                             5.000000
        s9                             5.000000
      * Repulsion:
        kExp                           1.500000    1.000000
        rExp                           1.000000
      * Coulomb:
        alpha                          2.000000
        third order                    shell-resolved
        anisotropic                    true
        a3                             3.000000
        a5                             4.000000
        cn-shift                       1.200000
        cn-exp                         4.000000
        max-rad                        5.000000

q/qsh data taken from xtbrestart
CAMM data taken from xtbrestart

          ...................................................
          :                      SETUP                      :
          :.................................................:
          :  # basis functions                 128          :
          :  # atomic orbitals                 127          :
          :  # shells                           73          :
          :  # electrons                       132          :
          :  max. iterations                   250          :
          :  Hamiltonian                  GFN2-xTB          :
          :  restarted?                       true          :
          :  GBSA solvation                  false          :
          :  PC potential                    false          :
          :  electronic temp.          300.0000000     K    :
          :  accuracy                    1.0000000          :
          :  -> integral cutoff          0.2500000E+02      :
          :  -> integral neglect         0.1000000E-07      :
          :  -> SCF convergence          0.1000000E-05 Eh   :
          :  -> wf. convergence          0.1000000E-03 e    :
          :  Broyden damping             0.4000000          :
          :  net charge                          0          :
          :  unpaired electrons                  0          :
          ...................................................

 iter      E             dE          RMSdq      gap      omega  full diag
   1    -74.4349293 -0.744349E+02  0.535E+00    1.67       0.0  T
   2    -74.4512749 -0.163456E-01  0.311E+00    1.61       1.0  T
   3    -74.4120117  0.392633E-01  0.102E+00    1.39       1.0  T
   4    -74.4604998 -0.484881E-01  0.315E-01    1.21       1.0  T
   5    -74.4612617 -0.761912E-03  0.154E-01    1.26       1.0  T
   6    -74.4615908 -0.329176E-03  0.503E-02    1.29       1.0  T
   7    -74.4616218 -0.309536E-04  0.243E-02    1.29       1.0  T
   8    -74.4616260 -0.423267E-05  0.107E-02    1.29       1.4  T
   9    -74.4616288 -0.273331E-05  0.340E-03    1.29       4.3  T
  10    -74.4616289 -0.151797E-06  0.150E-03    1.29       9.7  T
  11    -74.4616290 -0.403993E-07  0.694E-04    1.29      21.0  T
  12    -74.4616290 -0.582230E-08  0.342E-04    1.29      42.6  T

   *** convergence criteria satisfied after 12 iterations ***

         #    Occupation            Energy/Eh            Energy/eV
      -------------------------------------------------------------
         1        2.0000           -0.7254072             -19.7393
       ...           ...                  ...                  ...
        60        2.0000           -0.4242645             -11.5448
        61        2.0000           -0.4175586             -11.3623
        62        2.0000           -0.4124499             -11.2233
        63        2.0000           -0.4114679             -11.1966
        64        2.0000           -0.4059210             -11.0457
        65        2.0000           -0.3864898             -10.5169
        66        2.0000           -0.3588858              -9.7658 (HOMO)
        67                         -0.3114674              -8.4755 (LUMO)
        68                         -0.2486833              -6.7670
        69                         -0.2441600              -6.6439
        70                         -0.2325227              -6.3273
        71                         -0.2289554              -6.2302
       ...                                ...                  ...
       127                          0.7169832              19.5101
      -------------------------------------------------------------
                  HL-Gap            0.0474184 Eh            1.2903 eV
             Fermi-level           -0.3351766 Eh           -9.1206 eV

 SCC (total)                   0 d,  0 h,  0 min,  0.079 sec
 SCC setup                      ...        0 min,  0.000 sec (  0.322%)
 Dispersion                     ...        0 min,  0.001 sec (  0.822%)
 classical contributions        ...        0 min,  0.000 sec (  0.092%)
 integral evaluation            ...        0 min,  0.006 sec (  7.774%)
 iterations                     ...        0 min,  0.065 sec ( 81.554%)
 molecular gradient             ...        0 min,  0.007 sec (  9.013%)
 printout                       ...        0 min,  0.000 sec (  0.379%)

         :::::::::::::::::::::::::::::::::::::::::::::::::::::
         ::                     SUMMARY                     ::
         :::::::::::::::::::::::::::::::::::::::::::::::::::::
         :: total energy             -73.443396386822 Eh    ::
         :: gradient norm              0.186312709297 Eh/a0 ::
         :: HOMO-LUMO gap              1.290320505776 eV    ::
         ::.................................................::
         :: SCC energy               -74.461344234516 Eh    ::
         :: -> isotropic ES            0.092351505108 Eh    ::
         :: -> anisotropic ES          0.005322865739 Eh    ::
         :: -> anisotropic XC          0.024998523062 Eh    ::
         :: -> dispersion             -0.050832924674 Eh    ::
         :: repulsion energy           1.017947847695 Eh    ::
         :: add. restraining           0.000000000000 Eh    ::
         :: total charge               0.000000000000 e     ::
         :::::::::::::::::::::::::::::::::::::::::::::::::::::

      ----------------------------------------------------------- 
     |                   =====================                   |
     |                        A N C O P T                        |
     |                   =====================                   |
     |               Approximate Normal Coordinate               |
     |                Rational Function Optimizer                |
      ----------------------------------------------------------- 
      ----------------------------------------------------------- 
     |                   =====================                   |
     |                        A N C O P T                        |
     |                   =====================                   |
     |               Approximate Normal Coordinate               |
     |                Rational Function Optimizer                |
      ----------------------------------------------------------- 

          ...................................................
          :                      SETUP                      :
          :.................................................:
          :   optimization level            normal          :
          :   max. optcycles                   200          :
          :   ANC micro-cycles                  20          :
          :   degrees of freedom               135          :
          :.................................................:
          :   RF solver                   davidson          :
          :   write xtbopt.log                true          :
          :   linear?                        false          :
          :   energy convergence         0.5000000E-05 Eh   :
          :   grad. convergence          0.1000000E-02 Eh/α :
          :   maxmium RF displ.          1.0000000          :
          :   Hlow (freq-cutoff)         0.1000000E-01      :
          :   Hmax (freq-cutoff)         5.0000000          :
          :   S6 in model hess.         20.0000000          :
          ...................................................

generating ANC from exact Hessian ...
Using Lindh-Hessian (1995)
 Shifting diagonal of input Hessian by   9.915557663236728E-003
 Lowest  eigenvalues of input Hessian
    0.000000    0.000000    0.000000    0.000000    0.000000    0.000000
    0.010000    0.010124    0.010271    0.010670    0.010855    0.011226
    0.011882    0.012114    0.012561    0.012926    0.013799    0.015290
 Highest eigenvalues
    1.978393    2.008939    2.025317    2.057581    2.081778    2.183045
 

........................................................................
.............................. CYCLE    1 ..............................
........................................................................

 iter      E             dE          RMSdq      gap      omega  full diag
   1    -74.4616290 -0.744616E+02  0.130E-04    1.29       0.0  T
   2    -74.4616290 -0.115875E-09  0.824E-05    1.29     177.0  T
   3    -74.4616290 -0.676295E-10  0.591E-05    1.29     246.8  T
     SCC iter.                  ...        0 min,  0.017 sec
     gradient                   ...        0 min,  0.006 sec
 * total energy  :   -73.4433964 Eh     change       -0.9398207E-09 Eh
   gradient norm :     0.1863124 Eh/α   predicted     0.0000000E+00 (-100.00%)
   displ. norm   :     0.3450632 α      lambda       -0.3542183E-01
   maximum displ.:     0.1210775 α      in ANC's #46, #29, #24, ...

........................................................................
.............................. CYCLE    2 ..............................
........................................................................

 iter      E             dE          RMSdq      gap      omega  full diag
   1    -74.4747343 -0.744747E+02  0.267E-01    1.39       0.0  T
   2    -74.4753932 -0.658973E-03  0.163E-01    1.38       1.0  T
   3    -74.4754158 -0.225282E-04  0.765E-02    1.37       1.0  T
   4    -74.4754448 -0.290712E-04  0.249E-02    1.38       1.0  T
   5    -74.4754657 -0.209018E-04  0.796E-03    1.38       1.8  T
   6    -74.4754666 -0.901114E-06  0.331E-03    1.38       4.4  T
   7    -74.4754667 -0.678896E-07  0.175E-03    1.38       8.3  T
   8    -74.4754667 -0.204806E-07  0.874E-04    1.38      16.7  T
   9    -74.4754667 -0.132383E-07  0.335E-04    1.38      43.6  T
     SCC iter.                  ...        0 min,  0.025 sec
     gradient                   ...        0 min,  0.006 sec
 * total energy  :   -73.4681852 Eh     change       -0.2478879E-01 Eh
   gradient norm :     0.0784773 Eh/α   predicted    -0.1983550E-01 ( -19.98%)
   displ. norm   :     0.3227428 α      lambda       -0.1190906E-01
   maximum displ.:     0.0981379 α      in ANC's #46, #29, #24, ...

........................................................................
.............................. CYCLE    3 ..............................
........................................................................

 iter      E             dE          RMSdq      gap      omega  full diag
   1    -74.4833861 -0.744834E+02  0.189E-01    1.46       0.0  T
   2    -74.4838512 -0.465067E-03  0.114E-01    1.45       1.0  T
   3    -74.4838800 -0.288274E-04  0.585E-02    1.43       1.0  T
   4    -74.4838847 -0.465185E-05  0.206E-02    1.44       1.0  T
   5    -74.4839004 -0.157328E-04  0.670E-03    1.44       2.2  T
   6    -74.4839016 -0.119572E-05  0.267E-03    1.44       5.5  T
   7    -74.4839017 -0.124494E-06  0.159E-03    1.44       9.2  T
   8    -74.4839017 -0.410871E-07  0.730E-04    1.44      20.0  T
   9    -74.4839018 -0.525321E-08  0.315E-04    1.44      46.3  T
     SCC iter.                  ...        0 min,  0.024 sec
     gradient                   ...        0 min,  0.006 sec
 * total energy  :   -73.4750952 Eh     change       -0.6910009E-02 Eh
   gradient norm :     0.0209688 Eh/α   predicted    -0.6574772E-02 (  -4.85%)
   displ. norm   :     0.2771440 α      lambda       -0.2010867E-02
   maximum displ.:     0.0954011 α      in ANC's #8, #12, #15, ...

........................................................................
.............................. CYCLE    4 ..............................
........................................................................

 iter      E             dE          RMSdq      gap      omega  full diag
   1    -74.4817063 -0.744817E+02  0.880E-02    1.43       0.0  T
   2    -74.4817183 -0.119150E-04  0.528E-02    1.45       1.0  T
   3    -74.4817072  0.110491E-04  0.194E-02    1.44       1.0  T
   4    -74.4817214 -0.141944E-04  0.504E-03    1.45       2.9  T
   5    -74.4817219 -0.511933E-06  0.270E-03    1.44       5.4  T
   6    -74.4817221 -0.171972E-06  0.108E-03    1.44      13.5  T
   7    -74.4817221 -0.879919E-08  0.603E-04    1.44      24.2  T
   8    -74.4817221 -0.462484E-08  0.255E-04    1.44      57.3  T
     SCC iter.                  ...        0 min,  0.022 sec
     gradient                   ...        0 min,  0.006 sec
 * total energy  :   -73.4766172 Eh     change       -0.1521978E-02 Eh
   gradient norm :     0.0131493 Eh/α   predicted    -0.1082821E-02 ( -28.85%)
   displ. norm   :     0.4249026 α      lambda       -0.1762547E-02
   maximum displ.:     0.1891962 α      in ANC's #8, #10, #12, ...

........................................................................
.............................. CYCLE    5 ..............................
........................................................................

 iter      E             dE          RMSdq      gap      omega  full diag
   1    -74.4808577 -0.744809E+02  0.128E-01    1.44       0.0  T
   2    -74.4808658 -0.814274E-05  0.759E-02    1.45       1.0  T
   3    -74.4808486  0.172092E-04  0.219E-02    1.45       1.0  T
   4    -74.4808691 -0.205124E-04  0.504E-03    1.45       2.9  T
   5    -74.4808694 -0.252137E-06  0.290E-03    1.45       5.0  T
   6    -74.4808696 -0.254403E-06  0.118E-03    1.45      12.4  T
   7    -74.4808697 -0.150101E-07  0.649E-04    1.45      22.5  T
   8    -74.4808697 -0.661831E-08  0.240E-04    1.45      60.7  T
     SCC iter.                  ...        0 min,  0.022 sec
     gradient                   ...        0 min,  0.006 sec
 * total energy  :   -73.4778737 Eh     change       -0.1256522E-02 Eh
   gradient norm :     0.0101975 Eh/α   predicted    -0.1040519E-02 ( -17.19%)
   displ. norm   :     0.4125408 α      lambda       -0.1034996E-02
   maximum displ.:     0.2249792 α      in ANC's #8, #10, #7, ...

........................................................................
.............................. CYCLE    6 ..............................
........................................................................

 iter      E             dE          RMSdq      gap      omega  full diag
   1    -74.4821161 -0.744821E+02  0.126E-01    1.45       0.0  T
   2    -74.4821196 -0.348793E-05  0.738E-02    1.46       1.0  T
   3    -74.4821047  0.148756E-04  0.194E-02    1.46       1.0  T
   4    -74.4821217 -0.170029E-04  0.478E-03    1.46       3.0  T
   5    -74.4821219 -0.237902E-06  0.219E-03    1.46       6.6  T
   6    -74.4821220 -0.111035E-06  0.853E-04    1.46      17.1  T
   7    -74.4821220 -0.612356E-08  0.445E-04    1.46      32.8  T
     SCC iter.                  ...        0 min,  0.019 sec
     gradient                   ...        0 min,  0.006 sec
 * total energy  :   -73.4786769 Eh     change       -0.8032064E-03 Eh
   gradient norm :     0.0120128 Eh/α   predicted    -0.6055726E-03 ( -24.61%)
   displ. norm   :     0.4865099 α      lambda       -0.1040102E-02
   maximum displ.:     0.2947091 α      in ANC's #8, #10, #7, ...

........................................................................
.............................. CYCLE    7 ..............................
........................................................................

 iter      E             dE          RMSdq      gap      omega  full diag
   1    -74.4849372 -0.744849E+02  0.152E-01    1.46       0.0  T
   2    -74.4849428 -0.559325E-05  0.889E-02    1.46       1.0  T
   3    -74.4849214  0.213894E-04  0.226E-02    1.47       1.0  T
   4    -74.4849455 -0.241548E-04  0.635E-03    1.46       2.3  T
   5    -74.4849461 -0.602450E-06  0.255E-03    1.46       5.7  T
   6    -74.4849463 -0.132826E-06  0.951E-04    1.46      15.3  T
   7    -74.4849463 -0.957240E-08  0.523E-04    1.46      27.9  T
     SCC iter.                  ...        0 min,  0.019 sec
     gradient                   ...        0 min,  0.006 sec
 * total energy  :   -73.4795064 Eh     change       -0.8295430E-03 Eh
   gradient norm :     0.0126087 Eh/α   predicted    -0.6431623E-03 ( -22.47%)
   displ. norm   :     0.4893110 α      lambda       -0.9534181E-03
   maximum displ.:     0.3028007 α      in ANC's #8, #10, #7, ...

........................................................................
.............................. CYCLE    8 ..............................
........................................................................

 iter      E             dE          RMSdq      gap      omega  full diag
   1    -74.4878006 -0.744878E+02  0.157E-01    1.47       0.0  T
   2    -74.4878084 -0.785729E-05  0.914E-02    1.47       1.0  T
   3    -74.4877886  0.198706E-04  0.219E-02    1.48       1.0  T
   4    -74.4878110 -0.224262E-04  0.726E-03    1.47       2.0  T
   5    -74.4878120 -0.964335E-06  0.305E-03    1.47       4.8  T
   6    -74.4878122 -0.214837E-06  0.999E-04    1.47      14.6  T
   7    -74.4878122 -0.115877E-07  0.560E-04    1.47      26.0  T
     SCC iter.                  ...        0 min,  0.019 sec
     gradient                   ...        0 min,  0.006 sec
 * total energy  :   -73.4802748 Eh     change       -0.7683667E-03 Eh
   gradient norm :     0.0109441 Eh/α   predicted    -0.5908595E-03 ( -23.10%)
   displ. norm   :     0.5092278 α      lambda       -0.8227916E-03
   maximum displ.:     0.3231872 α      in ANC's #8, #10, #7, ...

........................................................................
.............................. CYCLE    9 ..............................
........................................................................

 iter      E             dE          RMSdq      gap      omega  full diag
   1    -74.4890021 -0.744890E+02  0.168E-01    1.47       0.0  T
   2    -74.4890105 -0.847631E-05  0.972E-02    1.47       1.0  T
   3    -74.4889980  0.125077E-04  0.185E-02    1.48       1.0  T
   4    -74.4890122 -0.141744E-04  0.769E-03    1.47       1.9  T
   5    -74.4890135 -0.125334E-05  0.323E-03    1.47       4.5  T
   6    -74.4890137 -0.265311E-06  0.102E-03    1.47      14.3  T
   7    -74.4890137 -0.129456E-07  0.550E-04    1.47      26.5  T
   8    -74.4890137 -0.409831E-08  0.253E-04    1.47      57.6  T
     SCC iter.                  ...        0 min,  0.021 sec
     gradient                   ...        0 min,  0.006 sec
 * total energy  :   -73.4809160 Eh     change       -0.6412026E-03 Eh
   gradient norm :     0.0079107 Eh/α   predicted    -0.5180786E-03 ( -19.20%)
   displ. norm   :     0.4710116 α      lambda       -0.5705728E-03
   maximum displ.:     0.3088014 α      in ANC's #8, #3, #10, ...

........................................................................
.............................. CYCLE   10 ..............................
........................................................................

 iter      E             dE          RMSdq      gap      omega  full diag
   1    -74.4897249 -0.744897E+02  0.156E-01    1.48       0.0  T
   2    -74.4897303 -0.544829E-05  0.895E-02    1.48       1.0  T
   3    -74.4897234  0.689180E-05  0.152E-02    1.49       1.0  T
   4    -74.4897312 -0.780077E-05  0.714E-03    1.48       2.0  T
   5    -74.4897323 -0.102525E-05  0.290E-03    1.48       5.0  T
   6    -74.4897325 -0.244611E-06  0.801E-04    1.48      18.2  T
   7    -74.4897325 -0.475207E-08  0.435E-04    1.48      33.5  T
     SCC iter.                  ...        0 min,  0.019 sec
     gradient                   ...        0 min,  0.006 sec
 * total energy  :   -73.4813485 Eh     change       -0.4324903E-03 Eh
   gradient norm :     0.0050997 Eh/α   predicted    -0.3485834E-03 ( -19.40%)
   displ. norm   :     0.4257103 α      lambda       -0.3726352E-03
   maximum displ.:     0.2780762 α      in ANC's #8, #3, #6, ...

........................................................................
.............................. CYCLE   11 ..............................
........................................................................

 iter      E             dE          RMSdq      gap      omega  full diag
   1    -74.4891204 -0.744891E+02  0.142E-01    1.48       0.0  T
   2    -74.4891261 -0.567006E-05  0.815E-02    1.49       1.0  T
   3    -74.4891252  0.866497E-06  0.101E-02    1.49       1.4  T
   4    -74.4891265 -0.126216E-05  0.540E-03    1.49       2.7  T
   5    -74.4891273 -0.794591E-06  0.189E-03    1.49       7.7  T
   6    -74.4891274 -0.101310E-06  0.886E-04    1.49      16.5  T
   7    -74.4891274 -0.185114E-07  0.422E-04    1.49      34.5  T
     SCC iter.                  ...        0 min,  0.019 sec
     gradient                   ...        0 min,  0.007 sec
 * total energy  :   -73.4816259 Eh     change       -0.2774141E-03 Eh
   gradient norm :     0.0066247 Eh/α   predicted    -0.2200891E-03 ( -20.66%)
   displ. norm   :     0.4010607 α      lambda       -0.3525799E-03
   maximum displ.:     0.2568282 α      in ANC's #8, #3, #6, ...

........................................................................
.............................. CYCLE   12 ..............................
........................................................................

 iter      E             dE          RMSdq      gap      omega  full diag
   1    -74.4931864 -0.744932E+02  0.124E-01    1.52       0.0  T
   2    -74.4931984 -0.120196E-04  0.708E-02    1.51       1.0  T
   3    -74.4931877  0.106942E-04  0.184E-02    1.51       1.0  T
   4    -74.4931990 -0.112900E-04  0.810E-03    1.51       1.8  T
   5    -74.4932007 -0.173010E-05  0.306E-03    1.51       4.8  T
   6    -74.4932009 -0.175361E-06  0.922E-04    1.51      15.8  T
   7    -74.4932009 -0.162477E-07  0.387E-04    1.51      37.7  T
     SCC iter.                  ...        0 min,  0.019 sec
     gradient                   ...        0 min,  0.009 sec
 * total energy  :   -73.4818024 Eh     change       -0.1764521E-03 Eh
   gradient norm :     0.0136799 Eh/α   predicted    -0.2046470E-03 (  15.98%)
   displ. norm   :     0.3692941 α      lambda       -0.2986106E-03
   maximum displ.:     0.2278151 α      in ANC's #8, #3, #6, ...

........................................................................
.............................. CYCLE   13 ..............................
........................................................................

 iter      E             dE          RMSdq      gap      omega  full diag
   1    -74.4891547 -0.744892E+02  0.125E-01    1.50       0.0  T
   2    -74.4891666 -0.119620E-04  0.720E-02    1.51       1.0  T
   3    -74.4891626  0.408220E-05  0.141E-02    1.52       1.0  T
   4    -74.4891674 -0.488715E-05  0.618E-03    1.52       2.4  T
   5    -74.4891682 -0.772391E-06  0.282E-03    1.52       5.2  T
   6    -74.4891684 -0.170274E-06  0.105E-03    1.52      13.9  T
   7    -74.4891684 -0.232825E-07  0.458E-04    1.52      31.8  T
   8    -74.4891684 -0.184325E-08  0.248E-04    1.52      58.8  T
     SCC iter.                  ...        0 min,  0.025 sec
     gradient                   ...        0 min,  0.006 sec
 * total energy  :   -73.4819725 Eh     change       -0.1701291E-03 Eh
   gradient norm :     0.0057049 Eh/α   predicted    -0.1696695E-03 (  -0.27%)
   displ. norm   :     0.1623264 α      lambda       -0.1607525E-03
   maximum displ.:     0.0783159 α      in ANC's #6, #1, #8, ...

........................................................................
.............................. CYCLE   14 ..............................
........................................................................

 iter      E             dE          RMSdq      gap      omega  full diag
   1    -74.4924045 -0.744924E+02  0.487E-02    1.52       0.0  T
   2    -74.4924055 -0.100940E-05  0.279E-02    1.52       1.0  T
   3    -74.4924050  0.567220E-06  0.508E-03    1.52       2.9  T
   4    -74.4924056 -0.654372E-06  0.229E-03    1.52       6.4  T
   5    -74.4924057 -0.100934E-06  0.101E-03    1.52      14.4  T
   6    -74.4924057 -0.271981E-07  0.267E-04    1.52      54.7  T
   7    -74.4924057 -0.164883E-08  0.122E-04    1.52     119.9  T
     SCC iter.                  ...        0 min,  0.020 sec
     gradient                   ...        0 min,  0.007 sec
 * total energy  :   -73.4820841 Eh     change       -0.1116214E-03 Eh
   gradient norm :     0.0059357 Eh/α   predicted    -0.8249729E-04 ( -26.09%)
   displ. norm   :     0.3907027 α      lambda       -0.3420952E-03
   maximum displ.:     0.1802299 α      in ANC's #6, #1, #3, ...

........................................................................
.............................. CYCLE   15 ..............................
........................................................................

 iter      E             dE          RMSdq      gap      omega  full diag
   1    -74.4942371 -0.744942E+02  0.119E-01    1.54       0.0  T
   2    -74.4942438 -0.672136E-05  0.686E-02    1.55       1.0  T
   3    -74.4942433  0.512528E-06  0.923E-03    1.55       1.6  T
   4    -74.4942443 -0.971309E-06  0.510E-03    1.55       2.9  T
   5    -74.4942448 -0.563736E-06  0.219E-03    1.55       6.6  T
   6    -74.4942449 -0.106662E-06  0.865E-04    1.55      16.9  T
   7    -74.4942449 -0.158392E-07  0.456E-04    1.55      32.0  T
     SCC iter.                  ...        0 min,  0.019 sec
     gradient                   ...        0 min,  0.007 sec
 * total energy  :   -73.4822752 Eh     change       -0.1911297E-03 Eh
   gradient norm :     0.0085658 Eh/α   predicted    -0.1971668E-03 (   3.16%)
   displ. norm   :     0.3378313 α      lambda       -0.2059276E-03
   maximum displ.:     0.1643813 α      in ANC's #6, #8, #3, ...

........................................................................
.............................. CYCLE   16 ..............................
........................................................................

 iter      E             dE          RMSdq      gap      omega  full diag
   1    -74.4911828 -0.744912E+02  0.106E-01    1.56       0.0  T
   2    -74.4911857 -0.280999E-05  0.601E-02    1.57       1.0  T
   3    -74.4911847  0.972611E-06  0.900E-03    1.57       1.6  T
   4    -74.4911857 -0.103984E-05  0.501E-03    1.57       2.9  T
   5    -74.4911863 -0.543671E-06  0.150E-03    1.57       9.7  T
   6    -74.4911863 -0.688767E-07  0.527E-04    1.57      27.7  T
   7    -74.4911863 -0.888338E-08  0.217E-04    1.57      67.3  T
     SCC iter.                  ...        0 min,  0.019 sec
     gradient                   ...        0 min,  0.006 sec
 * total energy  :   -73.4824076 Eh     change       -0.1323138E-03 Eh
   gradient norm :     0.0106352 Eh/α   predicted    -0.1147164E-03 ( -13.30%)
   displ. norm   :     0.3123331 α      lambda       -0.2819919E-03
   maximum displ.:     0.1598696 α      in ANC's #6, #1, #4, ...

........................................................................
.............................. CYCLE   17 ..............................
........................................................................

 iter      E             dE          RMSdq      gap      omega  full diag
   1    -74.4923233 -0.744923E+02  0.970E-02    1.57       0.0  T
   2    -74.4923258 -0.252040E-05  0.557E-02    1.58       1.0  T
   3    -74.4923156  0.101750E-04  0.170E-02    1.58       1.0  T
   4    -74.4923271 -0.114493E-04  0.460E-03    1.58       3.2  T
   5    -74.4923273 -0.231909E-06  0.153E-03    1.58       9.6  T
   6    -74.4923274 -0.751748E-07  0.591E-04    1.58      24.7  T
   7    -74.4923274 -0.898889E-08  0.272E-04    1.58      53.6  T
     SCC iter.                  ...        0 min,  0.019 sec
     gradient                   ...        0 min,  0.006 sec
 * total energy  :   -73.4826148 Eh     change       -0.2072070E-03 Eh
   gradient norm :     0.0090926 Eh/α   predicted    -0.1547507E-03 ( -25.32%)
   displ. norm   :     0.4530989 α      lambda       -0.3286845E-03
   maximum displ.:     0.2265467 α      in ANC's #6, #1, #3, ...

........................................................................
.............................. CYCLE   18 ..............................
........................................................................

 iter      E             dE          RMSdq      gap      omega  full diag
   1    -74.4901806 -0.744902E+02  0.136E-01    1.58       0.0  T
   2    -74.4901870 -0.638447E-05  0.776E-02    1.59       1.0  T
   3    -74.4901673  0.196869E-04  0.245E-02    1.60       1.0  T
   4    -74.4901896 -0.223412E-04  0.733E-03    1.60       2.0  T
   5    -74.4901902 -0.588560E-06  0.240E-03    1.60       6.1  T
   6    -74.4901904 -0.177469E-06  0.995E-04    1.60      14.7  T
   7    -74.4901904 -0.274482E-07  0.446E-04    1.60      32.7  T
     SCC iter.                  ...        0 min,  0.019 sec
     gradient                   ...        0 min,  0.006 sec
 * total energy  :   -73.4828402 Eh     change       -0.2254052E-03 Eh
   gradient norm :     0.0076185 Eh/α   predicted    -0.1980926E-03 ( -12.12%)
   displ. norm   :     0.3528549 α      lambda       -0.2699249E-03
   maximum displ.:     0.1664442 α      in ANC's #6, #1, #4, ...

........................................................................
.............................. CYCLE   19 ..............................
........................................................................

 iter      E             dE          RMSdq      gap      omega  full diag
   1    -74.4904082 -0.744904E+02  0.105E-01    1.60       0.0  T
   2    -74.4904128 -0.456424E-05  0.600E-02    1.61       1.0  T
   3    -74.4903983  0.144991E-04  0.208E-02    1.61       1.0  T
   4    -74.4904150 -0.166984E-04  0.593E-03    1.62       2.5  T
   5    -74.4904153 -0.289822E-06  0.230E-03    1.62       6.3  T
   6    -74.4904154 -0.171566E-06  0.858E-04    1.61      17.0  T
   7    -74.4904155 -0.163758E-07  0.414E-04    1.62      35.2  T
     SCC iter.                  ...        0 min,  0.019 sec
     gradient                   ...        0 min,  0.006 sec
 * total energy  :   -73.4829978 Eh     change       -0.1576515E-03 Eh
   gradient norm :     0.0083154 Eh/α   predicted    -0.1517706E-03 (  -3.73%)
   displ. norm   :     0.3508327 α      lambda       -0.2081342E-03
   maximum displ.:     0.1780669 α      in ANC's #6, #1, #3, ...

........................................................................
.............................. CYCLE   20 ..............................
........................................................................

 iter      E             dE          RMSdq      gap      omega  full diag
   1    -74.4903175 -0.744903E+02  0.989E-02    1.62       0.0  T
   2    -74.4903211 -0.363605E-05  0.553E-02    1.63       1.0  T
   3    -74.4903159  0.518920E-05  0.140E-02    1.64       1.0  T
   4    -74.4903220 -0.610743E-05  0.579E-03    1.64       2.5  T
   5    -74.4903224 -0.435538E-06  0.165E-03    1.64       8.8  T
   6    -74.4903225 -0.598615E-07  0.865E-04    1.64      16.9  T
   7    -74.4903225 -0.263488E-07  0.324E-04    1.64      45.0  T
     SCC iter.                  ...        0 min,  0.019 sec
     gradient                   ...        0 min,  0.006 sec
 * total energy  :   -73.4831563 Eh     change       -0.1584283E-03 Eh
   gradient norm :     0.0074015 Eh/α   predicted    -0.1168805E-03 ( -26.22%)
   displ. norm   :     0.3310813 α      lambda       -0.2854209E-03
   maximum displ.:     0.1546588 α      in ANC's #6, #1, #4, ...
 * RMSD in coord.:     0.8338099 α      energy gain  -0.3975987E-01 Eh

generating ANC from exact Hessian ...
Using Lindh-Hessian (1995)
 Shifting diagonal of input Hessian by   9.909370283842187E-003
 Lowest  eigenvalues of input Hessian
    0.000000    0.000000    0.000000    0.000000    0.000000    0.000000
    0.010000    0.010075    0.010219    0.010647    0.010870    0.011190
    0.011546    0.011776    0.012342    0.012468    0.012928    0.014592
 Highest eigenvalues
    1.921081    1.992745    2.015203    2.027122    2.084057    2.210399
 

........................................................................
.............................. CYCLE   21 ..............................
........................................................................

 iter      E             dE          RMSdq      gap      omega  full diag
   1    -74.4964720 -0.744965E+02  0.918E-02    1.64       0.0  T
   2    -74.4964764 -0.438853E-05  0.512E-02    1.66       1.0  T
   3    -74.4964691  0.730507E-05  0.152E-02    1.66       1.0  T
   4    -74.4964779 -0.883900E-05  0.532E-03    1.66       2.7  T
   5    -74.4964783 -0.366910E-06  0.141E-03    1.66      10.3  T
   6    -74.4964783 -0.170309E-07  0.557E-04    1.66      26.2  T
   7    -74.4964783 -0.669326E-08  0.315E-04    1.66      46.4  T
     SCC iter.                  ...        0 min,  0.019 sec
     gradient                   ...        0 min,  0.006 sec
 * total energy  :   -73.4833230 Eh     change       -0.1667124E-03 Eh
   gradient norm :     0.0064669 Eh/α   predicted     0.0000000E+00 (-100.00%)
   displ. norm   :     0.0608187 α      lambda       -0.1144603E-03
   maximum displ.:     0.0262944 α      in ANC's #7, #5, #2, ...

........................................................................
.............................. CYCLE   22 ..............................
........................................................................

 iter      E             dE          RMSdq      gap      omega  full diag
   1    -74.4946735 -0.744947E+02  0.261E-02    1.66       0.0  T
   2    -74.4946740 -0.446887E-06  0.149E-02    1.66       1.0  T
   3    -74.4946735  0.474279E-06  0.391E-03    1.66       3.7  T
   4    -74.4946741 -0.539236E-06  0.174E-03    1.66       8.4  T
   5    -74.4946741 -0.549271E-07  0.715E-04    1.66      20.4  T
   6    -74.4946741 -0.113153E-07  0.224E-04    1.66      65.3  T
     SCC iter.                  ...        0 min,  0.017 sec
     gradient                   ...        0 min,  0.006 sec
 * total energy  :   -73.4834095 Eh     change       -0.8657837E-04 Eh
   gradient norm :     0.0026186 Eh/α   predicted    -0.5860930E-04 ( -32.30%)
   displ. norm   :     0.1228376 α      lambda       -0.1010932E-03
   maximum displ.:     0.0579315 α      in ANC's #7, #5, #2, ...

........................................................................
.............................. CYCLE   23 ..............................
........................................................................

 iter      E             dE          RMSdq      gap      omega  full diag
   1    -74.4932307 -0.744932E+02  0.470E-02    1.66       0.0  T
   2    -74.4932317 -0.100983E-05  0.262E-02    1.67       1.0  T
   3    -74.4932310  0.746883E-06  0.564E-03    1.67       2.6  T
   4    -74.4932318 -0.813710E-06  0.289E-03    1.67       5.0  T
   5    -74.4932319 -0.176473E-06  0.104E-03    1.67      14.1  T
   6    -74.4932320 -0.276908E-07  0.355E-04    1.67      41.0  T
   7    -74.4932320 -0.284230E-08  0.156E-04    1.67      93.2  T
     SCC iter.                  ...        0 min,  0.019 sec
     gradient                   ...        0 min,  0.006 sec
 * total energy  :   -73.4834796 Eh     change       -0.7002882E-04 Eh
   gradient norm :     0.0023899 Eh/α   predicted    -0.5131044E-04 ( -26.73%)
   displ. norm   :     0.1500032 α      lambda       -0.7114482E-04
   maximum displ.:     0.0703646 α      in ANC's #7, #5, #2, ...

........................................................................
.............................. CYCLE   24 ..............................
........................................................................

 iter      E             dE          RMSdq      gap      omega  full diag
   1    -74.4927180 -0.744927E+02  0.548E-02    1.67       0.0  T
   2    -74.4927193 -0.122815E-05  0.304E-02    1.68       1.0  T
   3    -74.4927181  0.117610E-05  0.697E-03    1.68       2.1  T
   4    -74.4927195 -0.138090E-05  0.312E-03    1.68       4.7  T
   5    -74.4927196 -0.168778E-06  0.806E-04    1.68      18.1  T
   6    -74.4927196 -0.106812E-07  0.388E-04    1.68      37.6  T
     SCC iter.                  ...        0 min,  0.016 sec
     gradient                   ...        0 min,  0.006 sec
 * total energy  :   -73.4835360 Eh     change       -0.5643540E-04 Eh
   gradient norm :     0.0039110 Eh/α   predicted    -0.3644736E-04 ( -35.42%)
   displ. norm   :     0.2234062 α      lambda       -0.9669729E-04
   maximum displ.:     0.1043008 α      in ANC's #5, #7, #2, ...

........................................................................
.............................. CYCLE   25 ..............................
........................................................................

 iter      E             dE          RMSdq      gap      omega  full diag
   1    -74.4927656 -0.744928E+02  0.790E-02    1.68       0.0  T
   2    -74.4927682 -0.264176E-05  0.437E-02    1.69       1.0  T
   3    -74.4927645  0.376444E-05  0.116E-02    1.69       1.3  T
   4    -74.4927690 -0.451015E-05  0.453E-03    1.69       3.2  T
   5    -74.4927693 -0.268611E-06  0.976E-04    1.69      14.9  T
   6    -74.4927693 -0.100893E-07  0.407E-04    1.69      35.8  T
     SCC iter.                  ...        0 min,  0.016 sec
     gradient                   ...        0 min,  0.006 sec
 * total energy  :   -73.4836138 Eh     change       -0.7780853E-04 Eh
   gradient norm :     0.0041319 Eh/α   predicted    -0.5080464E-04 ( -34.71%)
   displ. norm   :     0.2902855 α      lambda       -0.1137837E-03
   maximum displ.:     0.1417230 α      in ANC's #5, #2, #7, ...

........................................................................
.............................. CYCLE   26 ..............................
........................................................................

 iter      E             dE          RMSdq      gap      omega  full diag
   1    -74.4932028 -0.744932E+02  0.985E-02    1.69       0.0  T
   2    -74.4932071 -0.436633E-05  0.543E-02    1.70       1.0  T
   3    -74.4931996  0.757674E-05  0.160E-02    1.70       1.0  T
   4    -74.4932087 -0.912446E-05  0.581E-03    1.71       2.5  T
   5    -74.4932090 -0.359865E-06  0.131E-03    1.71      11.1  T
   6    -74.4932091 -0.159414E-07  0.640E-04    1.71      22.8  T
   7    -74.4932091 -0.113218E-07  0.286E-04    1.71      51.1  T
     SCC iter.                  ...        0 min,  0.018 sec
     gradient                   ...        0 min,  0.006 sec
 * total energy  :   -73.4837021 Eh     change       -0.8830478E-04 Eh
   gradient norm :     0.0033684 Eh/α   predicted    -0.6168639E-04 ( -30.14%)
   displ. norm   :     0.2849469 α      lambda       -0.1010487E-03
   maximum displ.:     0.1467260 α      in ANC's #5, #2, #6, ...

........................................................................
.............................. CYCLE   27 ..............................
........................................................................

 iter      E             dE          RMSdq      gap      omega  full diag
   1    -74.4939928 -0.744940E+02  0.912E-02    1.70       0.0  T
   2    -74.4939967 -0.395519E-05  0.502E-02    1.72       1.0  T
   3    -74.4939899  0.683326E-05  0.154E-02    1.72       1.0  T
   4    -74.4939982 -0.826096E-05  0.557E-03    1.72       2.6  T
   5    -74.4939985 -0.320910E-06  0.136E-03    1.72      10.7  T
   6    -74.4939985 -0.182432E-07  0.746E-04    1.72      19.5  T
   7    -74.4939985 -0.175630E-07  0.301E-04    1.72      48.5  T
     SCC iter.                  ...        0 min,  0.019 sec
     gradient                   ...        0 min,  0.006 sec
 * total energy  :   -73.4837837 Eh     change       -0.8155988E-04 Eh
   gradient norm :     0.0028838 Eh/α   predicted    -0.5462924E-04 ( -33.02%)
   displ. norm   :     0.3102448 α      lambda       -0.1116458E-03
   maximum displ.:     0.1660262 α      in ANC's #5, #2, #6, ...

........................................................................
.............................. CYCLE   28 ..............................
........................................................................

 iter      E             dE          RMSdq      gap      omega  full diag
   1    -74.4948923 -0.744949E+02  0.929E-02    1.72       0.0  T
   2    -74.4948966 -0.426775E-05  0.512E-02    1.73       1.0  T
   3    -74.4948903  0.626791E-05  0.153E-02    1.73       1.0  T
   4    -74.4948979 -0.756467E-05  0.585E-03    1.74       2.5  T
   5    -74.4948983 -0.418104E-06  0.155E-03    1.74       9.4  T
   6    -74.4948983 -0.262997E-07  0.858E-04    1.74      17.0  T
   7    -74.4948983 -0.237452E-07  0.340E-04    1.74      42.9  T
     SCC iter.                  ...        0 min,  0.019 sec
     gradient                   ...        0 min,  0.006 sec
 * total energy  :   -73.4838774 Eh     change       -0.9374599E-04 Eh
   gradient norm :     0.0033001 Eh/α   predicted    -0.6119605E-04 ( -34.72%)
   displ. norm   :     0.3899264 α      lambda       -0.1409058E-03
   maximum displ.:     0.2127568 α      in ANC's #5, #2, #6, ...

........................................................................
.............................. CYCLE   29 ..............................
........................................................................

 iter      E             dE          RMSdq      gap      omega  full diag
   1    -74.4950630 -0.744951E+02  0.110E-01    1.73       0.0  T
   2    -74.4950692 -0.618665E-05  0.608E-02    1.75       1.0  T
   3    -74.4950623  0.689163E-05  0.170E-02    1.75       1.0  T
   4    -74.4950706 -0.824737E-05  0.709E-03    1.76       2.1  T
   5    -74.4950714 -0.769356E-06  0.196E-03    1.76       7.4  T
   6    -74.4950714 -0.460050E-07  0.104E-03    1.76      14.0  T
   7    -74.4950714 -0.337436E-07  0.432E-04    1.76      33.7  T
   8    -74.4950714 -0.137837E-08  0.225E-04    1.76      64.8  T
     SCC iter.                  ...        0 min,  0.028 sec
     gradient                   ...        0 min,  0.009 sec
 * total energy  :   -73.4839970 Eh     change       -0.1195894E-03 Eh
   gradient norm :     0.0042488 Eh/α   predicted    -0.8116558E-04 ( -32.13%)
   displ. norm   :     0.4617406 α      lambda       -0.1691799E-03
   maximum displ.:     0.2538909 α      in ANC's #5, #2, #6, ...

........................................................................
.............................. CYCLE   30 ..............................
........................................................................

 iter      E             dE          RMSdq      gap      omega  full diag
   1    -74.4946424 -0.744946E+02  0.122E-01    1.76       0.0  T
   2    -74.4946503 -0.790046E-05  0.674E-02    1.78       1.0  T
   3    -74.4946439  0.631648E-05  0.176E-02    1.78       1.0  T
   4    -74.4946515 -0.752917E-05  0.791E-03    1.78       1.8  T
   5    -74.4946526 -0.111205E-05  0.235E-03    1.78       6.2  T
   6    -74.4946527 -0.747897E-07  0.113E-03    1.78      12.9  T
   7    -74.4946527 -0.363794E-07  0.511E-04    1.78      28.5  T
   8    -74.4946527 -0.231196E-08  0.264E-04    1.78      55.2  T
     SCC iter.                  ...        0 min,  0.041 sec
     gradient                   ...        0 min,  0.006 sec
 * total energy  :   -73.4841356 Eh     change       -0.1385939E-03 Eh
   gradient norm :     0.0050754 Eh/α   predicted    -0.1026279E-03 ( -25.95%)
   displ. norm   :     0.4927237 α      lambda       -0.1737412E-03
   maximum displ.:     0.2711987 α      in ANC's #5, #2, #6, ...

........................................................................
.............................. CYCLE   31 ..............................
........................................................................

 iter      E             dE          RMSdq      gap      omega  full diag
   1    -74.4937577 -0.744938E+02  0.123E-01    1.78       0.0  T
   2    -74.4937662 -0.854971E-05  0.680E-02    1.80       1.0  T
   3    -74.4937612  0.498450E-05  0.169E-02    1.80       1.0  T
   4    -74.4937673 -0.602618E-05  0.791E-03    1.80       1.8  T
   5    -74.4937684 -0.118837E-05  0.245E-03    1.80       6.0  T
   6    -74.4937685 -0.822536E-07  0.108E-03    1.80      13.5  T
   7    -74.4937686 -0.293809E-07  0.532E-04    1.80      27.4  T
   8    -74.4937686 -0.265511E-08  0.279E-04    1.80      52.4  T
     SCC iter.                  ...        0 min,  0.026 sec
     gradient                   ...        0 min,  0.009 sec
 * total energy  :   -73.4842719 Eh     change       -0.1362547E-03 Eh
   gradient norm :     0.0053252 Eh/α   predicted    -0.1079697E-03 ( -20.76%)
   displ. norm   :     0.4335342 α      lambda       -0.1673978E-03
   maximum displ.:     0.2337727 α      in ANC's #5, #2, #1, ...

........................................................................
.............................. CYCLE   32 ..............................
........................................................................

 iter      E             dE          RMSdq      gap      omega  full diag
   1    -74.4942441 -0.744942E+02  0.101E-01    1.81       0.0  T
   2    -74.4942506 -0.651583E-05  0.562E-02    1.82       1.0  T
   3    -74.4942481  0.243559E-05  0.132E-02    1.82       1.1  T
   4    -74.4942512 -0.310461E-05  0.641E-03    1.83       2.3  T
   5    -74.4942521 -0.814531E-06  0.204E-03    1.82       7.1  T
   6    -74.4942521 -0.571477E-07  0.773E-04    1.82      18.9  T
   7    -74.4942521 -0.111646E-07  0.427E-04    1.82      34.1  T
     SCC iter.                  ...        0 min,  0.020 sec
     gradient                   ...        0 min,  0.006 sec
 * total energy  :   -73.4844007 Eh     change       -0.1288362E-03 Eh
   gradient norm :     0.0045635 Eh/α   predicted    -0.9943325E-04 ( -22.82%)
   displ. norm   :     0.5650690 α      lambda       -0.1758802E-03
   maximum displ.:     0.3095449 α      in ANC's #5, #2, #1, ...

........................................................................
.............................. CYCLE   33 ..............................
........................................................................

 iter      E             dE          RMSdq      gap      omega  full diag
   1    -74.4897459 -0.744897E+02  0.140E-01    1.82       0.0  T
   2    -74.4897594 -0.135024E-04  0.765E-02    1.85       1.0  T
   3    -74.4897490  0.103595E-04  0.222E-02    1.85       1.0  T
   4    -74.4897618 -0.127340E-04  0.955E-03    1.85       1.5  T
   5    -74.4897632 -0.141083E-05  0.298E-03    1.85       4.9  T
   6    -74.4897633 -0.124283E-06  0.130E-03    1.85      11.2  T
   7    -74.4897633 -0.473981E-07  0.576E-04    1.85      25.3  T
   8    -74.4897633 -0.371416E-08  0.324E-04    1.85      45.1  T
     SCC iter.                  ...        0 min,  0.022 sec
     gradient                   ...        0 min,  0.006 sec
 * total energy  :   -73.4845080 Eh     change       -0.1073057E-03 Eh
   gradient norm :     0.0068373 Eh/α   predicted    -0.1160240E-03 (   8.12%)
   displ. norm   :     0.3625019 α      lambda       -0.3277712E-03
   maximum displ.:     0.2079059 α      in ANC's #2, #5, #1, ...

........................................................................
.............................. CYCLE   34 ..............................
........................................................................

 iter      E             dE          RMSdq      gap      omega  full diag
   1    -74.4958127 -0.744958E+02  0.861E-02    1.86       0.0  T
   2    -74.4958201 -0.742972E-05  0.478E-02    1.87       1.0  T
   3    -74.4958178  0.226921E-05  0.125E-02    1.87       1.2  T
   4    -74.4958207 -0.283937E-05  0.629E-03    1.87       2.3  T
   5    -74.4958215 -0.832035E-06  0.240E-03    1.87       6.1  T
   6    -74.4958216 -0.960071E-07  0.109E-03    1.87      13.4  T
   7    -74.4958216 -0.332023E-07  0.455E-04    1.87      32.0  T
   8    -74.4958216 -0.569941E-09  0.242E-04    1.87      60.2  T
     SCC iter.                  ...        0 min,  0.021 sec
     gradient                   ...        0 min,  0.006 sec
 * total energy  :   -73.4846364 Eh     change       -0.1284406E-03 Eh
   gradient norm :     0.0085922 Eh/α   predicted    -0.1854344E-03 (  44.37%)
   displ. norm   :     0.4477773 α      lambda       -0.1893824E-03
   maximum displ.:     0.2526287 α      in ANC's #2, #5, #1, ...

........................................................................
.............................. CYCLE   35 ..............................
........................................................................

 iter      E             dE          RMSdq      gap      omega  full diag
   1    -74.4926495 -0.744926E+02  0.105E-01    1.87       0.0  T
   2    -74.4926577 -0.820301E-05  0.563E-02    1.89       1.0  T
   3    -74.4926495  0.822421E-05  0.186E-02    1.88       1.0  T
   4    -74.4926598 -0.103761E-04  0.736E-03    1.89       2.0  T
   5    -74.4926604 -0.587295E-06  0.236E-03    1.89       6.2  T
   6    -74.4926605 -0.871420E-07  0.969E-04    1.89      15.0  T
   7    -74.4926605 -0.248493E-07  0.448E-04    1.89      32.5  T
     SCC iter.                  ...        0 min,  0.018 sec
     gradient                   ...        0 min,  0.006 sec
 * total energy  :   -73.4847545 Eh     change       -0.1180931E-03 Eh
   gradient norm :     0.0071867 Eh/α   predicted    -0.1136828E-03 (  -3.73%)
   displ. norm   :     0.1872913 α      lambda       -0.1470743E-03
   maximum displ.:     0.1054376 α      in ANC's #2, #5, #1, ...

........................................................................
.............................. CYCLE   36 ..............................
........................................................................

 iter      E             dE          RMSdq      gap      omega  full diag
   1    -74.4929744 -0.744930E+02  0.481E-02    1.88       0.0  T
   2    -74.4929779 -0.343559E-05  0.258E-02    1.89       1.0  T
   3    -74.4929744  0.344358E-05  0.114E-02    1.89       1.3  T
   4    -74.4929789 -0.450828E-05  0.363E-03    1.89       4.0  T
   5    -74.4929790 -0.118305E-06  0.126E-03    1.89      11.5  T
   6    -74.4929791 -0.210485E-07  0.611E-04    1.89      23.9  T
   7    -74.4929791 -0.126147E-07  0.200E-04    1.89      73.1  T
     SCC iter.                  ...        0 min,  0.018 sec
     gradient                   ...        0 min,  0.006 sec
 * total energy  :   -73.4848652 Eh     change       -0.1106812E-03 Eh
   gradient norm :     0.0048694 Eh/α   predicted    -0.7612107E-04 ( -31.22%)
   displ. norm   :     0.3388362 α      lambda       -0.2010385E-03
   maximum displ.:     0.2036853 α      in ANC's #2, #5, #1, ...

........................................................................
.............................. CYCLE   37 ..............................
........................................................................

 iter      E             dE          RMSdq      gap      omega  full diag
   1    -74.4953591 -0.744954E+02  0.812E-02    1.88       0.0  T
   2    -74.4953653 -0.618236E-05  0.432E-02    1.90       1.0  T
   3    -74.4953582  0.706820E-05  0.161E-02    1.90       1.0  T
   4    -74.4953673 -0.909580E-05  0.578E-03    1.90       2.5  T
   5    -74.4953676 -0.300425E-06  0.189E-03    1.90       7.7  T
   6    -74.4953677 -0.489725E-07  0.914E-04    1.90      16.0  T
   7    -74.4953677 -0.274760E-07  0.315E-04    1.90      46.3  T
     SCC iter.                  ...        0 min,  0.019 sec
     gradient                   ...        0 min,  0.006 sec
 * total energy  :   -73.4850039 Eh     change       -0.1386513E-03 Eh
   gradient norm :     0.0049051 Eh/α   predicted    -0.1120622E-03 ( -19.18%)
   displ. norm   :     0.4247930 α      lambda       -0.1298081E-03
   maximum displ.:     0.2594652 α      in ANC's #2, #5, #1, ...

........................................................................
.............................. CYCLE   38 ..............................
........................................................................

 iter      E             dE          RMSdq      gap      omega  full diag
   1    -74.4943795 -0.744944E+02  0.941E-02    1.89       0.0  T
   2    -74.4943873 -0.778861E-05  0.500E-02    1.91       1.0  T
   3    -74.4943816  0.570511E-05  0.158E-02    1.91       1.0  T
   4    -74.4943888 -0.719831E-05  0.668E-03    1.91       2.2  T
   5    -74.4943895 -0.646394E-06  0.208E-03    1.91       7.0  T
   6    -74.4943895 -0.488819E-07  0.970E-04    1.91      15.0  T
   7    -74.4943895 -0.309332E-07  0.345E-04    1.91      42.3  T
     SCC iter.                  ...        0 min,  0.019 sec
     gradient                   ...        0 min,  0.006 sec
 * total energy  :   -73.4850975 Eh     change       -0.9367368E-04 Eh
   gradient norm :     0.0047369 Eh/α   predicted    -0.7661896E-04 ( -18.21%)
   displ. norm   :     0.2877499 α      lambda       -0.1636337E-03
   maximum displ.:     0.1796480 α      in ANC's #2, #1, #5, ...

........................................................................
.............................. CYCLE   39 ..............................
........................................................................

 iter      E             dE          RMSdq      gap      omega  full diag
   1    -74.4997722 -0.744998E+02  0.687E-02    1.91       0.0  T
   2    -74.4997763 -0.403566E-05  0.383E-02    1.92       1.0  T
   3    -74.4997716  0.468178E-05  0.125E-02    1.92       1.2  T
   4    -74.4997771 -0.550597E-05  0.514E-03    1.92       2.8  T
   5    -74.4997776 -0.476952E-06  0.217E-03    1.92       6.7  T
   6    -74.4997776 -0.888187E-07  0.800E-04    1.92      18.2  T
   7    -74.4997777 -0.106562E-07  0.378E-04    1.92      38.6  T
     SCC iter.                  ...        0 min,  0.019 sec
     gradient                   ...        0 min,  0.008 sec
 * total energy  :   -73.4851374 Eh     change       -0.3988419E-04 Eh
   gradient norm :     0.0060596 Eh/α   predicted    -0.8859227E-04 ( 122.12%)
   displ. norm   :     0.4631348 α      lambda       -0.1755722E-03
   maximum displ.:     0.2850724 α      in ANC's #2, #5, #1, ...

........................................................................
.............................. CYCLE   40 ..............................
........................................................................

 iter      E             dE          RMSdq      gap      omega  full diag
   1    -74.4954216 -0.744954E+02  0.968E-02    1.93       0.0  T
   2    -74.4954278 -0.622695E-05  0.525E-02    1.94       1.0  T
   3    -74.4954235  0.430761E-05  0.144E-02    1.93       1.0  T
   4    -74.4954287 -0.515164E-05  0.723E-03    1.94       2.0  T
   5    -74.4954296 -0.980752E-06  0.249E-03    1.94       5.8  T
   6    -74.4954298 -0.126795E-06  0.983E-04    1.94      14.8  T
   7    -74.4954298 -0.231661E-07  0.435E-04    1.94      33.6  T
     SCC iter.                  ...        0 min,  0.021 sec
     gradient                   ...        0 min,  0.006 sec
 * total energy  :   -73.4852004 Eh     change       -0.6297867E-04 Eh
   gradient norm :     0.0057165 Eh/α   predicted    -0.1066163E-03 (  69.29%)
   displ. norm   :     0.1002159 α      lambda       -0.8259793E-04
   maximum displ.:     0.0480816 α      in ANC's #2, #5, #4, ...

........................................................................
.............................. CYCLE   41 ..............................
........................................................................

 iter      E             dE          RMSdq      gap      omega  full diag
   1    -74.4962119 -0.744962E+02  0.253E-02    1.94       0.0  T
   2    -74.4962127 -0.851180E-06  0.148E-02    1.94       1.0  T
   3    -74.4962120  0.722283E-06  0.543E-03    1.94       2.7  T
   4    -74.4962130 -0.953684E-06  0.177E-03    1.93       8.2  T
   5    -74.4962130 -0.424522E-07  0.730E-04    1.94      20.0  T
   6    -74.4962130 -0.643030E-08  0.294E-04    1.94      49.7  T
     SCC iter.                  ...        0 min,  0.017 sec
     gradient                   ...        0 min,  0.005 sec
 * total energy  :   -73.4852340 Eh     change       -0.3362865E-04 Eh
   gradient norm :     0.0025751 Eh/α   predicted    -0.4171466E-04 (  24.04%)
   displ. norm   :     0.0663175 α      lambda       -0.3173618E-04
   maximum displ.:     0.0454568 α      in ANC's #2, #1, #5, ...

........................................................................
.............................. CYCLE   42 ..............................
........................................................................

 iter      E             dE          RMSdq      gap      omega  full diag
   1    -74.4970075 -0.744970E+02  0.144E-02    1.93       0.0  T
   2    -74.4970078 -0.250798E-06  0.813E-03    1.93       1.8  T
   3    -74.4970077  0.483884E-07  0.215E-03    1.93       6.8  T
   4    -74.4970078 -0.937409E-07  0.988E-04    1.94      14.8  T
   5    -74.4970078 -0.118774E-07  0.370E-04    1.93      39.4  T
     SCC iter.                  ...        0 min,  0.013 sec
     gradient                   ...        0 min,  0.005 sec
 * total energy  :   -73.4852564 Eh     change       -0.2231678E-04 Eh
   gradient norm :     0.0014526 Eh/α   predicted    -0.1593920E-04 ( -28.58%)
   displ. norm   :     0.3295384 α      lambda       -0.3698760E-04
   maximum displ.:     0.2356032 α      in ANC's #2, #1, #5, ...
 * RMSD in coord.:     0.8759922 α      energy gain  -0.2100102E-02 Eh

generating ANC from exact Hessian ...
Using Lindh-Hessian (1995)
 Shifting diagonal of input Hessian by   9.919140318056486E-003
 Lowest  eigenvalues of input Hessian
    0.000000    0.000000    0.000000    0.000000    0.000000    0.000000
    0.010000    0.010062    0.010287    0.010680    0.011001    0.011290
    0.011732    0.011813    0.012345    0.012408    0.013100    0.014356
 Highest eigenvalues
    1.914807    1.991806    2.009225    2.024464    2.088302    2.207953
 

........................................................................
.............................. CYCLE   43 ..............................
........................................................................

 iter      E             dE          RMSdq      gap      omega  full diag
   1    -74.4970503 -0.744971E+02  0.650E-02    1.94       0.0  T
   2    -74.4970530 -0.271660E-05  0.336E-02    1.94       1.0  T
   3    -74.4970521  0.898804E-06  0.881E-03    1.94       1.7  T
   4    -74.4970534 -0.134317E-05  0.477E-03    1.94       3.1  T
   5    -74.4970538 -0.310100E-06  0.147E-03    1.94       9.9  T
   6    -74.4970538 -0.638880E-07  0.586E-04    1.94      24.9  T
   7    -74.4970538 -0.763831E-08  0.279E-04    1.94      52.3  T
     SCC iter.                  ...        0 min,  0.018 sec
     gradient                   ...        0 min,  0.005 sec
 * total energy  :   -73.4852890 Eh     change       -0.3265561E-04 Eh
   gradient norm :     0.0032989 Eh/α   predicted     0.0000000E+00 (-100.00%)
   displ. norm   :     0.0366704 α      lambda       -0.2461666E-04
   maximum displ.:     0.0223803 α      in ANC's #5, #2, #6, ...

........................................................................
.............................. CYCLE   44 ..............................
........................................................................

 iter      E             dE          RMSdq      gap      omega  full diag
   1    -74.4966138 -0.744966E+02  0.131E-02    1.94       0.0  T
   2    -74.4966139 -0.146297E-06  0.761E-03    1.94       1.9  T
   3    -74.4966138  0.854458E-07  0.181E-03    1.94       8.1  T
   4    -74.4966140 -0.112853E-06  0.554E-04    1.94      26.3  T
   5    -74.4966140 -0.357355E-08  0.249E-04    1.94      58.6  T
     SCC iter.                  ...        0 min,  0.014 sec
     gradient                   ...        0 min,  0.027 sec
 * total energy  :   -73.4853122 Eh     change       -0.2321745E-04 Eh
   gradient norm :     0.0012110 Eh/α   predicted    -0.1479811E-04 ( -36.26%)
   displ. norm   :     0.1359755 α      lambda       -0.3955956E-04
   maximum displ.:     0.0814342 α      in ANC's #5, #2, #6, ...

........................................................................
.............................. CYCLE   45 ..............................
........................................................................

 iter      E             dE          RMSdq      gap      omega  full diag
   1    -74.4958440 -0.744958E+02  0.434E-02    1.94       0.0  T
   2    -74.4958447 -0.720275E-06  0.247E-02    1.94       1.0  T
   3    -74.4958438  0.979460E-06  0.592E-03    1.94       2.5  T
   4    -74.4958449 -0.113412E-05  0.220E-03    1.94       6.6  T
   5    -74.4958450 -0.592449E-07  0.987E-04    1.94      14.8  T
   6    -74.4958450 -0.342925E-07  0.226E-04    1.94      64.7  T
     SCC iter.                  ...        0 min,  0.028 sec
     gradient                   ...        0 min,  0.006 sec
 * total energy  :   -73.4853474 Eh     change       -0.3522029E-04 Eh
   gradient norm :     0.0032201 Eh/α   predicted    -0.1994293E-04 ( -43.38%)
   displ. norm   :     0.0675596 α      lambda       -0.2215087E-04
   maximum displ.:     0.0378964 α      in ANC's #5, #2, #4, ...

........................................................................
.............................. CYCLE   46 ..............................
........................................................................

 iter      E             dE          RMSdq      gap      omega  full diag
   1    -74.4959775 -0.744960E+02  0.201E-02    1.94       0.0  T
   2    -74.4959776 -0.868768E-07  0.114E-02    1.94       1.3  T
   3    -74.4959773  0.324057E-06  0.309E-03    1.94       4.7  T
   4    -74.4959776 -0.365209E-06  0.104E-03    1.94      14.1  T
   5    -74.4959777 -0.106471E-07  0.257E-04    1.94      56.8  T
   6    -74.4959777 -0.257725E-08  0.762E-05    1.94     191.5  T
     SCC iter.                  ...        0 min,  0.016 sec
     gradient                   ...        0 min,  0.006 sec
 * total energy  :   -73.4853677 Eh     change       -0.2028900E-04 Eh
   gradient norm :     0.0028539 Eh/α   predicted    -0.1112629E-04 ( -45.16%)
   displ. norm   :     0.1832911 α      lambda       -0.5830590E-04
   maximum displ.:     0.1004726 α      in ANC's #2, #5, #4, ...

........................................................................
.............................. CYCLE   47 ..............................
........................................................................

 iter      E             dE          RMSdq      gap      omega  full diag
   1    -74.4963048 -0.744963E+02  0.537E-02    1.94       0.0  T
   2    -74.4963054 -0.584647E-06  0.304E-02    1.94       1.0  T
   3    -74.4963037  0.166781E-05  0.717E-03    1.94       2.0  T
   4    -74.4963056 -0.185202E-05  0.285E-03    1.94       5.1  T
   5    -74.4963057 -0.116425E-06  0.723E-04    1.94      20.2  T
   6    -74.4963057 -0.183992E-07  0.194E-04    1.94      75.3  T
     SCC iter.                  ...        0 min,  0.018 sec
     gradient                   ...        0 min,  0.008 sec
 * total energy  :   -73.4854129 Eh     change       -0.4515393E-04 Eh
   gradient norm :     0.0014586 Eh/α   predicted    -0.3013572E-04 ( -33.26%)
   displ. norm   :     0.3050845 α      lambda       -0.4097949E-04
   maximum displ.:     0.1760568 α      in ANC's #2, #5, #3, ...

........................................................................
.............................. CYCLE   48 ..............................
........................................................................

 iter      E             dE          RMSdq      gap      omega  full diag
   1    -74.4960321 -0.744960E+02  0.877E-02    1.93       0.0  T
   2    -74.4960334 -0.136657E-05  0.497E-02    1.93       1.0  T
   3    -74.4960315  0.197774E-05  0.896E-03    1.93       1.6  T
   4    -74.4960335 -0.201050E-05  0.468E-03    1.93       3.1  T
   5    -74.4960340 -0.510457E-06  0.114E-03    1.93      12.8  T
   6    -74.4960340 -0.451704E-07  0.291E-04    1.93      50.1  T
   7    -74.4960340 -0.998853E-09  0.164E-04    1.93      89.0  T
     SCC iter.                  ...        0 min,  0.018 sec
     gradient                   ...        0 min,  0.006 sec
 * total energy  :   -73.4854525 Eh     change       -0.3958002E-04 Eh
   gradient norm :     0.0022817 Eh/α   predicted    -0.2133762E-04 ( -46.09%)
   displ. norm   :     0.0940242 α      lambda       -0.1917692E-04
   maximum displ.:     0.0608085 α      in ANC's #2, #5, #3, ...

........................................................................
.............................. CYCLE   49 ..............................
........................................................................

 iter      E             dE          RMSdq      gap      omega  full diag
   1    -74.4964156 -0.744964E+02  0.259E-02    1.93       0.0  T
   2    -74.4964158 -0.147440E-06  0.147E-02    1.93       1.0  T
   3    -74.4964157  0.729880E-07  0.225E-03    1.93       6.5  T
   4    -74.4964158 -0.848097E-07  0.120E-03    1.93      12.2  T
   5    -74.4964158 -0.302713E-07  0.331E-04    1.93      44.1  T
   6    -74.4964158 -0.359522E-08  0.119E-04    1.93     122.8  T
     SCC iter.                  ...        0 min,  0.016 sec
     gradient                   ...        0 min,  0.006 sec
 * total energy  :   -73.4854699 Eh     change       -0.1738121E-04 Eh
   gradient norm :     0.0015530 Eh/α   predicted    -0.9674455E-05 ( -44.34%)
   displ. norm   :     0.1981266 α      lambda       -0.3310585E-04
   maximum displ.:     0.1320169 α      in ANC's #2, #5, #3, ...

........................................................................
.............................. CYCLE   50 ..............................
........................................................................

 iter      E             dE          RMSdq      gap      omega  full diag
   1    -74.4971212 -0.744971E+02  0.531E-02    1.94       0.0  T
   2    -74.4971220 -0.765089E-06  0.304E-02    1.93       1.0  T
   3    -74.4971204  0.156713E-05  0.710E-03    1.93       2.1  T
   4    -74.4971222 -0.176133E-05  0.269E-03    1.93       5.4  T
   5    -74.4971223 -0.116196E-06  0.927E-04    1.93      15.7  T
   6    -74.4971223 -0.278323E-07  0.287E-04    1.93      50.9  T
     SCC iter.                  ...        0 min,  0.016 sec
     gradient                   ...        0 min,  0.007 sec
 * total energy  :   -73.4855081 Eh     change       -0.3828507E-04 Eh
   gradient norm :     0.0012786 Eh/α   predicted    -0.1684298E-04 ( -56.01%)
   displ. norm   :     0.2029340 α      lambda       -0.2453770E-04
   maximum displ.:     0.1381862 α      in ANC's #2, #3, #5, ...

........................................................................
.............................. CYCLE   51 ..............................
........................................................................

 iter      E             dE          RMSdq      gap      omega  full diag
   1    -74.4965225 -0.744965E+02  0.552E-02    1.93       0.0  T
   2    -74.4965232 -0.623371E-06  0.316E-02    1.93       1.0  T
   3    -74.4965223  0.813447E-06  0.567E-03    1.93       2.6  T
   4    -74.4965232 -0.892535E-06  0.280E-03    1.93       5.2  T
   5    -74.4965234 -0.163780E-06  0.822E-04    1.93      17.7  T
   6    -74.4965234 -0.239460E-07  0.263E-04    1.93      55.5  T
     SCC iter.                  ...        0 min,  0.020 sec
     gradient                   ...        0 min,  0.010 sec
 * total energy  :   -73.4855384 Eh     change       -0.3024599E-04 Eh
   gradient norm :     0.0016045 Eh/α   predicted    -0.1249402E-04 ( -58.69%)
   displ. norm   :     0.1580507 α      lambda       -0.2065649E-04
   maximum displ.:     0.1114690 α      in ANC's #2, #3, #5, ...

........................................................................
.............................. CYCLE   52 ..............................
........................................................................

 iter      E             dE          RMSdq      gap      omega  full diag
   1    -74.4966656 -0.744967E+02  0.425E-02    1.93       0.0  T
   2    -74.4966660 -0.486973E-06  0.242E-02    1.93       1.0  T
   3    -74.4966655  0.509611E-06  0.442E-03    1.93       3.3  T
   4    -74.4966661 -0.548764E-06  0.232E-03    1.93       6.3  T
   5    -74.4966662 -0.127664E-06  0.753E-04    1.93      19.4  T
   6    -74.4966662 -0.184191E-07  0.244E-04    1.93      59.7  T
     SCC iter.                  ...        0 min,  0.022 sec
     gradient                   ...        0 min,  0.008 sec
 * total energy  :   -73.4855653 Eh     change       -0.2695222E-04 Eh
   gradient norm :     0.0014294 Eh/α   predicted    -0.1044549E-04 ( -61.24%)
   displ. norm   :     0.1844337 α      lambda       -0.2550241E-04
   maximum displ.:     0.1302706 α      in ANC's #2, #3, #5, ...

........................................................................
.............................. CYCLE   53 ..............................
........................................................................

 iter      E             dE          RMSdq      gap      omega  full diag
   1    -74.4966928 -0.744967E+02  0.507E-02    1.93       0.0  T
   2    -74.4966936 -0.817703E-06  0.287E-02    1.93       1.0  T
   3    -74.4966933  0.374465E-06  0.478E-03    1.93       3.1  T
   4    -74.4966936 -0.392687E-06  0.272E-03    1.93       5.4  T
   5    -74.4966939 -0.211689E-06  0.915E-04    1.93      16.0  T
   6    -74.4966939 -0.251180E-07  0.350E-04    1.93      41.6  T
     SCC iter.                  ...        0 min,  0.016 sec
     gradient                   ...        0 min,  0.008 sec
 * total energy  :   -73.4855982 Eh     change       -0.3291132E-04 Eh
   gradient norm :     0.0010578 Eh/α   predicted    -0.1294789E-04 ( -60.66%)
   displ. norm   :     0.2151173 α      lambda       -0.2817422E-04
   maximum displ.:     0.1534158 α      in ANC's #2, #3, #8, ...

........................................................................
.............................. CYCLE   54 ..............................
........................................................................

 iter      E             dE          RMSdq      gap      omega  full diag
   1    -74.4963434 -0.744963E+02  0.591E-02    1.93       0.0  T
   2    -74.4963446 -0.120620E-05  0.332E-02    1.93       1.0  T
   3    -74.4963443  0.303243E-06  0.552E-03    1.93       2.6  T
   4    -74.4963447 -0.373703E-06  0.298E-03    1.93       4.9  T
   5    -74.4963449 -0.251921E-06  0.789E-04    1.93      18.5  T
   6    -74.4963449 -0.168602E-07  0.405E-04    1.93      36.0  T
     SCC iter.                  ...        0 min,  0.016 sec
     gradient                   ...        0 min,  0.008 sec
 * total energy  :   -73.4856332 Eh     change       -0.3493808E-04 Eh
   gradient norm :     0.0011158 Eh/α   predicted    -0.1437877E-04 ( -58.84%)
   displ. norm   :     0.2073241 α      lambda       -0.2398860E-04
   maximum displ.:     0.1510713 α      in ANC's #2, #3, #8, ...

........................................................................
.............................. CYCLE   55 ..............................
........................................................................

 iter      E             dE          RMSdq      gap      omega  full diag
   1    -74.4966388 -0.744966E+02  0.541E-02    1.93       0.0  T
   2    -74.4966397 -0.917992E-06  0.301E-02    1.93       1.0  T
   3    -74.4966395  0.166452E-06  0.519E-03    1.93       2.8  T
   4    -74.4966397 -0.207733E-06  0.290E-03    1.94       5.0  T
   5    -74.4966400 -0.249064E-06  0.596E-04    1.93      24.5  T
   6    -74.4966400 -0.733631E-08  0.345E-04    1.94      42.2  T
     SCC iter.                  ...        0 min,  0.016 sec
     gradient                   ...        0 min,  0.008 sec
 * total energy  :   -73.4856635 Eh     change       -0.3029924E-04 Eh
   gradient norm :     0.0011674 Eh/α   predicted    -0.1222462E-04 ( -59.65%)
   displ. norm   :     0.1893680 α      lambda       -0.2094486E-04
   maximum displ.:     0.1410717 α      in ANC's #2, #3, #7, ...

........................................................................
.............................. CYCLE   56 ..............................
........................................................................

 iter      E             dE          RMSdq      gap      omega  full diag
   1    -74.4966945 -0.744967E+02  0.483E-02    1.93       0.0  T
   2    -74.4966953 -0.724494E-06  0.266E-02    1.94       1.0  T
   3    -74.4966951  0.136622E-06  0.485E-03    1.94       3.0  T
   4    -74.4966953 -0.138698E-06  0.286E-03    1.94       5.1  T
   5    -74.4966955 -0.226200E-06  0.523E-04    1.94      27.9  T
   6    -74.4966955 -0.627288E-08  0.288E-04    1.94      50.6  T
     SCC iter.                  ...        0 min,  0.015 sec
     gradient                   ...        0 min,  0.006 sec
 * total energy  :   -73.4856913 Eh     change       -0.2782708E-04 Eh
   gradient norm :     0.0011669 Eh/α   predicted    -0.1064342E-04 ( -61.75%)
   displ. norm   :     0.1971913 α      lambda       -0.2344259E-04
   maximum displ.:     0.1482870 α      in ANC's #2, #3, #10, ...

........................................................................
.............................. CYCLE   57 ..............................
........................................................................

[...]
H32-C7-C6-H31=359.83          C9-C8-C7-C6=180.65            C9-C8-C7-H32=  0.89           C24-C8-C7-C6=  0.54           
C24-C8-C7-H32=180.78          C10-C9-C8-C7=  5.79           C10-C9-C8-C24=185.90          H33-C9-C8-C7=184.72           
H33-C9-C8-C24=  4.83          C11-C10-C9-C8=178.13          C11-C10-C9-H33=359.20         H34-C10-C9-C8=  0.26          
H34-C10-C9-H33=181.34         
           -------------------------------------------------
          |                Final Singlepoint                |
           -------------------------------------------------

          ...................................................
          :                      SETUP                      :
          :.................................................:
          :  # basis functions                 128          :
          :  # atomic orbitals                 127          :
          :  # shells                           73          :
          :  # electrons                       132          :
          :  max. iterations                   250          :
          :  Hamiltonian                  GFN2-xTB          :
          :  restarted?                      false          :
          :  GBSA solvation                  false          :
          :  PC potential                    false          :
          :  electronic temp.          300.0000000     K    :
          :  accuracy                    1.0000000          :
          :  -> integral cutoff          0.2500000E+02      :
          :  -> integral neglect         0.1000000E-07      :
          :  -> SCF convergence          0.1000000E-05 Eh   :
          :  -> wf. convergence          0.1000000E-03 e    :
          :  Broyden damping             0.4000000          :
          :  net charge                          0          :
          :  unpaired electrons                  0          :
          ...................................................

 iter      E             dE          RMSdq      gap      omega  full diag
   1    -74.4974877 -0.744975E+02  0.182E-04    2.00       0.0  T
   2    -74.4974877 -0.164917E-09  0.135E-04    2.00     108.2  T
   3    -74.4974877 -0.459110E-09  0.746E-05    2.00     195.6  T

   *** convergence criteria satisfied after 3 iterations ***

         #    Occupation            Energy/Eh            Energy/eV
      -------------------------------------------------------------
         1        2.0000           -0.7251264             -19.7317
       ...           ...                  ...                  ...
        60        2.0000           -0.4204628             -11.4414
        61        2.0000           -0.4122703             -11.2184
        62        2.0000           -0.4088867             -11.1264
        63        2.0000           -0.4073424             -11.0844
        64        2.0000           -0.4047707             -11.0144
        65        2.0000           -0.3771563             -10.2629
        66        2.0000           -0.3694917             -10.0544 (HOMO)
        67                         -0.2959445              -8.0531 (LUMO)
        68                         -0.2382878              -6.4841
        69                         -0.2345809              -6.3833
        70                         -0.2258558              -6.1458
        71                         -0.2206813              -6.0050
       ...                                ...                  ...
       127                          0.6964102              18.9503
      -------------------------------------------------------------
                  HL-Gap            0.0735472 Eh            2.0013 eV
             Fermi-level           -0.3327181 Eh           -9.0537 eV

 SCC (total)                   0 d,  0 h,  0 min,  0.016 sec
 SCC setup                      ...        0 min,  0.000 sec (  0.588%)
 Dispersion                     ...        0 min,  0.000 sec (  1.524%)
 classical contributions        ...        0 min,  0.000 sec (  0.282%)
 integral evaluation            ...        0 min,  0.001 sec (  9.051%)
 iterations                     ...        0 min,  0.008 sec ( 48.455%)
 molecular gradient             ...        0 min,  0.006 sec ( 38.887%)
 printout                       ...        0 min,  0.000 sec (  1.066%)

         :::::::::::::::::::::::::::::::::::::::::::::::::::::
         ::                     SUMMARY                     ::
         :::::::::::::::::::::::::::::::::::::::::::::::::::::
         :: total energy             -73.486663147795 Eh    ::
         :: gradient norm              0.000475249843 Eh/a0 ::
         :: HOMO-LUMO gap              2.001320812514 eV    ::
         ::.................................................::
         :: SCC energy               -74.497186816902 Eh    ::
         :: -> isotropic ES            0.090602930711 Eh    ::
         :: -> anisotropic ES          0.003608814024 Eh    ::
         :: -> anisotropic XC          0.025628616016 Eh    ::
         :: -> dispersion             -0.050667853273 Eh    ::
         :: repulsion energy           1.010523669108 Eh    ::
         :: add. restraining           0.000000000000 Eh    ::
         :: total charge              -0.000000000000 e     ::
         :::::::::::::::::::::::::::::::::::::::::::::::::::::

           -------------------------------------------------
          |                Property Printout                |
           -------------------------------------------------

    * Orbital Energies and Occupations

         #    Occupation            Energy/Eh            Energy/eV
      -------------------------------------------------------------
         1        2.0000           -0.7251264             -19.7317
       ...           ...                  ...                  ...
        54        2.0000           -0.4411698             -12.0048
        55        2.0000           -0.4342228             -11.8158
        56        2.0000           -0.4321592             -11.7596
        57        2.0000           -0.4280360             -11.6475
        58        2.0000           -0.4274915             -11.6326
        59        2.0000           -0.4222241             -11.4893
        60        2.0000           -0.4204628             -11.4414
        61        2.0000           -0.4122703             -11.2184
        62        2.0000           -0.4088867             -11.1264
        63        2.0000           -0.4073424             -11.0844
        64        2.0000           -0.4047707             -11.0144
        65        2.0000           -0.3771563             -10.2629
        66        2.0000           -0.3694917             -10.0544 (HOMO)
        67                         -0.2959445              -8.0531 (LUMO)
        68                         -0.2382878              -6.4841
        69                         -0.2345809              -6.3833
        70                         -0.2258558              -6.1458
        71                         -0.2206813              -6.0050
        72                         -0.2024996              -5.5103
        73                         -0.1673403              -4.5536
        74                         -0.1490147              -4.0549
        75                         -0.0978541              -2.6627
        76                         -0.0965094              -2.6262
        77                         -0.0181617              -0.4942
       ...                                ...                  ...
       127                          0.6964102              18.9503
      -------------------------------------------------------------
                  HL-Gap            0.0735472 Eh            2.0013 eV
             Fermi-level           -0.3327181 Eh           -9.0537 eV

     #   Z          covCN         q      C6AA      α(0)
     1   8 O        1.656    -0.431    21.463     6.254
     2   6 C        3.698     0.093    19.195     6.266
     3   6 C        3.795    -0.015    20.850     6.502
     4  16 S        2.064    -0.118   146.004    20.337
     5   6 C        2.965     0.051    26.856     8.500
     6   6 C        2.987    -0.037    28.919     8.821
     7   6 C        2.922    -0.027    28.678     8.782
     8   6 C        2.969     0.010    27.797     8.648
     9   6 C        2.908    -0.011    28.287     8.721
    10   6 C        2.893    -0.067    29.678     8.932
    11   6 C        2.832     0.211    23.540     7.951
    12   6 C        3.706     0.250    16.880     5.873
    13   8 O        1.701    -0.317    19.298     5.931
    14   6 C        3.647     0.046    20.129     6.447
    15   8 O        1.700    -0.336    19.641     5.984
    16   6 C        3.646     0.046    20.137     6.449
    17   6 C        2.985    -0.010    28.257     8.720
    18   6 C        2.923    -0.032    28.787     8.799
    19   6 C        2.920    -0.028    28.708     8.786
    20   6 C        2.920    -0.030    28.742     8.792
    21   6 C        2.921    -0.029    28.722     8.789
    22   6 C        2.920    -0.031    28.784     8.798
    23   8 O        0.857    -0.351    20.727     6.104
    24   6 C        2.929    -0.030    28.753     8.794
    25   6 C        2.937    -0.044    29.102     8.847
    26   1 H        0.805     0.292     0.746     1.357
    27   1 H        0.923     0.027     2.633     2.537
    28   1 H        0.923     0.021     2.712     2.575
    29   1 H        0.925     0.079     1.987     2.204
    30   1 H        0.925     0.051     2.304     2.374
    31   1 H        0.926     0.050     2.320     2.382
    32   1 H        0.926     0.047     2.356     2.400
    33   1 H        0.925     0.068     2.105     2.269
    34   1 H        0.926     0.054     2.265     2.353
    35   1 H        0.925     0.059     2.206     2.323
    36   1 H        0.924     0.039     2.462     2.454
    37   1 H        0.924     0.031     2.568     2.506
    38   1 H        0.924     0.047     2.355     2.400
    39   1 H        0.924     0.027     2.637     2.539
    40   1 H        0.925     0.057     2.240     2.340
    41   1 H        0.926     0.053     2.288     2.366
    42   1 H        0.926     0.038     2.477     2.461
    43   1 H        0.926     0.036     2.507     2.476
    44   1 H        0.926     0.036     2.498     2.472
    45   1 H        0.926     0.050     2.321     2.382
    46   1 H        0.926     0.044     2.402     2.424
    47   1 H        0.926     0.034     2.530     2.487

 Mol. C6AA /au·bohr⁶  :      27137.586478
 Mol. C8AA /au·bohr⁸  :     683014.712110
 Mol. α(0) /au        :        258.907806


Wiberg/Mayer (AO) data.
largest (>0.10) Wiberg bond orders for each atom

 ---------------------------------------------------------------------------
     #   Z sym  total        # sym  WBO       # sym  WBO       # sym  WBO
 ---------------------------------------------------------------------------
     1   8 O    1.960 --     2 C    1.004    26 H    0.901
     2   6 C    3.962 --     3 C    1.009     1 O    1.004    27 H    0.968
                            28 H    0.963
     3   6 C    3.979 --     2 C    1.009     4 S    0.988    30 H    0.970
                            29 H    0.966
     4  16 S    2.287 --     5 C    1.078     3 C    0.988
     5   6 C    3.956 --    25 C    1.374     6 C    1.348     4 S    1.078
     6   6 C    3.989 --     7 C    1.502     5 C    1.348    31 H    0.966
     7   6 C    3.990 --     6 C    1.502     8 C    1.331    32 H    0.964
     8   6 C    3.989 --    24 C    1.352     7 C    1.331     9 C    1.138
     9   6 C    3.973 --    10 C    1.727     8 C    1.138    33 H    0.957
    10   6 C    3.971 --     9 C    1.727    11 C    1.082    34 H    0.960
    11   6 C    3.925 --    23 O    1.804    10 C    1.082    12 C    0.900
    12   6 C    3.923 --    13 O    0.975    15 O    0.959    17 C    0.943
                            11 C    0.900
    13   8 O    2.094 --    14 C    0.983    12 C    0.975
    14   6 C    3.947 --    13 O    0.983    35 H    0.980    36 H    0.980
                            37 H    0.978
    15   8 O    2.078 --    16 C    0.983    12 C    0.959
    16   6 C    3.946 --    15 O    0.983    40 H    0.981    38 H    0.979
                            39 H    0.976
    17   6 C    3.983 --    22 C    1.413    18 C    1.404    12 C    0.943
                            20 C    0.107
    18   6 C    3.989 --    19 C    1.449    17 C    1.404    41 H    0.967
                            21 C    0.112
    19   6 C    3.991 --    18 C    1.449    20 C    1.435    42 H    0.971
                            22 C    0.110
    20   6 C    3.987 --    21 C    1.441    19 C    1.435    43 H    0.971
                            17 C    0.107
    21   6 C    3.991 --    20 C    1.441    22 C    1.440    44 H    0.970
                            18 C    0.112
    22   6 C    3.990 --    21 C    1.440    17 C    1.413    45 H    0.966
                            19 C    0.110
    23   8 O    2.064 --    11 C    1.804
    24   6 C    3.989 --    25 C    1.470     8 C    1.352    46 H    0.967
    25   6 C    3.989 --    24 C    1.470     5 C    1.374    47 H    0.963
    26   1 H    0.915 --     1 O    0.901
    27   1 H    0.999 --     2 C    0.968
    28   1 H    0.999 --     2 C    0.963
    29   1 H    0.993 --     3 C    0.966
    30   1 H    0.997 --     3 C    0.970
    31   1 H    0.997 --     6 C    0.966
    32   1 H    0.997 --     7 C    0.964
    33   1 H    0.995 --     9 C    0.957
    34   1 H    0.997 --    10 C    0.960
    35   1 H    0.996 --    14 C    0.980
    36   1 H    0.998 --    14 C    0.980
    37   1 H    0.999 --    14 C    0.978
    38   1 H    0.998 --    16 C    0.979
    39   1 H    0.999 --    16 C    0.976
    40   1 H    0.996 --    16 C    0.981
    41   1 H    0.997 --    18 C    0.967
    42   1 H    0.998 --    19 C    0.971
    43   1 H    0.998 --    20 C    0.971
    44   1 H    0.998 --    21 C    0.970
    45   1 H    0.997 --    22 C    0.966
    46   1 H    0.998 --    24 C    0.967
    47   1 H    0.998 --    25 C    0.963
 ---------------------------------------------------------------------------

Topologies differ in total number of bonds
Writing topology from bond orders to xtbtopo.mol

molecular dipole:
                 x           y           z       tot (Debye)
 q only:        1.116       0.068       0.465
   full:        1.177       0.298       0.050       3.089
molecular quadrupole (traceless):
                xx          xy          yy          xz          yz          zz
 q only:       12.517      -0.186       2.834     -21.513      -0.668     -15.351
  q+dip:       13.998       1.122       1.957     -31.845       1.820     -15.954
   full:       14.701       1.413       4.682     -32.423       0.397     -19.383

           -------------------------------------------------
          |                Geometry Summary                 |
           -------------------------------------------------

      molecular mass/u    :      358.4518216
   center of mass at/Å    :        0.2154435      -0.1426276       0.1910901
  moments of inertia/u·Å² :        0.1118701E+04   0.7156464E+04   0.7566765E+04
rotational constants/cm⁻¹ :        0.1506893E-01   0.2355581E-02   0.2227852E-02

 * 42 selected distances

     #   Z          #   Z                                           value/Å
     1   8 O        2   6 C                                       1.4061787
     2   6 C        3   6 C                                       1.5222120 (max)
     5   6 C        6   6 C                                       1.3979088
     6   6 C        7   6 C                                       1.3737897
     7   6 C        8   6 C                                       1.4018628
     9   6 C       10   6 C                                       1.3445784
    12   6 C       13   8 O                                       1.4026995
    13   8 O       14   6 C                                       1.4124754
    12   6 C       15   8 O                                       1.4129014
    15   8 O       16   6 C                                       1.4134078
    17   6 C       18   6 C                                       1.3901554
    18   6 C       19   6 C                                       1.3825075
    19   6 C       20   6 C                                       1.3854422
    20   6 C       21   6 C                                       1.3843728
    17   6 C       22   6 C                                       1.3870428
    21   6 C       22   6 C                                       1.3841324
    11   6 C       23   8 O                                       1.2098683
     8   6 C       24   6 C                                       1.3986605
     5   6 C       25   6 C                                       1.3913454
    24   6 C       25   6 C                                       1.3791026
     1   8 O       26   1 H                                       0.9621105 (min)
     2   6 C       27   1 H                                       1.0993109
     2   6 C       28   1 H                                       1.1022765
     3   6 C       29   1 H                                       1.0893875
     3   6 C       30   1 H                                       1.0880556
     6   6 C       31   1 H                                       1.0794471
     7   6 C       32   1 H                                       1.0784493
     9   6 C       33   1 H                                       1.0844219
    10   6 C       34   1 H                                       1.0784905
    14   6 C       35   1 H                                       1.0879680
    14   6 C       36   1 H                                       1.0943348
    14   6 C       37   1 H                                       1.0949276
    16   6 C       38   1 H                                       1.0928181
    16   6 C       39   1 H                                       1.0958078
    16   6 C       40   1 H                                       1.0885372
    18   6 C       41   1 H                                       1.0800585
    19   6 C       42   1 H                                       1.0799190
    20   6 C       43   1 H                                       1.0801015
    21   6 C       44   1 H                                       1.0802125
    22   6 C       45   1 H                                       1.0783844
    24   6 C       46   1 H                                       1.0806187
    25   6 C       47   1 H                                       1.0787704

 * 4 distinct bonds (by element types)

   Z      Z             #   av. dist./Å        max./Å        min./Å
   1 H    6 C          21     1.0862999     1.1022765     1.0783844
   6 C    6 C          14     1.3945081     1.5222120     1.3445784
   1 H    8 O           1     0.9621105     0.9621105     0.9621105
   6 C    8 O           6     1.3762552     1.4134078     1.2098683


optimized geometry written to: xtbopt.xyz


           -------------------------------------------------
          | TOTAL ENERGY              -73.486663147795 Eh   |
          | GRADIENT NORM               0.000475249843 Eh/α |
          | HOMO-LUMO GAP               2.001320812514 eV   |
           -------------------------------------------------

------------------------------------------------------------------------
 * finished run on 2025/12/01 at 14:22:49.442     
------------------------------------------------------------------------
 total:
 * wall-time:     0 d,  0 h,  0 min,  3.002 sec
 *  cpu-time:     0 d,  0 h,  1 min,  8.714 sec
 * ratio c/w:    22.892 speedup
 SCF:
 * wall-time:     0 d,  0 h,  0 min,  0.080 sec
 *  cpu-time:     0 d,  0 h,  0 min,  1.823 sec
 * ratio c/w:    22.912 speedup
 ANC optimizer:
 * wall-time:     0 d,  0 h,  0 min,  2.908 sec
 *  cpu-time:     0 d,  0 h,  1 min,  6.679 sec
 * ratio c/w:    22.929 speedup

normal termination of xtb
