      -----------------------------------------------------------      
     |                   =====================                   |     
     |                           x T B                           |     
     |                   =====================                   |     
     |                         S. Grimme                         |     
     |          Mulliken Center for Theoretical Chemistry        |     
     |                    University of Bonn                     |     
      -----------------------------------------------------------      

   * xtb version 6.7.1 (edcfbbe) compiled by 'albert@albert-system' on 2024-07-22

   xtb is free software: you can redistribute it and/or modify it under
   the terms of the GNU Lesser General Public License as published by
   the Free Software Foundation, either version 3 of the License, or
   (at your option) any later version.
   
   xtb is distributed in the hope that it will be useful,
   but WITHOUT ANY WARRANTY; without even the implied warranty of
   MERCHANTABILITY or FITNESS FOR A PARTICULAR PURPOSE.  See the
   GNU Lesser General Public License for more details.
   
   Cite this work as:
   * C. Bannwarth, E. Caldeweyher, S. Ehlert, A. Hansen, P. Pracht,
     J. Seibert, S. Spicher, S. Grimme, WIREs Comput. Mol. Sci., 2020, 11,
     e01493. DOI: 10.1002/wcms.1493
   
   for GFN2-xTB:
   * C. Bannwarth, S. Ehlert and S. Grimme., J. Chem. Theory Comput., 2019,
     15, 1652-1671. DOI: 10.1021/acs.jctc.8b01176
   for GFN1-xTB:
   * S. Grimme, C. Bannwarth, P. Shushkov, J. Chem. Theory Comput., 2017,
     13, 1989-2009. DOI: 10.1021/acs.jctc.7b00118
   for GFN0-xTB:
   * P. Pracht, E. Caldeweyher, S. Ehlert, S. Grimme, ChemRxiv, 2019, preprint.
     DOI: 10.26434/chemrxiv.8326202.v1
   for GFN-FF:
   * S. Spicher and S. Grimme, Angew. Chem. Int. Ed., 2020, 59, 15665-15673.
     DOI: 10.1002/anie.202004239
   
   for ALPB and GBSA implicit solvation:
   * S. Ehlert, M. Stahn, S. Spicher, S. Grimme, J. Chem. Theory Comput.,
     2021, 17, 4250-4261. DOI: 10.1021/acs.jctc.1c00471
   
   for ddCOSMO and CPCM-X implicit solvation:
   * M. Stahn, S. Ehlert, S. Grimme, J. Phys. Chem. A,
     2023, XX, XXXX-XXXX. DOI: 10.1021/acs.jpca.3c04382
   
   for DFT-D4:
   * E. Caldeweyher, C. Bannwarth and S. Grimme, J. Chem. Phys., 2017,
     147, 034112. DOI: 10.1063/1.4993215
   * E. Caldeweyher, S. Ehlert, A. Hansen, H. Neugebauer, S. Spicher,
     C. Bannwarth and S. Grimme, J. Chem. Phys., 2019, 150, 154122.
     DOI: 10.1063/1.5090222
   * E. Caldeweyher, J.-M. Mewes, S. Ehlert and S. Grimme, Phys. Chem. Chem. Phys.
     2020, 22, 8499-8512. DOI: 10.1039/D0CP00502A
   
   for sTDA-xTB:
   * S. Grimme and C. Bannwarth, J. Chem. Phys., 2016, 145, 054103.
     DOI: 10.1063/1.4959605
   
   in the mass-spec context:
   * V. Asgeirsson, C. Bauer and S. Grimme, Chem. Sci., 2017, 8, 4879.
     DOI: 10.1039/c7sc00601b
   * J. Koopman and S. Grimme, ACS Omega 2019, 4, 12, 15120-15133.
     DOI: 10.1021/acsomega.9b02011
   
   for metadynamics refer to:
   * S. Grimme, J. Chem. Theory Comput., 2019, 155, 2847-2862
     DOI: 10.1021/acs.jctc.9b00143
   
   for SPH calculations refer to:
   * S. Spicher and S. Grimme, J. Chem. Theory Comput., 2021, 17, 1701-1714
     DOI: 10.1021/acs.jctc.0c01306
   
   for ONIOM refer to:
   * C. Plett, A. Katbashev, S. Ehlert, S. Grimme, M. Bursch,
     Phys. Chem. Chem. Phys., 2023, 25, 17860-17868. DOI: 10.1039/D3CP02178E
   
   for DIPRO refer to:
   * J. Kohn, N. Gildemeister, S. Grimme, D. Fazzi, A. Hansen,
     J. Chem. Phys., 2023, just accepted.
   
   for PTB refer to:
   * S. Grimme, M. Mueller, A. Hansen, J. Chem. Phys., 2023, 158, 124111.
     DOI: 10.1063/5.0137838
   
   with help from (in alphabetical order)
   P. Atkinson, C. Bannwarth, F. Bohle, G. Brandenburg, E. Caldeweyher
   M. Checinski, S. Dohm, S. Ehlert, S. Ehrlich, I. Gerasimov, C. Hölzer
   A. Katbashev, J. Kohn, J. Koopman, C. Lavigne, S. Lehtola, F. März, M. Müller,
   F. Musil, H. Neugebauer, J. Pisarek, C. Plett, P. Pracht, F. Pultar,
   J. Seibert, P. Shushkov, S. Spicher, M. Stahn, M. Steiner, T. Strunk,
   J. Stückrath, T. Rose, and J. Unsleber
   
 * started run on 2025/12/01 at 14:22:52.234     
   ID    Z sym.   atoms
    1    6 C      1-4, 7-12
    2    8 O      5, 6
    3    1 H      13-22

           -------------------------------------------------
          |                Calculation Setup                |
           -------------------------------------------------

          program call               : xtb pipeline_data/3_conformer_xyz/acrylates/rdkit/QIWKUEJZZCOPFV-UHFFFAOYSA-N_conf219.xyz --opt --gfn 2-xTB --iterations 250
          coordinate file            : pipeline_data/3_conformer_xyz/acrylates/rdkit/QIWKUEJZZCOPFV-UHFFFAOYSA-N_conf219.xyz
          omp threads                :                    24

########################################################################
[WARNING] Please study the warnings concerning your input carefully
-1- readin_getIntValue: could not parse '2-xTB'
########################################################################

           -------------------------------------------------
          |                 G F N 2 - x T B                 |
           -------------------------------------------------

        Reference                      10.1021/acs.jctc.8b01176
      * Hamiltonian:
        H0-scaling (s, p, d)           1.850000    2.230000    2.230000
        zeta-weighting                 0.500000
      * Dispersion:
        s8                             2.700000
        a1                             0.520000
        a2                             5.000000
        s9                             5.000000
      * Repulsion:
        kExp                           1.500000    1.000000
        rExp                           1.000000
      * Coulomb:
        alpha                          2.000000
        third order                    shell-resolved
        anisotropic                    true
        a3                             3.000000
        a5                             4.000000
        cn-shift                       1.200000
        cn-exp                         4.000000
        max-rad                        5.000000

q/qsh data taken from xtbrestart
CAMM data taken from xtbrestart

          ...................................................
          :                      SETUP                      :
          :.................................................:
          :  # basis functions                  58          :
          :  # atomic orbitals                  58          :
          :  # shells                           34          :
          :  # electrons                        62          :
          :  max. iterations                   250          :
          :  Hamiltonian                  GFN2-xTB          :
          :  restarted?                       true          :
          :  GBSA solvation                  false          :
          :  PC potential                    false          :
          :  electronic temp.          300.0000000     K    :
          :  accuracy                    1.0000000          :
          :  -> integral cutoff          0.2500000E+02      :
          :  -> integral neglect         0.1000000E-07      :
          :  -> SCF convergence          0.1000000E-05 Eh   :
          :  -> wf. convergence          0.1000000E-03 e    :
          :  Broyden damping             0.4000000          :
          :  net charge                          0          :
          :  unpaired electrons                  0          :
          ...................................................

 iter      E             dE          RMSdq      gap      omega  full diag
   1    -35.0905814 -0.350906E+02  0.486E+00    3.23       0.0  T
   2    -35.0965163 -0.593491E-02  0.290E+00    3.30       1.0  T
   3    -35.0815600  0.149562E-01  0.848E-01    3.19       1.0  T
   4    -35.0994932 -0.179332E-01  0.206E-01    3.29       1.0  T
   5    -35.0997579 -0.264666E-03  0.105E-01    3.28       1.0  T
   6    -35.0998290 -0.711115E-04  0.569E-02    3.29       1.0  T
   7    -35.0998531 -0.241086E-04  0.109E-02    3.29       1.9  T
   8    -35.0998534 -0.280576E-06  0.521E-03    3.29       4.1  T
   9    -35.0998535 -0.141747E-06  0.248E-03    3.29       8.6  T
  10    -35.0998535 -0.205510E-07  0.886E-04    3.29      24.1  T
  11    -35.0998536 -0.218660E-08  0.429E-04    3.29      49.7  T

   *** convergence criteria satisfied after 11 iterations ***

         #    Occupation            Energy/Eh            Energy/eV
      -------------------------------------------------------------
         1        2.0000           -0.7331172             -19.9491
       ...           ...                  ...                  ...
        25        2.0000           -0.4546095             -12.3706
        26        2.0000           -0.4435699             -12.0702
        27        2.0000           -0.4272703             -11.6266
        28        2.0000           -0.4202541             -11.4357
        29        2.0000           -0.4166696             -11.3382
        30        2.0000           -0.4157047             -11.3119
        31        2.0000           -0.4044414             -11.0054 (HOMO)
        32                         -0.2836224              -7.7178 (LUMO)
        33                         -0.2363184              -6.4306
        34                         -0.2336210              -6.3572
        35                         -0.1704546              -4.6383
        36                         -0.1069125              -2.9092
       ...                                ...                  ...
        58                          0.6492149              17.6660
      -------------------------------------------------------------
                  HL-Gap            0.1208190 Eh            3.2877 eV
             Fermi-level           -0.3440319 Eh           -9.3616 eV

 SCC (total)                   0 d,  0 h,  0 min,  0.029 sec
 SCC setup                      ...        0 min,  0.000 sec (  0.758%)
 Dispersion                     ...        0 min,  0.000 sec (  0.758%)
 classical contributions        ...        0 min,  0.000 sec (  0.190%)
 integral evaluation            ...        0 min,  0.001 sec (  3.963%)
 iterations                     ...        0 min,  0.025 sec ( 85.000%)
 molecular gradient             ...        0 min,  0.003 sec (  8.719%)
 printout                       ...        0 min,  0.000 sec (  0.513%)

         :::::::::::::::::::::::::::::::::::::::::::::::::::::
         ::                     SUMMARY                     ::
         :::::::::::::::::::::::::::::::::::::::::::::::::::::
         :: total energy             -34.599236987537 Eh    ::
         :: gradient norm              0.123502777433 Eh/a0 ::
         :: HOMO-LUMO gap              3.287652907260 eV    ::
         ::.................................................::
         :: SCC energy               -35.099889341810 Eh    ::
         :: -> isotropic ES            0.050101060115 Eh    ::
         :: -> anisotropic ES         -0.000514376103 Eh    ::
         :: -> anisotropic XC          0.015633039712 Eh    ::
         :: -> dispersion             -0.017912035648 Eh    ::
         :: repulsion energy           0.500652354273 Eh    ::
         :: add. restraining           0.000000000000 Eh    ::
         :: total charge              -0.000000000000 e     ::
         :::::::::::::::::::::::::::::::::::::::::::::::::::::

      ----------------------------------------------------------- 
     |                   =====================                   |
     |                        A N C O P T                        |
     |                   =====================                   |
     |               Approximate Normal Coordinate               |
     |                Rational Function Optimizer                |
      ----------------------------------------------------------- 
      ----------------------------------------------------------- 
     |                   =====================                   |
     |                        A N C O P T                        |
     |                   =====================                   |
     |               Approximate Normal Coordinate               |
     |                Rational Function Optimizer                |
      ----------------------------------------------------------- 

          ...................................................
          :                      SETUP                      :
          :.................................................:
          :   optimization level            normal          :
          :   max. optcycles                   200          :
          :   ANC micro-cycles                  20          :
          :   degrees of freedom                60          :
          :.................................................:
          :   RF solver                   davidson          :
          :   write xtbopt.log                true          :
          :   linear?                        false          :
          :   energy convergence         0.5000000E-05 Eh   :
          :   grad. convergence          0.1000000E-02 Eh/α :
          :   maxmium RF displ.          1.0000000          :
          :   Hlow (freq-cutoff)         0.1000000E-01      :
          :   Hmax (freq-cutoff)         5.0000000          :
          :   S6 in model hess.         20.0000000          :
          ...................................................

generating ANC from exact Hessian ...
Using Lindh-Hessian (1995)
 Shifting diagonal of input Hessian by   8.997722123695564E-003
 Lowest  eigenvalues of input Hessian
    0.000000    0.000000    0.000000    0.000000    0.000000    0.000000
    0.010000    0.010298    0.010782    0.016338    0.017531    0.018304
    0.021192    0.021913    0.023738    0.028695    0.031810    0.033871
 Highest eigenvalues
    1.800953    1.874109    1.903526    2.005212    2.065563    2.130635
 

........................................................................
.............................. CYCLE    1 ..............................
........................................................................

 iter      E             dE          RMSdq      gap      omega  full diag
   1    -35.0998536 -0.350999E+02  0.125E-04    3.29       0.0  T
   2    -35.0998536 -0.303544E-10  0.756E-05    3.29     282.1  T
   3    -35.0998536 -0.233058E-11  0.528E-05    3.29     403.6  T
     SCC iter.                  ...        0 min,  0.003 sec
     gradient                   ...        0 min,  0.002 sec
 * total energy  :   -34.5992370 Eh     change       -0.1759389E-08 Eh
   gradient norm :     0.1235103 Eh/α   predicted     0.0000000E+00 (-100.00%)
   displ. norm   :     0.2789905 α      lambda       -0.1505636E-01
   maximum displ.:     0.1663819 α      in ANC's #8, #21, #10, ...

........................................................................
.............................. CYCLE    2 ..............................
........................................................................

 iter      E             dE          RMSdq      gap      omega  full diag
   1    -35.1274057 -0.351274E+02  0.276E-01    3.49       0.0  T
   2    -35.1276940 -0.288379E-03  0.171E-01    3.50       1.0  T
   3    -35.1276854  0.863622E-05  0.722E-02    3.50       1.0  T
   4    -35.1277059 -0.205249E-04  0.265E-02    3.49       1.0  T
   5    -35.1277170 -0.110442E-04  0.936E-03    3.49       2.3  T
   6    -35.1277181 -0.112157E-05  0.416E-03    3.49       5.1  T
   7    -35.1277182 -0.114449E-06  0.181E-03    3.49      11.8  T
   8    -35.1277182 -0.221173E-07  0.803E-04    3.49      26.6  T
   9    -35.1277182 -0.303985E-08  0.335E-04    3.49      63.7  T
     SCC iter.                  ...        0 min,  0.016 sec
     gradient                   ...        0 min,  0.003 sec
 * total energy  :   -34.6096168 Eh     change       -0.1037983E-01 Eh
   gradient norm :     0.0496567 Eh/α   predicted    -0.8120758E-02 ( -21.76%)
   displ. norm   :     0.2822511 α      lambda       -0.4530703E-02
   maximum displ.:     0.2336538 α      in ANC's #8, #10, #13, ...

........................................................................
.............................. CYCLE    3 ..............................
........................................................................

 iter      E             dE          RMSdq      gap      omega  full diag
   1    -35.1426531 -0.351427E+02  0.197E-01    3.63       0.0  T
   2    -35.1427898 -0.136632E-03  0.117E-01    3.65       1.0  T
   3    -35.1427890  0.776699E-06  0.438E-02    3.64       1.0  T
   4    -35.1427915 -0.247677E-05  0.166E-02    3.64       1.3  T
   5    -35.1427959 -0.447166E-05  0.590E-03    3.64       3.6  T
   6    -35.1427964 -0.418569E-06  0.227E-03    3.64       9.4  T
   7    -35.1427964 -0.478789E-07  0.891E-04    3.64      23.9  T
   8    -35.1427964 -0.694212E-08  0.388E-04    3.64      54.9  T
     SCC iter.                  ...        0 min,  0.006 sec
     gradient                   ...        0 min,  0.002 sec
 * total energy  :   -34.6121077 Eh     change       -0.2490926E-02 Eh
   gradient norm :     0.0133767 Eh/α   predicted    -0.2447471E-02 (  -1.74%)
   displ. norm   :     0.1360393 α      lambda       -0.5071572E-03
   maximum displ.:     0.1278756 α      in ANC's #8, #10, #14, ...

........................................................................
.............................. CYCLE    4 ..............................
........................................................................

 iter      E             dE          RMSdq      gap      omega  full diag
   1    -35.1424887 -0.351425E+02  0.652E-02    3.64       0.0  T
   2    -35.1424921 -0.340799E-05  0.398E-02    3.64       1.0  T
   3    -35.1424855  0.663348E-05  0.212E-02    3.65       1.0  T
   4    -35.1424931 -0.758421E-05  0.421E-03    3.64       5.1  T
   5    -35.1424934 -0.268646E-06  0.113E-03    3.64      18.9  T
   6    -35.1424934 -0.877156E-08  0.646E-04    3.64      33.0  T
   7    -35.1424934 -0.157381E-08  0.248E-04    3.64      86.0  T
     SCC iter.                  ...        0 min,  0.005 sec
     gradient                   ...        0 min,  0.002 sec
 * total energy  :   -34.6124370 Eh     change       -0.3292793E-03 Eh
   gradient norm :     0.0052525 Eh/α   predicted    -0.2583001E-03 ( -21.56%)
   displ. norm   :     0.0964394 α      lambda       -0.1477481E-03
   maximum displ.:     0.0888684 α      in ANC's #8, #4, #10, ...

........................................................................
.............................. CYCLE    5 ..............................
........................................................................

 iter      E             dE          RMSdq      gap      omega  full diag
   1    -35.1422244 -0.351422E+02  0.447E-02    3.64       0.0  T
   2    -35.1422261 -0.168296E-05  0.270E-02    3.64       1.0  T
   3    -35.1422254  0.684542E-06  0.707E-03    3.65       3.0  T
   4    -35.1422261 -0.616323E-06  0.338E-03    3.64       6.3  T
   5    -35.1422263 -0.220522E-06  0.659E-04    3.64      32.3  T
   6    -35.1422263 -0.443010E-08  0.369E-04    3.64      57.8  T
     SCC iter.                  ...        0 min,  0.005 sec
     gradient                   ...        0 min,  0.002 sec
 * total energy  :   -34.6125189 Eh     change       -0.8184026E-04 Eh
   gradient norm :     0.0025235 Eh/α   predicted    -0.7459726E-04 (  -8.85%)
   displ. norm   :     0.0358421 α      lambda       -0.2992335E-04
   maximum displ.:     0.0270366 α      in ANC's #8, #11, #4, ...

........................................................................
.............................. CYCLE    6 ..............................
........................................................................

 iter      E             dE          RMSdq      gap      omega  full diag
   1    -35.1424467 -0.351424E+02  0.197E-02    3.65       0.0  T
   2    -35.1424469 -0.202111E-06  0.117E-02    3.65       1.8  T
   3    -35.1424465  0.328244E-06  0.461E-03    3.65       4.6  T
   4    -35.1424469 -0.356606E-06  0.132E-03    3.65      16.1  T
   5    -35.1424469 -0.280484E-07  0.318E-04    3.65      67.0  T
   6    -35.1424469 -0.567674E-09  0.179E-04    3.65     119.3  T
     SCC iter.                  ...        0 min,  0.005 sec
     gradient                   ...        0 min,  0.002 sec
 * total energy  :   -34.6125359 Eh     change       -0.1706692E-04 Eh
   gradient norm :     0.0014986 Eh/α   predicted    -0.1498209E-04 ( -12.22%)
   displ. norm   :     0.0373377 α      lambda       -0.1197403E-04
   maximum displ.:     0.0234432 α      in ANC's #4, #6, #8, ...

........................................................................
.............................. CYCLE    7 ..............................
........................................................................

 iter      E             dE          RMSdq      gap      omega  full diag
   1    -35.1427153 -0.351427E+02  0.168E-02    3.65       0.0  T
   2    -35.1427154 -0.123571E-06  0.996E-03    3.65       2.1  T
   3    -35.1427149  0.527887E-06  0.619E-03    3.65       3.4  T
   4    -35.1427155 -0.634263E-06  0.851E-04    3.65      25.0  T
   5    -35.1427156 -0.670033E-08  0.340E-04    3.65      62.8  T
     SCC iter.                  ...        0 min,  0.004 sec
     gradient                   ...        0 min,  0.002 sec
 * total energy  :   -34.6125447 Eh     change       -0.8777703E-05 Eh
   gradient norm :     0.0010389 Eh/α   predicted    -0.6000926E-05 ( -31.63%)
   displ. norm   :     0.0268830 α      lambda       -0.5288464E-05
   maximum displ.:     0.0209485 α      in ANC's #4, #6, #1, ...

........................................................................
.............................. CYCLE    8 ..............................
........................................................................

 iter      E             dE          RMSdq      gap      omega  full diag
   1    -35.1427536 -0.351428E+02  0.127E-02    3.65       0.0  T
   2    -35.1427536 -0.221915E-07  0.755E-03    3.65       2.8  T
   3    -35.1427535  0.112501E-06  0.255E-03    3.65       8.4  T
   4    -35.1427536 -0.125124E-06  0.393E-04    3.65      54.3  T
   5    -35.1427536 -0.204630E-08  0.175E-04    3.65     121.9  T
     SCC iter.                  ...        0 min,  0.004 sec
     gradient                   ...        0 min,  0.002 sec
 * total energy  :   -34.6125502 Eh     change       -0.5537787E-05 Eh
   gradient norm :     0.0010071 Eh/α   predicted    -0.2645820E-05 ( -52.22%)
   displ. norm   :     0.0929961 α      lambda       -0.1286441E-04
   maximum displ.:     0.0739419 α      in ANC's #4, #6, #1, ...

........................................................................
.............................. CYCLE    9 ..............................
........................................................................

 iter      E             dE          RMSdq      gap      omega  full diag
   1    -35.1425759 -0.351426E+02  0.346E-02    3.65       0.0  T
   2    -35.1425761 -0.164780E-06  0.205E-02    3.66       1.0  T
   3    -35.1425757  0.371742E-06  0.477E-03    3.65       4.5  T
   4    -35.1425761 -0.414555E-06  0.104E-03    3.66      20.6  T
   5    -35.1425762 -0.168548E-07  0.410E-04    3.66      52.0  T
   6    -35.1425762 -0.628184E-09  0.218E-04    3.66      97.7  T
     SCC iter.                  ...        0 min,  0.005 sec
     gradient                   ...        0 min,  0.002 sec
 * total energy  :   -34.6125660 Eh     change       -0.1573463E-04 Eh
   gradient norm :     0.0016279 Eh/α   predicted    -0.6457511E-05 ( -58.96%)
   displ. norm   :     0.1508974 α      lambda       -0.1970339E-04
   maximum displ.:     0.1185498 α      in ANC's #4, #6, #1, ...

........................................................................
.............................. CYCLE   10 ..............................
........................................................................

 iter      E             dE          RMSdq      gap      omega  full diag
   1    -35.1420255 -0.351420E+02  0.546E-02    3.66       0.0  T
   2    -35.1420258 -0.262989E-06  0.323E-02    3.66       1.0  T
   3    -35.1420254  0.394763E-06  0.510E-03    3.66       4.2  T
   4    -35.1420258 -0.456497E-06  0.139E-03    3.66      15.3  T
   5    -35.1420259 -0.250258E-07  0.627E-04    3.66      34.0  T
   6    -35.1420259 -0.692850E-09  0.285E-04    3.66      74.9  T
     SCC iter.                  ...        0 min,  0.005 sec
     gradient                   ...        0 min,  0.002 sec
 * total energy  :   -34.6125923 Eh     change       -0.2636471E-04 Eh
   gradient norm :     0.0028629 Eh/α   predicted    -0.9951991E-05 ( -62.25%)
   displ. norm   :     0.1289201 α      lambda       -0.2968480E-04
   maximum displ.:     0.0997951 α      in ANC's #4, #6, #1, ...

........................................................................
.............................. CYCLE   11 ..............................
........................................................................

 iter      E             dE          RMSdq      gap      omega  full diag
   1    -35.1416560 -0.351417E+02  0.465E-02    3.66       0.0  T
   2    -35.1416562 -0.157337E-06  0.274E-02    3.66       1.0  T
   3    -35.1416560  0.170212E-06  0.346E-03    3.66       6.2  T
   4    -35.1416562 -0.201899E-06  0.112E-03    3.66      19.0  T
   5    -35.1416562 -0.161102E-07  0.484E-04    3.66      44.1  T
   6    -35.1416562 -0.251731E-09  0.194E-04    3.66     109.8  T
     SCC iter.                  ...        0 min,  0.005 sec
     gradient                   ...        0 min,  0.003 sec
 * total energy  :   -34.6126186 Eh     change       -0.2622328E-04 Eh
   gradient norm :     0.0037865 Eh/α   predicted    -0.1509038E-04 ( -42.45%)
   displ. norm   :     0.2027806 α      lambda       -0.5190106E-04
   maximum displ.:     0.1574413 α      in ANC's #4, #6, #1, ...

........................................................................
.............................. CYCLE   12 ..............................
........................................................................

 iter      E             dE          RMSdq      gap      omega  full diag
   1    -35.1409007 -0.351409E+02  0.750E-02    3.66       0.0  T
   2    -35.1409011 -0.451172E-06  0.442E-02    3.66       1.0  T
   3    -35.1409008  0.379822E-06  0.525E-03    3.66       4.1  T
   4    -35.1409012 -0.448020E-06  0.192E-03    3.66      11.1  T
   5    -35.1409013 -0.508137E-07  0.759E-04    3.66      28.1  T
   6    -35.1409013 -0.418673E-09  0.280E-04    3.66      76.3  T
     SCC iter.                  ...        0 min,  0.005 sec
     gradient                   ...        0 min,  0.002 sec
 * total energy  :   -34.6126557 Eh     change       -0.3710330E-04 Eh
   gradient norm :     0.0055443 Eh/α   predicted    -0.2701977E-04 ( -27.18%)
   displ. norm   :     0.1627571 α      lambda       -0.5616816E-04
   maximum displ.:     0.1283097 α      in ANC's #4, #6, #1, ...

........................................................................
.............................. CYCLE   13 ..............................
........................................................................

 iter      E             dE          RMSdq      gap      omega  full diag
   1    -35.1408377 -0.351408E+02  0.651E-02    3.66       0.0  T
   2    -35.1408378 -0.130742E-06  0.384E-02    3.66       1.0  T
   3    -35.1408377  0.163097E-06  0.351E-03    3.66       6.1  T
   4    -35.1408379 -0.228582E-06  0.106E-03    3.66      20.1  T
   5    -35.1408379 -0.538582E-08  0.516E-04    3.66      41.3  T
   6    -35.1408379 -0.216396E-09  0.185E-04    3.66     115.3  T
     SCC iter.                  ...        0 min,  0.005 sec
     gradient                   ...        0 min,  0.002 sec
 * total energy  :   -34.6126991 Eh     change       -0.4342105E-04 Eh
   gradient norm :     0.0057528 Eh/α   predicted    -0.2883184E-04 ( -33.60%)
   displ. norm   :     0.1813259 α      lambda       -0.1137877E-03
   maximum displ.:     0.1445740 α      in ANC's #4, #1, #6, ...

........................................................................
.............................. CYCLE   14 ..............................
........................................................................

 iter      E             dE          RMSdq      gap      omega  full diag
   1    -35.1424413 -0.351424E+02  0.827E-02    3.66       0.0  T
   2    -35.1424418 -0.511977E-06  0.486E-02    3.66       1.0  T
   3    -35.1424414  0.395816E-06  0.524E-03    3.66       4.1  T
   4    -35.1424419 -0.518468E-06  0.205E-03    3.66      10.4  T
   5    -35.1424420 -0.473353E-07  0.901E-04    3.66      23.7  T
   6    -35.1424420 -0.699650E-09  0.434E-04    3.66      49.1  T
     SCC iter.                  ...        0 min,  0.005 sec
     gradient                   ...        0 min,  0.003 sec
 * total energy  :   -34.6127723 Eh     change       -0.7324117E-04 Eh
   gradient norm :     0.0034261 Eh/α   predicted    -0.5876558E-04 ( -19.76%)
   displ. norm   :     0.4507489 α      lambda       -0.1333814E-03
   maximum displ.:     0.3665750 α      in ANC's #4, #6, #1, ...

........................................................................
.............................. CYCLE   15 ..............................
........................................................................

 iter      E             dE          RMSdq      gap      omega  full diag
   1    -35.1387717 -0.351388E+02  0.183E-01    3.67       0.0  T
   2    -35.1387799 -0.822945E-05  0.107E-01    3.67       1.0  T
   3    -35.1387683  0.115881E-04  0.268E-02    3.66       1.0  T
   4    -35.1387807 -0.123970E-04  0.757E-03    3.67       2.8  T
   5    -35.1387817 -0.954891E-06  0.213E-03    3.67      10.0  T
   6    -35.1387817  0.340522E-08  0.104E-03    3.67      20.5  T
   7    -35.1387817 -0.117323E-07  0.276E-04    3.67      77.3  T
   8    -35.1387817 -0.916572E-09  0.104E-04    3.67     205.6  T
     SCC iter.                  ...        0 min,  0.006 sec
     gradient                   ...        0 min,  0.002 sec
 * total energy  :   -34.6127348 Eh     change        0.3758005E-04 Eh
   gradient norm :     0.0107701 Eh/α   predicted    -0.8024219E-04 (-313.52%)
   displ. norm   :     0.2115497 α      lambda       -0.3044497E-03
   maximum displ.:     0.1644535 α      in ANC's #4, #6, #1, ...

........................................................................
.............................. CYCLE   16 ..............................
........................................................................

 iter      E             dE          RMSdq      gap      omega  full diag
   1    -35.1432101 -0.351432E+02  0.874E-02    3.67       0.0  T
   2    -35.1432149 -0.480339E-05  0.503E-02    3.67       1.0  T
   3    -35.1432141  0.749645E-06  0.108E-02    3.67       2.0  T
   4    -35.1432148 -0.713483E-06  0.507E-03    3.67       4.2  T
   5    -35.1432153 -0.453070E-06  0.148E-03    3.67      14.4  T
   6    -35.1432153 -0.737244E-08  0.663E-04    3.67      32.2  T
   7    -35.1432153 -0.220731E-08  0.177E-04    3.67     120.1  T
     SCC iter.                  ...        0 min,  0.006 sec
     gradient                   ...        0 min,  0.002 sec
 * total energy  :   -34.6128523 Eh     change       -0.1175608E-03 Eh
   gradient norm :     0.0020949 Eh/α   predicted    -0.1590417E-03 (  35.28%)
   displ. norm   :     0.1009620 α      lambda       -0.3382014E-04
   maximum displ.:     0.0853997 α      in ANC's #4, #6, #1, ...

........................................................................
.............................. CYCLE   17 ..............................
........................................................................

 iter      E             dE          RMSdq      gap      omega  full diag
   1    -35.1432328 -0.351432E+02  0.420E-02    3.67       0.0  T
   2    -35.1432329 -0.129335E-06  0.248E-02    3.67       1.0  T
   3    -35.1432315  0.137658E-05  0.873E-03    3.67       2.4  T
   4    -35.1432331 -0.153451E-05  0.892E-04    3.67      23.9  T
   5    -35.1432331 -0.470285E-08  0.527E-04    3.67      40.5  T
   6    -35.1432331 -0.493202E-09  0.250E-04    3.67      85.4  T
     SCC iter.                  ...        0 min,  0.005 sec
     gradient                   ...        0 min,  0.002 sec
 * total energy  :   -34.6128845 Eh     change       -0.3213771E-04 Eh
   gradient norm :     0.0020310 Eh/α   predicted    -0.1708484E-04 ( -46.84%)
   displ. norm   :     0.6320725 α      lambda       -0.2055896E-03
   maximum displ.:     0.5375064 α      in ANC's #4, #6, #1, ...

........................................................................
.............................. CYCLE   18 ..............................
........................................................................

 iter      E             dE          RMSdq      gap      omega  full diag
   1    -35.1377051 -0.351377E+02  0.264E-01    3.69       0.0  T
   2    -35.1377232 -0.180383E-04  0.154E-01    3.69       1.0  T
   3    -35.1376738  0.493787E-04  0.552E-02    3.68       1.0  T
   4    -35.1377291 -0.553390E-04  0.984E-03    3.69       2.2  T
   5    -35.1377305 -0.133772E-05  0.391E-03    3.69       5.5  T
   6    -35.1377305 -0.322772E-07  0.220E-03    3.69       9.7  T
   7    -35.1377305 -0.314288E-07  0.541E-04    3.69      39.4  T
   8    -35.1377305 -0.325664E-08  0.193E-04    3.69     110.6  T
     SCC iter.                  ...        0 min,  0.006 sec
     gradient                   ...        0 min,  0.003 sec
 * total energy  :   -34.6127640 Eh     change        0.1204524E-03 Eh
   gradient norm :     0.0149504 Eh/α   predicted    -0.1438906E-03 (-219.46%)
   displ. norm   :     0.3362076 α      lambda       -0.6476683E-03
   maximum displ.:     0.2832100 α      in ANC's #4, #6, #1, ...

........................................................................
.............................. CYCLE   19 ..............................
........................................................................

 iter      E             dE          RMSdq      gap      omega  full diag
   1    -35.1436826 -0.351437E+02  0.140E-01    3.69       0.0  T
   2    -35.1436941 -0.114818E-04  0.809E-02    3.69       1.0  T
   3    -35.1436842  0.988926E-05  0.280E-02    3.69       1.0  T
   4    -35.1436950 -0.107539E-04  0.839E-03    3.69       2.5  T
   5    -35.1436961 -0.119528E-05  0.241E-03    3.69       8.8  T
   6    -35.1436962 -0.220681E-07  0.130E-03    3.69      16.4  T
   7    -35.1436962 -0.717772E-08  0.375E-04    3.69      56.9  T
   8    -35.1436962 -0.164992E-08  0.132E-04    3.69     161.1  T
     SCC iter.                  ...        0 min,  0.006 sec
     gradient                   ...        0 min,  0.002 sec
 * total energy  :   -34.6129804 Eh     change       -0.2164213E-03 Eh
   gradient norm :     0.0017107 Eh/α   predicted    -0.3604040E-03 (  66.53%)
   displ. norm   :     0.1284552 α      lambda       -0.3194906E-04
   maximum displ.:     0.1055485 α      in ANC's #4, #2, #3, ...

........................................................................
.............................. CYCLE   20 ..............................
........................................................................

 iter      E             dE          RMSdq      gap      omega  full diag
   1    -35.1434699 -0.351435E+02  0.548E-02    3.69       0.0  T
   2    -35.1434703 -0.360923E-06  0.321E-02    3.69       1.0  T
   3    -35.1434678  0.250329E-05  0.120E-02    3.69       1.8  T
   4    -35.1434706 -0.284257E-05  0.153E-03    3.69      13.9  T
   5    -35.1434707 -0.186919E-07  0.890E-04    3.69      24.0  T
   6    -35.1434707 -0.173841E-08  0.414E-04    3.69      51.5  T
     SCC iter.                  ...        0 min,  0.005 sec
     gradient                   ...        0 min,  0.002 sec
 * total energy  :   -34.6130237 Eh     change       -0.4324510E-04 Eh
   gradient norm :     0.0018282 Eh/α   predicted    -0.1609569E-04 ( -62.78%)
   displ. norm   :     0.6031420 α      lambda       -0.1267045E-03
   maximum displ.:     0.4943575 α      in ANC's #4, #2, #3, ...
 * RMSD in coord.:     0.5172528 α      energy gain  -0.1378668E-01 Eh

generating ANC from exact Hessian ...
Using Lindh-Hessian (1995)
 Shifting diagonal of input Hessian by   8.822903746836223E-003
 Lowest  eigenvalues of input Hessian
    0.000000    0.000000    0.000000    0.000000    0.000000    0.000000
    0.010000    0.010086    0.010862    0.016516    0.017226    0.018976
    0.021516    0.021954    0.024659    0.029138    0.032472    0.035211
 Highest eigenvalues
    1.824157    1.905092    1.908552    2.028517    2.098644    2.361277
 

........................................................................
.............................. CYCLE   21 ..............................
........................................................................

 iter      E             dE          RMSdq      gap      omega  full diag
   1    -35.1372169 -0.351372E+02  0.269E-01    3.70       0.0  T
   2    -35.1372337 -0.167985E-04  0.157E-01    3.71       1.0  T
   3    -35.1371891  0.445691E-04  0.526E-02    3.70       1.0  T
   4    -35.1372403 -0.512129E-04  0.990E-03    3.70       2.2  T
   5    -35.1372415 -0.116649E-05  0.470E-03    3.70       4.5  T
   6    -35.1372416 -0.585507E-07  0.258E-03    3.70       8.3  T
   7    -35.1372416 -0.436095E-07  0.615E-04    3.70      34.6  T
   8    -35.1372416 -0.425308E-08  0.233E-04    3.70      91.7  T
     SCC iter.                  ...        0 min,  0.006 sec
     gradient                   ...        0 min,  0.002 sec
 * total energy  :   -34.6128785 Eh     change        0.1451971E-03 Eh
   gradient norm :     0.0161348 Eh/α   predicted     0.0000000E+00 (-100.00%)
   displ. norm   :     0.0494203 α      lambda       -0.5018844E-03
   maximum displ.:     0.0211831 α      in ANC's #1, #38, #2, ...

........................................................................
.............................. CYCLE   22 ..............................
........................................................................

 iter      E             dE          RMSdq      gap      omega  full diag
   1    -35.1429307 -0.351429E+02  0.488E-02    3.73       0.0  T
   2    -35.1429372 -0.657387E-05  0.276E-02    3.72       1.0  T
   3    -35.1429367  0.501435E-06  0.134E-02    3.72       1.6  T
   4    -35.1429377 -0.984581E-06  0.553E-03    3.72       3.9  T
   5    -35.1429382 -0.439148E-06  0.170E-03    3.72      12.5  T
   6    -35.1429382 -0.179419E-07  0.967E-04    3.72      22.0  T
   7    -35.1429382 -0.167309E-08  0.298E-04    3.72      71.4  T
     SCC iter.                  ...        0 min,  0.005 sec
     gradient                   ...        0 min,  0.002 sec
 * total energy  :   -34.6131758 Eh     change       -0.2972924E-03 Eh
   gradient norm :     0.0033850 Eh/α   predicted    -0.2515553E-03 ( -15.38%)
   displ. norm   :     0.0400207 α      lambda       -0.3853955E-04
   maximum displ.:     0.0299971 α      in ANC's #1, #2, #4, ...

........................................................................
.............................. CYCLE   23 ..............................
........................................................................

 iter      E             dE          RMSdq      gap      omega  full diag
   1    -35.1442627 -0.351443E+02  0.247E-02    3.73       0.0  T
   2    -35.1442632 -0.519917E-06  0.143E-02    3.73       1.5  T
   3    -35.1442629  0.281792E-06  0.518E-03    3.73       4.1  T
   4    -35.1442633 -0.352965E-06  0.153E-03    3.73      13.9  T
   5    -35.1442633 -0.375362E-07  0.486E-04    3.73      43.9  T
   6    -35.1442633 -0.189677E-08  0.271E-04    3.73      78.6  T
     SCC iter.                  ...        0 min,  0.005 sec
     gradient                   ...        0 min,  0.002 sec
 * total energy  :   -34.6132016 Eh     change       -0.2585402E-04 Eh
   gradient norm :     0.0011328 Eh/α   predicted    -0.2010040E-04 ( -22.25%)
   displ. norm   :     0.0798323 α      lambda       -0.2088457E-04
   maximum displ.:     0.0576458 α      in ANC's #1, #2, #4, ...

........................................................................
.............................. CYCLE   24 ..............................
........................................................................

 iter      E             dE          RMSdq      gap      omega  full diag
   1    -35.1448845 -0.351449E+02  0.432E-02    3.73       0.0  T
   2    -35.1448852 -0.656598E-06  0.254E-02    3.73       1.0  T
   3    -35.1448847  0.447679E-06  0.555E-03    3.73       3.8  T
   4    -35.1448853 -0.566458E-06  0.113E-03    3.73      18.9  T
   5    -35.1448853 -0.217956E-07  0.531E-04    3.73      40.2  T
   6    -35.1448853 -0.141198E-08  0.301E-04    3.73      70.9  T
     SCC iter.                  ...        0 min,  0.005 sec
     gradient                   ...        0 min,  0.002 sec
 * total energy  :   -34.6132250 Eh     change       -0.2337780E-04 Eh
   gradient norm :     0.0022112 Eh/α   predicted    -0.1047230E-04 ( -55.20%)
   displ. norm   :     0.0924378 α      lambda       -0.3296652E-04
   maximum displ.:     0.0655387 α      in ANC's #1, #2, #4, ...

........................................................................
.............................. CYCLE   25 ..............................
........................................................................

 iter      E             dE          RMSdq      gap      omega  full diag
   1    -35.1447457 -0.351447E+02  0.496E-02    3.73       0.0  T
   2    -35.1447462 -0.486108E-06  0.291E-02    3.73       1.0  T
   3    -35.1447458  0.436109E-06  0.482E-03    3.73       4.4  T
   4    -35.1447463 -0.544062E-06  0.114E-03    3.73      18.8  T
   5    -35.1447463 -0.205623E-07  0.554E-04    3.73      38.5  T
   6    -35.1447463 -0.300659E-09  0.324E-04    3.73      65.8  T
     SCC iter.                  ...        0 min,  0.005 sec
     gradient                   ...        0 min,  0.002 sec
 * total energy  :   -34.6132563 Eh     change       -0.3128101E-04 Eh
   gradient norm :     0.0025939 Eh/α   predicted    -0.1662609E-04 ( -46.85%)
   displ. norm   :     0.2274278 α      lambda       -0.8198190E-04
   maximum displ.:     0.1524586 α      in ANC's #1, #2, #4, ...

........................................................................
.............................. CYCLE   26 ..............................
........................................................................

 iter      E             dE          RMSdq      gap      omega  full diag
   1    -35.1434343 -0.351434E+02  0.120E-01    3.73       0.0  T
   2    -35.1434365 -0.215563E-05  0.704E-02    3.73       1.0  T
   3    -35.1434344  0.210540E-05  0.102E-02    3.73       2.1  T
   4    -35.1434371 -0.271366E-05  0.256E-03    3.73       8.3  T
   5    -35.1434372 -0.840853E-07  0.132E-03    3.73      16.2  T
   6    -35.1434372  0.203229E-09  0.498E-04    3.73      42.8  T
   7    -35.1434372 -0.295346E-08  0.150E-04    3.73     142.2  T
     SCC iter.                  ...        0 min,  0.005 sec
     gradient                   ...        0 min,  0.002 sec
 * total energy  :   -34.6133291 Eh     change       -0.7279072E-04 Eh
   gradient norm :     0.0040999 Eh/α   predicted    -0.4311526E-04 ( -40.77%)
   displ. norm   :     0.3498734 α      lambda       -0.1085216E-03
   maximum displ.:     0.2353258 α      in ANC's #1, #2, #4, ...

........................................................................
.............................. CYCLE   27 ..............................
........................................................................

 iter      E             dE          RMSdq      gap      omega  full diag
   1    -35.1404540 -0.351405E+02  0.186E-01    3.72       0.0  T
   2    -35.1404584 -0.438698E-05  0.109E-01    3.71       1.0  T
   3    -35.1404531  0.532473E-05  0.165E-02    3.71       1.3  T
   4    -35.1404599 -0.687010E-05  0.389E-03    3.71       5.5  T
   5    -35.1404601 -0.122828E-06  0.229E-03    3.71       9.3  T
   6    -35.1404601 -0.170897E-08  0.144E-03    3.71      14.8  T
   7    -35.1404601 -0.229326E-07  0.255E-04    3.71      83.6  T
   8    -35.1404601 -0.715644E-09  0.116E-04    3.71     184.4  T
     SCC iter.                  ...        0 min,  0.006 sec
     gradient                   ...        0 min,  0.002 sec
 * total energy  :   -34.6133884 Eh     change       -0.5931951E-04 Eh
   gradient norm :     0.0095452 Eh/α   predicted    -0.6090855E-04 (   2.68%)
   displ. norm   :     0.0451594 α      lambda       -0.5882239E-04
   maximum displ.:     0.0381738 α      in ANC's #1, #2, #4, ...

........................................................................
.............................. CYCLE   28 ..............................
........................................................................

 iter      E             dE          RMSdq      gap      omega  full diag
   1    -35.1417742 -0.351418E+02  0.278E-02    3.72       0.0  T
   2    -35.1417747 -0.473001E-06  0.163E-02    3.72       1.3  T
   3    -35.1417741  0.573665E-06  0.611E-03    3.72       3.5  T
   4    -35.1417748 -0.625281E-06  0.170E-03    3.72      12.6  T
   5    -35.1417748 -0.504184E-07  0.400E-04    3.72      53.3  T
   6    -35.1417748 -0.105987E-08  0.237E-04    3.72      89.8  T
     SCC iter.                  ...        0 min,  0.005 sec
     gradient                   ...        0 min,  0.002 sec
 * total energy  :   -34.6134397 Eh     change       -0.5127165E-04 Eh
   gradient norm :     0.0066451 Eh/α   predicted    -0.2947023E-04 ( -42.52%)
   displ. norm   :     0.3092079 α      lambda       -0.1998418E-03
   maximum displ.:     0.2508028 α      in ANC's #1, #4, #2, ...

........................................................................
.............................. CYCLE   29 ..............................
........................................................................

 iter      E             dE          RMSdq      gap      omega  full diag
   1    -35.1439218 -0.351439E+02  0.180E-01    3.72       0.0  T
   2    -35.1439259 -0.413164E-05  0.106E-01    3.72       1.0  T
   3    -35.1439137  0.122308E-04  0.255E-02    3.72       1.0  T
   4    -35.1439278 -0.141208E-04  0.470E-03    3.72       4.5  T
   5    -35.1439280 -0.248475E-06  0.238E-03    3.72       9.0  T
   6    -35.1439281 -0.366396E-07  0.128E-03    3.72      16.7  T
   7    -35.1439281 -0.652026E-08  0.284E-04    3.72      75.0  T
   8    -35.1439281 -0.770044E-09  0.113E-04    3.72     188.8  T
     SCC iter.                  ...        0 min,  0.006 sec
     gradient                   ...        0 min,  0.002 sec
 * total energy  :   -34.6135908 Eh     change       -0.1511813E-03 Eh
   gradient norm :     0.0026408 Eh/α   predicted    -0.1094567E-03 ( -27.60%)
   displ. norm   :     0.4831388 α      lambda       -0.1816872E-03
   maximum displ.:     0.3887141 α      in ANC's #1, #4, #2, ...

........................................................................
.............................. CYCLE   30 ..............................
........................................................................

 iter      E             dE          RMSdq      gap      omega  full diag
   1    -35.1412153 -0.351412E+02  0.275E-01    3.70       0.0  T
   2    -35.1412227 -0.739048E-05  0.161E-01    3.69       1.0  T
   3    -35.1412058  0.168697E-04  0.303E-02    3.68       1.0  T
   4    -35.1412263 -0.205139E-04  0.602E-03    3.69       3.5  T
   5    -35.1412266 -0.335626E-06  0.350E-03    3.69       6.1  T
   6    -35.1412267 -0.555887E-07  0.158E-03    3.69      13.5  T
   7    -35.1412267 -0.166953E-07  0.530E-04    3.69      40.3  T
   8    -35.1412267 -0.346320E-08  0.146E-04    3.69     146.5  T
     SCC iter.                  ...        0 min,  0.007 sec
     gradient                   ...        0 min,  0.002 sec
 * total energy  :   -34.6137117 Eh     change       -0.1208984E-03 Eh
   gradient norm :     0.0078951 Eh/α   predicted    -0.1120180E-03 (  -7.35%)
   displ. norm   :     0.2279496 α      lambda       -0.1385288E-03
   maximum displ.:     0.2077899 α      in ANC's #1, #4, #3, ...

........................................................................
.............................. CYCLE   31 ..............................
........................................................................

 iter      E             dE          RMSdq      gap      omega  full diag
   1    -35.1429640 -0.351430E+02  0.131E-01    3.70       0.0  T
   2    -35.1429662 -0.220221E-05  0.768E-02    3.69       1.0  T
   3    -35.1429604  0.573257E-05  0.168E-02    3.69       1.3  T
   4    -35.1429670 -0.658897E-05  0.326E-03    3.69       6.5  T
   5    -35.1429672 -0.122541E-06  0.151E-03    3.69      14.1  T
   6    -35.1429672 -0.149381E-07  0.801E-04    3.69      26.6  T
   7    -35.1429672 -0.254637E-08  0.284E-04    3.69      75.1  T
     SCC iter.                  ...        0 min,  0.006 sec
     gradient                   ...        0 min,  0.002 sec
 * total energy  :   -34.6138135 Eh     change       -0.1017223E-03 Eh
   gradient norm :     0.0064540 Eh/α   predicted    -0.7286301E-04 ( -28.37%)
   displ. norm   :     0.3826811 α      lambda       -0.1582201E-03
   maximum displ.:     0.3455064 α      in ANC's #1, #4, #3, ...

........................................................................
.............................. CYCLE   32 ..............................
........................................................................

 iter      E             dE          RMSdq      gap      omega  full diag
   1    -35.1425824 -0.351426E+02  0.219E-01    3.67       0.0  T
   2    -35.1425889 -0.652430E-05  0.129E-01    3.67       1.0  T
   3    -35.1425839  0.497504E-05  0.161E-02    3.67       1.3  T
   4    -35.1425902 -0.631029E-05  0.466E-03    3.67       4.6  T
   5    -35.1425906 -0.355669E-06  0.218E-03    3.67       9.8  T
   6    -35.1425906  0.306905E-09  0.135E-03    3.67      15.8  T
   7    -35.1425906 -0.182967E-07  0.363E-04    3.67      58.8  T
   8    -35.1425906 -0.163059E-08  0.121E-04    3.67     175.8  T
     SCC iter.                  ...        0 min,  0.006 sec
     gradient                   ...        0 min,  0.002 sec
 * total energy  :   -34.6139212 Eh     change       -0.1077679E-03 Eh
   gradient norm :     0.0059363 Eh/α   predicted    -0.9068874E-04 ( -15.85%)
   displ. norm   :     0.2995644 α      lambda       -0.1947870E-03
   maximum displ.:     0.2792690 α      in ANC's #1, #3, #4, ...

........................................................................
.............................. CYCLE   33 ..............................
........................................................................

 iter      E             dE          RMSdq      gap      omega  full diag
   1    -35.1464787 -0.351465E+02  0.166E-01    3.69       0.0  T
   2    -35.1464859 -0.725617E-05  0.979E-02    3.69       1.0  T
   3    -35.1464776  0.833164E-05  0.236E-02    3.69       1.0  T
   4    -35.1464880 -0.104682E-04  0.339E-03    3.69       6.3  T
   5    -35.1464882 -0.119868E-06  0.169E-03    3.69      12.6  T
   6    -35.1464882 -0.162814E-07  0.874E-04    3.69      24.4  T
   7    -35.1464882 -0.630251E-10  0.445E-04    3.69      47.9  T
     SCC iter.                  ...        0 min,  0.006 sec
     gradient                   ...        0 min,  0.002 sec
 * total energy  :   -34.6140187 Eh     change       -0.9742881E-04 Eh
   gradient norm :     0.0060889 Eh/α   predicted    -0.1061367E-03 (   8.94%)
   displ. norm   :     0.5146547 α      lambda       -0.1653876E-03
   maximum displ.:     0.4624764 α      in ANC's #1, #4, #3, ...

........................................................................
.............................. CYCLE   34 ..............................
........................................................................

 iter      E             dE          RMSdq      gap      omega  full diag
   1    -35.1394130 -0.351394E+02  0.292E-01    3.63       0.0  T
   2    -35.1394213 -0.829630E-05  0.171E-01    3.63       1.0  T
   3    -35.1394163  0.495841E-05  0.184E-02    3.62       1.2  T
   4    -35.1394234 -0.705383E-05  0.608E-03    3.62       3.5  T
   5    -35.1394238 -0.387060E-06  0.319E-03    3.62       6.7  T
   6    -35.1394238 -0.505135E-07  0.171E-03    3.62      12.5  T
   7    -35.1394238 -0.139253E-07  0.509E-04    3.62      41.9  T
   8    -35.1394238 -0.375161E-08  0.175E-04    3.62     121.8  T
     SCC iter.                  ...        0 min,  0.006 sec
     gradient                   ...        0 min,  0.002 sec
 * total energy  :   -34.6140397 Eh     change       -0.2103398E-04 Eh
   gradient norm :     0.0070781 Eh/α   predicted    -0.1046031E-03 ( 397.31%)
   displ. norm   :     0.1474492 α      lambda       -0.1872398E-03
   maximum displ.:     0.1194321 α      in ANC's #1, #4, #2, ...

........................................................................
.............................. CYCLE   35 ..............................
........................................................................

 iter      E             dE          RMSdq      gap      omega  full diag
   1    -35.1451215 -0.351451E+02  0.841E-02    3.65       0.0  T
   2    -35.1451237 -0.212111E-05  0.492E-02    3.65       1.0  T
   3    -35.1451215  0.220569E-05  0.117E-02    3.65       1.8  T
   4    -35.1451240 -0.253093E-05  0.336E-03    3.65       6.3  T
   5    -35.1451242 -0.177255E-06  0.121E-03    3.65      17.6  T
   6    -35.1451242 -0.985496E-08  0.662E-04    3.65      32.2  T
   7    -35.1451242 -0.131799E-08  0.216E-04    3.65      98.5  T
     SCC iter.                  ...        0 min,  0.006 sec
     gradient                   ...        0 min,  0.002 sec
 * total energy  :   -34.6141329 Eh     change       -0.9323463E-04 Eh
   gradient norm :     0.0024908 Eh/α   predicted    -0.9567258E-04 (   2.61%)
   displ. norm   :     0.1389751 α      lambda       -0.4877314E-04
   maximum displ.:     0.1194762 α      in ANC's #1, #3, #7, ...

........................................................................
.............................. CYCLE   36 ..............................
........................................................................

 iter      E             dE          RMSdq      gap      omega  full diag
   1    -35.1456057 -0.351456E+02  0.703E-02    3.65       0.0  T
   2    -35.1456064 -0.634339E-06  0.413E-02    3.65       1.0  T
   3    -35.1456059  0.480219E-06  0.583E-03    3.65       3.7  T
   4    -35.1456065 -0.619037E-06  0.132E-03    3.65      16.1  T
   5    -35.1456065 -0.203771E-07  0.722E-04    3.65      29.5  T
   6    -35.1456065 -0.404716E-08  0.346E-04    3.65      61.5  T
     SCC iter.                  ...        0 min,  0.005 sec
     gradient                   ...        0 min,  0.002 sec
 * total energy  :   -34.6141717 Eh     change       -0.3880340E-04 Eh
   gradient norm :     0.0023686 Eh/α   predicted    -0.2484826E-04 ( -35.96%)
   displ. norm   :     0.4245531 α      lambda       -0.8922934E-04
   maximum displ.:     0.3748829 α      in ANC's #1, #3, #33, ...

........................................................................
.............................. CYCLE   37 ..............................
........................................................................

 iter      E             dE          RMSdq      gap      omega  full diag
   1    -35.1435753 -0.351436E+02  0.226E-01    3.63       0.0  T
   2    -35.1435782 -0.290414E-05  0.132E-01    3.63       1.0  T
   3    -35.1435774  0.804592E-06  0.963E-03    3.63       2.2  T
   4    -35.1435789 -0.145933E-05  0.405E-03    3.63       5.3  T
   5    -35.1435791 -0.201617E-06  0.181E-03    3.63      11.8  T
   6    -35.1435791 -0.868876E-08  0.979E-04    3.63      21.8  T
   7    -35.1435791 -0.820143E-08  0.260E-04    3.63      82.1  T
     SCC iter.                  ...        0 min,  0.006 sec
     gradient                   ...        0 min,  0.002 sec
 * total energy  :   -34.6142237 Eh     change       -0.5198800E-04 Eh
   gradient norm :     0.0032043 Eh/α   predicted    -0.5257642E-04 (   1.13%)
   displ. norm   :     0.1206857 α      lambda       -0.3797979E-04
   maximum displ.:     0.0928225 α      in ANC's #1, #3, #16, ...

........................................................................
.............................. CYCLE   38 ..............................
........................................................................

 iter      E             dE          RMSdq      gap      omega  full diag
   1    -35.1444067 -0.351444E+02  0.603E-02    3.63       0.0  T
   2    -35.1444070 -0.250404E-06  0.354E-02    3.63       1.0  T
   3    -35.1444064  0.519555E-06  0.541E-03    3.63       3.9  T
   4    -35.1444071 -0.621410E-06  0.991E-04    3.63      21.5  T
   5    -35.1444071 -0.940479E-08  0.500E-04    3.63      42.6  T
     SCC iter.                  ...        0 min,  0.004 sec
     gradient                   ...        0 min,  0.002 sec
 * total energy  :   -34.6142515 Eh     change       -0.2780633E-04 Eh
   gradient norm :     0.0032697 Eh/α   predicted    -0.1928025E-04 ( -30.66%)
   displ. norm   :     0.2716372 α      lambda       -0.5879643E-04
   maximum displ.:     0.2208148 α      in ANC's #1, #3, #33, ...

........................................................................
.............................. CYCLE   39 ..............................
........................................................................

 iter      E             dE          RMSdq      gap      omega  full diag
   1    -35.1447723 -0.351448E+02  0.141E-01    3.62       0.0  T
   2    -35.1447734 -0.113068E-05  0.827E-02    3.62       1.0  T
   3    -35.1447704  0.308136E-05  0.132E-02    3.62       1.6  T
   4    -35.1447739 -0.355515E-05  0.224E-03    3.62       9.5  T
   5    -35.1447740 -0.564465E-07  0.111E-03    3.62      19.2  T
   6    -35.1447740 -0.110062E-07  0.528E-04    3.62      40.4  T
   7    -35.1447740 -0.112821E-08  0.139E-04    3.62     153.1  T
     SCC iter.                  ...        0 min,  0.006 sec
     gradient                   ...        0 min,  0.003 sec
 * total energy  :   -34.6142966 Eh     change       -0.4507496E-04 Eh
   gradient norm :     0.0031288 Eh/α   predicted    -0.3163364E-04 ( -29.82%)
   displ. norm   :     0.3109447 α      lambda       -0.6158371E-04
   maximum displ.:     0.2502220 α      in ANC's #1, #3, #33, ...

........................................................................
.............................. CYCLE   40 ..............................
........................................................................

 iter      E             dE          RMSdq      gap      omega  full diag
   1    -35.1448409 -0.351448E+02  0.162E-01    3.60       0.0  T
   2    -35.1448419 -0.105167E-05  0.949E-02    3.59       1.0  T
   3    -35.1448366  0.529965E-05  0.173E-02    3.59       1.2  T
   4    -35.1448426 -0.602083E-05  0.236E-03    3.59       9.0  T
   5    -35.1448427 -0.572802E-07  0.117E-03    3.59      18.3  T
   6    -35.1448427 -0.715738E-08  0.463E-04    3.59      46.0  T
   7    -35.1448427 -0.861945E-09  0.158E-04    3.59     135.3  T
     SCC iter.                  ...        0 min,  0.005 sec
     gradient                   ...        0 min,  0.002 sec
 * total energy  :   -34.6143373 Eh     change       -0.4070243E-04 Eh
   gradient norm :     0.0025428 Eh/α   predicted    -0.3385403E-04 ( -16.83%)
   displ. norm   :     0.1964458 α      lambda       -0.2860167E-04
   maximum displ.:     0.1580627 α      in ANC's #1, #3, #2, ...

........................................................................
.............................. CYCLE   41 ..............................
........................................................................

 iter      E             dE          RMSdq      gap      omega  full diag
   1    -35.1449941 -0.351450E+02  0.103E-01    3.58       0.0  T
   2    -35.1449946 -0.461493E-06  0.603E-02    3.57       1.0  T
   3    -35.1449917  0.287465E-05  0.126E-02    3.57       1.7  T
   4    -35.1449949 -0.320921E-05  0.144E-03    3.57      14.8  T
   5    -35.1449950 -0.198027E-07  0.648E-04    3.57      32.9  T
   6    -35.1449950 -0.207547E-08  0.296E-04    3.57      72.1  T
     SCC iter.                  ...        0 min,  0.005 sec
     gradient                   ...        0 min,  0.003 sec
 * total energy  :   -34.6143527 Eh     change       -0.1538503E-04 Eh
   gradient norm :     0.0020127 Eh/α   predicted    -0.1486632E-04 (  -3.37%)
   displ. norm   :     0.1062265 α      lambda       -0.1514949E-04
   maximum displ.:     0.0870520 α      in ANC's #1, #3, #4, ...

........................................................................
.............................. CYCLE   42 ..............................
........................................................................

 iter      E             dE          RMSdq      gap      omega  full diag
   1    -35.1453678 -0.351454E+02  0.559E-02    3.57       0.0  T
   2    -35.1453679 -0.101440E-06  0.328E-02    3.57       1.0  T
   3    -35.1453671  0.743559E-06  0.636E-03    3.57       3.4  T
   4    -35.1453679 -0.835832E-06  0.772E-04    3.57      27.6  T
   5    -35.1453680 -0.438359E-08  0.388E-04    3.57      55.0  T
     SCC iter.                  ...        0 min,  0.004 sec
     gradient                   ...        0 min,  0.002 sec
 * total energy  :   -34.6143623 Eh     change       -0.9634803E-05 Eh
   gradient norm :     0.0013537 Eh/α   predicted    -0.7666659E-05 ( -20.43%)
   displ. norm   :     0.1687791 α      lambda       -0.1389747E-04
   maximum displ.:     0.1529811 α      in ANC's #1, #3, #4, ...
 * RMSD in coord.:     0.9201004 α      energy gain  -0.1338652E-02 Eh

generating ANC from exact Hessian ...
Using Lindh-Hessian (1995)
 Shifting diagonal of input Hessian by   8.827464189747336E-003
 Lowest  eigenvalues of input Hessian
    0.000000    0.000000    0.000000    0.000000    0.000000    0.000000
    0.010000    0.010110    0.011253    0.015527    0.018044    0.020180
    0.021820    0.023480    0.024915    0.029098    0.032896    0.035817
 Highest eigenvalues
    1.842540    1.911063    1.920309    2.029756    2.113053    2.401431
 

........................................................................
.............................. CYCLE   43 ..............................
........................................................................

 iter      E             dE          RMSdq      gap      omega  full diag
   1    -35.1445435 -0.351445E+02  0.915E-02    3.56       0.0  T
   2    -35.1445437 -0.232938E-06  0.536E-02    3.55       1.0  T
   3    -35.1445421  0.160718E-05  0.941E-03    3.55       2.3  T
   4    -35.1445439 -0.181213E-05  0.106E-03    3.55      20.0  T
   5    -35.1445440 -0.520486E-08  0.520E-04    3.55      41.0  T
   6    -35.1445440 -0.221063E-08  0.202E-04    3.55     105.5  T
     SCC iter.                  ...        0 min,  0.005 sec
     gradient                   ...        0 min,  0.002 sec
 * total energy  :   -34.6143748 Eh     change       -0.1247381E-04 Eh
   gradient norm :     0.0018476 Eh/α   predicted     0.0000000E+00 (-100.00%)
   displ. norm   :     0.0402087 α      lambda       -0.1729329E-04
   maximum displ.:     0.0285780 α      in ANC's #3, #1, #4, ...

........................................................................
.............................. CYCLE   44 ..............................
........................................................................

 iter      E             dE          RMSdq      gap      omega  full diag
   1    -35.1452950 -0.351453E+02  0.221E-02    3.55       0.0  T
   2    -35.1452952 -0.139768E-06  0.130E-02    3.55       1.6  T
   3    -35.1452950  0.124611E-06  0.291E-03    3.55       7.3  T
   4    -35.1452952 -0.146162E-06  0.831E-04    3.55      25.7  T
   5    -35.1452952 -0.111282E-07  0.350E-04    3.55      60.9  T
     SCC iter.                  ...        0 min,  0.004 sec
     gradient                   ...        0 min,  0.002 sec
 * total energy  :   -34.6143925 Eh     change       -0.1773684E-04 Eh
   gradient norm :     0.0007832 Eh/α   predicted    -0.8665241E-05 ( -51.15%)
   displ. norm   :     0.0794270 α      lambda       -0.1765826E-04
   maximum displ.:     0.0552363 α      in ANC's #3, #1, #4, ...

........................................................................
.............................. CYCLE   45 ..............................
........................................................................

 iter      E             dE          RMSdq      gap      omega  full diag
   1    -35.1455874 -0.351456E+02  0.388E-02    3.55       0.0  T
   2    -35.1455875 -0.137942E-06  0.227E-02    3.55       1.0  T
   3    -35.1455867  0.845759E-06  0.715E-03    3.55       3.0  T
   4    -35.1455877 -0.972512E-06  0.874E-04    3.55      24.4  T
   5    -35.1455877 -0.308071E-08  0.532E-04    3.55      40.1  T
     SCC iter.                  ...        0 min,  0.004 sec
     gradient                   ...        0 min,  0.002 sec
 * total energy  :   -34.6144136 Eh     change       -0.2107209E-04 Eh
   gradient norm :     0.0016880 Eh/α   predicted    -0.8854174E-05 ( -57.98%)
   displ. norm   :     0.1570980 α      lambda       -0.3034964E-04
   maximum displ.:     0.1030178 α      in ANC's #3, #1, #4, ...

........................................................................
.............................. CYCLE   46 ..............................
........................................................................

 iter      E             dE          RMSdq      gap      omega  full diag
   1    -35.1452501 -0.351453E+02  0.762E-02    3.54       0.0  T
   2    -35.1452507 -0.565655E-06  0.447E-02    3.54       1.0  T
   3    -35.1452447  0.598987E-05  0.189E-02    3.54       1.1  T
   4    -35.1452515 -0.679733E-05  0.186E-03    3.54      11.4  T
   5    -35.1452515 -0.156080E-07  0.111E-03    3.54      19.3  T
   6    -35.1452515 -0.384753E-08  0.468E-04    3.54      45.6  T
   7    -35.1452515 -0.742695E-09  0.149E-04    3.54     142.8  T
     SCC iter.                  ...        0 min,  0.005 sec
     gradient                   ...        0 min,  0.002 sec
 * total energy  :   -34.6144466 Eh     change       -0.3296313E-04 Eh
   gradient norm :     0.0024989 Eh/α   predicted    -0.1534277E-04 ( -53.45%)
   displ. norm   :     0.1541786 α      lambda       -0.3679246E-04
   maximum displ.:     0.0976002 α      in ANC's #3, #1, #4, ...

........................................................................
.............................. CYCLE   47 ..............................
........................................................................

 iter      E             dE          RMSdq      gap      omega  full diag
   1    -35.1447544 -0.351448E+02  0.775E-02    3.53       0.0  T
   2    -35.1447551 -0.728553E-06  0.453E-02    3.53       1.0  T
   3    -35.1447502  0.489048E-05  0.173E-02    3.53       1.2  T
   4    -35.1447558 -0.559058E-05  0.216E-03    3.53       9.9  T
   5    -35.1447558 -0.361196E-07  0.121E-03    3.53      17.6  T
   6    -35.1447558 -0.689322E-08  0.565E-04    3.53      37.7  T
   7    -35.1447558 -0.727077E-09  0.175E-04    3.53     121.6  T
     SCC iter.                  ...        0 min,  0.006 sec
     gradient                   ...        0 min,  0.002 sec
 * total energy  :   -34.6144727 Eh     change       -0.2611656E-04 Eh
   gradient norm :     0.0024662 Eh/α   predicted    -0.1883401E-04 ( -27.88%)
   displ. norm   :     0.1341199 α      lambda       -0.2271791E-04
   maximum displ.:     0.0833365 α      in ANC's #3, #1, #4, ...

........................................................................
.............................. CYCLE   48 ..............................
........................................................................

 iter      E             dE          RMSdq      gap      omega  full diag
   1    -35.1447081 -0.351447E+02  0.673E-02    3.53       0.0  T
   2    -35.1447087 -0.563479E-06  0.394E-02    3.53       1.0  T
   3    -35.1447055  0.315235E-05  0.138E-02    3.53       1.5  T
   4    -35.1447091 -0.360857E-05  0.189E-03    3.53      11.3  T
   5    -35.1447092 -0.270597E-07  0.106E-03    3.53      20.2  T
   6    -35.1447092 -0.680187E-08  0.524E-04    3.53      40.7  T
   7    -35.1447092 -0.710919E-09  0.121E-04    3.53     176.5  T
     SCC iter.                  ...        0 min,  0.006 sec
     gradient                   ...        0 min,  0.002 sec
 * total energy  :   -34.6144879 Eh     change       -0.1522361E-04 Eh
   gradient norm :     0.0016447 Eh/α   predicted    -0.1157178E-04 ( -23.99%)
   displ. norm   :     0.0909637 α      lambda       -0.9017795E-05
   maximum displ.:     0.0520321 α      in ANC's #1, #3, #8, ...

........................................................................
.............................. CYCLE   49 ..............................
........................................................................

 iter      E             dE          RMSdq      gap      omega  full diag
   1    -35.1452115 -0.351452E+02  0.484E-02    3.53       0.0  T
   2    -35.1452117 -0.257900E-06  0.283E-02    3.53       1.0  T
   3    -35.1452109  0.842382E-06  0.745E-03    3.53       2.9  T
   4    -35.1452119 -0.989082E-06  0.139E-03    3.53      15.3  T
   5    -35.1452119 -0.181275E-07  0.717E-04    3.53      29.7  T
   6    -35.1452119 -0.179510E-08  0.340E-04    3.53      62.7  T
     SCC iter.                  ...        0 min,  0.005 sec
     gradient                   ...        0 min,  0.002 sec
 * total energy  :   -34.6144950 Eh     change       -0.7126037E-05 Eh
   gradient norm :     0.0006507 Eh/α   predicted    -0.4526138E-05 ( -36.48%)
   displ. norm   :     0.0265103 α      lambda       -0.2013629E-05
   maximum displ.:     0.0150088 α      in ANC's #1, #8, #5, ...

........................................................................
.............................. CYCLE   50 ..............................
........................................................................

 iter      E             dE          RMSdq      gap      omega  full diag
   1    -35.1451111 -0.351451E+02  0.144E-02    3.53       0.0  T
   2    -35.1451111 -0.410705E-07  0.844E-03    3.53       2.5  T
   3    -35.1451109  0.156080E-06  0.311E-03    3.53       6.9  T
   4    -35.1451111 -0.178837E-06  0.453E-04    3.53      47.0  T
   5    -35.1451111 -0.192193E-08  0.220E-04    3.53      97.0  T
     SCC iter.                  ...        0 min,  0.004 sec
     gradient                   ...        0 min,  0.002 sec
 * total energy  :   -34.6144976 Eh     change       -0.2584806E-05 Eh
   gradient norm :     0.0003850 Eh/α   predicted    -0.1008659E-05 ( -60.98%)
   displ. norm   :     0.0776046 α      lambda       -0.5529539E-05
   maximum displ.:     0.0446433 α      in ANC's #1, #2, #5, ...

   *** GEOMETRY OPTIMIZATION CONVERGED AFTER 50 ITERATIONS ***

------------------------------------------------------------------------
 total energy gain   :        -0.0152606 Eh       -9.5762 kcal/mol
 total RMSD          :         1.0312776 a0        0.5457 Å
 total power (kW/mol):        -0.8013354 (step)  -89.2069 (real)
------------------------------------------------------------------------

 ANCopt (total)                0 d,  0 h,  0 min,  0.449 sec
 optimizer setup                ...        0 min,  0.000 sec (  0.023%)
 model hessian                  ...        0 min,  0.011 sec (  2.469%)
 ANC generation                 ...        0 min,  0.001 sec (  0.275%)
 coordinate transformation      ...        0 min,  0.000 sec (  0.083%)
 single point calculation       ...        0 min,  0.410 sec ( 91.325%)
 optimization log               ...        0 min,  0.018 sec (  3.972%)
 hessian update                 ...        0 min,  0.003 sec (  0.642%)
 rational function              ...        0 min,  0.004 sec (  0.794%)

================
 final structure:
================
22
 xtb: 6.7.1 (edcfbbe)
C            3.58428415836660       -0.97455226053738       -0.76233238627577
C            2.56474109378161       -0.32993123857981        0.12133531107269
C            2.82606275591078        0.16198044204026        1.32748060428369
C            1.20358422648919       -0.24193474504621       -0.47605899767435
O            0.96853426773527       -0.42058273164586       -1.64418153695773
O            0.26897105194990        0.04117494600265        0.45159897971843
C           -1.06046393896348        0.21003048249526        0.08605928318844
C           -2.01529407909817       -0.37789682482029        0.90602447270860
C           -3.35717348799730       -0.20840840178674        0.62141762376016
C           -3.74645747242425        0.54088751862062       -0.47671248092475
C           -2.78926204144307        1.12873317778014       -1.28502713739621
C           -1.44213544379654        0.97181411232408       -1.00828954976783
H            3.53028589968249       -0.54213611790843       -1.75950665002912
H            3.36923481467299       -2.03835800961215       -0.85953708891973
H            4.58487471108909       -0.84903623655539       -0.35941192921225
H            3.81672228914475        0.11560903802745        1.74813354563136
H            2.06390803948662        0.62602099446046        1.92848218375075
H           -1.69152218665986       -0.96050860405335        1.75466478536794
H           -4.09968896314279       -0.66701194306905        1.25724393894080
H           -4.79489751835143        0.66668920661132       -0.70086955936827
H           -3.08847737045240        1.71742245676659       -2.13918145607729
H           -0.69583180598024        1.42999573848471       -1.63747495581929
 
 Bond Distances (Angstroems)
 ---------------------------
C1-C2=1.4953         C1-H13=1.0882        C1-H14=1.0897        C1-H15=1.0859        C2-C1=1.4953         C2-C3=1.3286         
C2-C4=1.4891         C3-C2=1.3286         C3-H16=1.0773        C3-H17=1.0758        C4-C2=1.4891         C4-O5=1.2049         
C4-O6=1.3469         O5-C4=1.2049         O6-C4=1.3469         O6-C7=1.3891         C7-O6=1.3891         C7-C8=1.3891         
C7-C12=1.3869        C8-C7=1.3891         C8-C9=1.3822         C8-H18=1.0791        C9-C8=1.3822         C9-C10=1.3852        
C9-H19=1.0798        C10-C9=1.3852        C10-C11=1.3839       C10-H20=1.0795       C11-C10=1.3839       C11-C12=1.3842       
C11-H21=1.0797       C12-C7=1.3869        C12-C11=1.3842       C12-H22=1.0783       H13-C1=1.0882        H14-C1=1.0897        
H15-C1=1.0859        H16-C3=1.0773        H17-C3=1.0758        H18-C8=1.0791        H19-C9=1.0798        H20-C10=1.0795       
H21-C11=1.0797       H22-C12=1.0783       
 C  H  Rav=1.0813 sigma=0.0046  Rmin=1.0758  Rmax=1.0897    10
 C  C  Rav=1.4027 sigma=0.0510  Rmin=1.3286  Rmax=1.4953     9
 O  C  Rav=1.3136 sigma=0.0788  Rmin=1.2049  Rmax=1.3891     3
 
 selected bond angles (degree)
 --------------------
H13-C1-C2=109.66               H14-C1-C2=109.82               H14-C1-H13=107.24              H15-C1-C2=111.05               
H15-C1-H13=109.86              H15-C1-H14=109.13              C3-C2-C1=124.20                C4-C2-C1=114.31                
C4-C2-C3=121.48                H16-C3-C2=121.30               H17-C3-C2=121.84               H17-C3-H16=116.87              
O5-C4-C2=123.95                O6-C4-C2=111.74                O6-C4-O5=124.30                C7-O6-C4=120.56                
C8-C7-O6=116.81                C12-C7-O6=122.53               C12-C7-C8=120.60               C9-C8-C7=119.60                
H18-C8-C7=119.11               H18-C8-C9=121.29               C10-C9-C8=120.16               H19-C9-C8=119.62               
H19-C9-C10=120.22              C11-C10-C9=119.90              H20-C10-C9=120.04              H20-C10-C11=120.07             
 
 selected dihedral angles (degree)
 ---------------------------------
C3-C2-C1-H13=229.54           C3-C2-C1-H14=111.94           C3-C2-C1-H15=351.14           C4-C2-C1-H13= 47.94           
C4-C2-C1-H14=290.34           C4-C2-C1-H15=169.55           H16-C3-C2-C1=359.62           H16-C3-C2-C4=181.33           
H17-C3-C2-C1=179.47           H17-C3-C2-C4=  1.18           O5-C4-C2-C1=346.09            O5-C4-C2-C3=164.54            
O6-C4-C2-C1=165.16            O6-C4-C2-C3=343.61            C7-O6-C4-C2=177.82            C7-O6-C4-O5=356.88            
C8-C7-O6-C4=137.34            C12-C7-O6-C4=314.68           C9-C8-C7-O6=177.84            C9-C8-C7-C12=  0.45           
H18-C8-C7-O6=357.77           H18-C8-C7-C12=180.39          C10-C9-C8-C7=  0.14           C10-C9-C8-H18=180.21          
H19-C9-C8-C7=179.87           H19-C9-C8-H18=359.93          C11-C10-C9-C8=359.55          C11-C10-C9-H19=179.82         
H20-C10-C9-C8=179.60          H20-C10-C9-H19=359.88         
           -------------------------------------------------
          |                Final Singlepoint                |
           -------------------------------------------------

          ...................................................
          :                      SETUP                      :
          :.................................................:
          :  # basis functions                  58          :
          :  # atomic orbitals                  58          :
          :  # shells                           34          :
          :  # electrons                        62          :
          :  max. iterations                   250          :
          :  Hamiltonian                  GFN2-xTB          :
          :  restarted?                      false          :
          :  GBSA solvation                  false          :
          :  PC potential                    false          :
          :  electronic temp.          300.0000000     K    :
          :  accuracy                    1.0000000          :
          :  -> integral cutoff          0.2500000E+02      :
          :  -> integral neglect         0.1000000E-07      :
          :  -> SCF convergence          0.1000000E-05 Eh   :
          :  -> wf. convergence          0.1000000E-03 e    :
          :  Broyden damping             0.4000000          :
          :  net charge                          0          :
          :  unpaired electrons                  0          :
          ...................................................

 iter      E             dE          RMSdq      gap      omega  full diag
   1    -35.1451111 -0.351451E+02  0.111E-04    3.53       0.0  T
   2    -35.1451111 -0.639560E-10  0.739E-05    3.53     288.5  T
   3    -35.1451111 -0.407709E-10  0.467E-05    3.53     456.9  T

   *** convergence criteria satisfied after 3 iterations ***

         #    Occupation            Energy/Eh            Energy/eV
      -------------------------------------------------------------
         1        2.0000           -0.7438761             -20.2419
       ...           ...                  ...                  ...
        25        2.0000           -0.4580504             -12.4642
        26        2.0000           -0.4450995             -12.1118
        27        2.0000           -0.4301965             -11.7062
        28        2.0000           -0.4199303             -11.4269
        29        2.0000           -0.4153546             -11.3024
        30        2.0000           -0.4098792             -11.1534
        31        2.0000           -0.4026402             -10.9564 (HOMO)
        32                         -0.2729382              -7.4270 (LUMO)
        33                         -0.2325030              -6.3267
        34                         -0.2270650              -6.1788
        35                         -0.1660659              -4.5189
        36                         -0.0994680              -2.7067
       ...                                ...                  ...
        58                          0.7086067              19.2822
      -------------------------------------------------------------
                  HL-Gap            0.1297020 Eh            3.5294 eV
             Fermi-level           -0.3377892 Eh           -9.1917 eV

 SCC (total)                   0 d,  0 h,  0 min,  0.005 sec
 SCC setup                      ...        0 min,  0.000 sec (  1.316%)
 Dispersion                     ...        0 min,  0.000 sec (  1.918%)
 classical contributions        ...        0 min,  0.000 sec (  0.686%)
 integral evaluation            ...        0 min,  0.000 sec (  9.375%)
 iterations                     ...        0 min,  0.002 sec ( 47.328%)
 molecular gradient             ...        0 min,  0.002 sec ( 37.090%)
 printout                       ...        0 min,  0.000 sec (  1.839%)

         :::::::::::::::::::::::::::::::::::::::::::::::::::::
         ::                     SUMMARY                     ::
         :::::::::::::::::::::::::::::::::::::::::::::::::::::
         :: total energy             -34.614497614505 Eh    ::
         :: gradient norm              0.000385051260 Eh/a0 ::
         :: HOMO-LUMO gap              3.529371524796 eV    ::
         ::.................................................::
         :: SCC energy               -35.145154631068 Eh    ::
         :: -> isotropic ES            0.044687954285 Eh    ::
         :: -> anisotropic ES          0.001279968344 Eh    ::
         :: -> anisotropic XC          0.014605219512 Eh    ::
         :: -> dispersion             -0.018147765661 Eh    ::
         :: repulsion energy           0.530657016563 Eh    ::
         :: add. restraining           0.000000000000 Eh    ::
         :: total charge              -0.000000000000 e     ::
         :::::::::::::::::::::::::::::::::::::::::::::::::::::

           -------------------------------------------------
          |                Property Printout                |
           -------------------------------------------------

    * Orbital Energies and Occupations

         #    Occupation            Energy/Eh            Energy/eV
      -------------------------------------------------------------
         1        2.0000           -0.7438761             -20.2419
       ...           ...                  ...                  ...
        19        2.0000           -0.4945811             -13.4582
        20        2.0000           -0.4897353             -13.3264
        21        2.0000           -0.4856643             -13.2156
        22        2.0000           -0.4818197             -13.1110
        23        2.0000           -0.4691317             -12.7657
        24        2.0000           -0.4668272             -12.7030
        25        2.0000           -0.4580504             -12.4642
        26        2.0000           -0.4450995             -12.1118
        27        2.0000           -0.4301965             -11.7062
        28        2.0000           -0.4199303             -11.4269
        29        2.0000           -0.4153546             -11.3024
        30        2.0000           -0.4098792             -11.1534
        31        2.0000           -0.4026402             -10.9564 (HOMO)
        32                         -0.2729382              -7.4270 (LUMO)
        33                         -0.2325030              -6.3267
        34                         -0.2270650              -6.1788
        35                         -0.1660659              -4.5189
        36                         -0.0994680              -2.7067
        37                          0.0164847               0.4486
        38                          0.1064081               2.8955
        39                          0.1136401               3.0923
        40                          0.1210232               3.2932
        41                          0.1444679               3.9312
        42                          0.1659673               4.5162
       ...                                ...                  ...
        58                          0.7086067              19.2822
      -------------------------------------------------------------
                  HL-Gap            0.1297020 Eh            3.5294 eV
             Fermi-level           -0.3377892 Eh           -9.1917 eV

     #   Z          covCN         q      C6AA      α(0)
     1   6 C        3.759    -0.111    22.672     6.788
     2   6 C        2.938    -0.007    28.206     8.710
     3   6 C        2.844    -0.081    30.015     8.979
     4   6 C        2.720     0.354    20.990     7.500
     5   8 O        0.856    -0.404    21.769     6.255
     6   8 O        1.708    -0.258    18.273     5.771
     7   6 C        2.871     0.146    24.824     8.167
     8   6 C        2.919    -0.046    29.133     8.851
     9   6 C        2.921    -0.028    28.699     8.785
    10   6 C        2.919    -0.033    28.818     8.803
    11   6 C        2.923    -0.027    28.678     8.782
    12   6 C        2.917    -0.041    29.012     8.833
    13   1 H        0.925     0.070     2.083     2.257
    14   1 H        0.925     0.061     2.188     2.313
    15   1 H        0.925     0.051     2.302     2.373
    16   1 H        0.926     0.056     2.251     2.346
    17   1 H        0.926     0.061     2.184     2.311
    18   1 H        0.926     0.051     2.312     2.378
    19   1 H        0.926     0.042     2.416     2.431
    20   1 H        0.926     0.041     2.437     2.441
    21   1 H        0.926     0.044     2.394     2.420
    22   1 H        0.926     0.058     2.220     2.330

 Mol. C6AA /au·bohr⁶  :       5754.720110
 Mol. C8AA /au·bohr⁸  :     138003.719608
 Mol. α(0) /au        :        119.824424


Wiberg/Mayer (AO) data.
largest (>0.10) Wiberg bond orders for each atom

 ---------------------------------------------------------------------------
     #   Z sym  total        # sym  WBO       # sym  WBO       # sym  WBO
 ---------------------------------------------------------------------------
     1   6 C    3.993 --     2 C    1.028    15 H    0.984    13 H    0.968
                            14 H    0.965
     2   6 C    3.986 --     3 C    1.878     1 C    1.028     4 C    0.993
     3   6 C    3.987 --     2 C    1.878    16 H    0.974    17 H    0.973
     4   6 C    3.915 --     5 O    1.741     6 O    1.091     2 C    0.993
     5   8 O    2.047 --     4 C    1.741     6 O    0.162
     6   8 O    2.347 --     4 C    1.091     7 C    0.975     5 O    0.162
     7   6 C    3.918 --    12 C    1.396     8 C    1.385     6 O    0.975
                            10 C    0.102
     8   6 C    3.989 --     9 C    1.450     7 C    1.385    18 H    0.968
                            11 C    0.111
     9   6 C    3.991 --     8 C    1.450    10 C    1.433    19 H    0.970
                            12 C    0.110
    10   6 C    3.991 --    11 C    1.442     9 C    1.433    20 H    0.971
                             7 C    0.102
    11   6 C    3.991 --    10 C    1.442    12 C    1.440    21 H    0.970
                             8 C    0.111
    12   6 C    3.990 --    11 C    1.440     7 C    1.396    22 H    0.967
                             9 C    0.110
    13   1 H    0.995 --     1 C    0.968
    14   1 H    0.996 --     1 C    0.965
    15   1 H    0.997 --     1 C    0.984
    16   1 H    0.997 --     3 C    0.974
    17   1 H    0.996 --     3 C    0.973
    18   1 H    0.997 --     8 C    0.968
    19   1 H    0.998 --     9 C    0.970
    20   1 H    0.998 --    10 C    0.971
    21   1 H    0.998 --    11 C    0.970
    22   1 H    0.997 --    12 C    0.967
 ---------------------------------------------------------------------------

Topologies differ in total number of bonds
Writing topology from bond orders to xtbtopo.mol

molecular dipole:
                 x           y           z       tot (Debye)
 q only:        0.005       0.161       0.654
   full:        0.060       0.171       0.749       1.959
molecular quadrupole (traceless):
                xx          xy          yy          xz          yz          zz
 q only:        9.747      -1.800      -3.345       1.950      -2.129      -6.402
  q+dip:       10.442      -1.220      -4.159       2.811      -4.617      -6.283
   full:        9.118      -1.165      -1.897       2.422      -3.355      -7.221

           -------------------------------------------------
          |                Geometry Summary                 |
           -------------------------------------------------

      molecular mass/u    :      162.1855763
   center of mass at/Å    :       -0.1727223       0.0246787      -0.1924805
  moments of inertia/u·Å² :        0.1855195E+03   0.1020039E+04   0.1126498E+04
rotational constants/cm⁻¹ :        0.9086715E-01   0.1652647E-01   0.1496464E-01

 * 20 selected distances

     #   Z          #   Z                                           value/Å
     2   6 C        3   6 C                                       1.3285529
     4   6 C        5   8 O                                       1.2048544
     4   6 C        6   8 O                                       1.3469234
     6   8 O        7   6 C                                       1.3890749
     7   6 C        8   6 C                                       1.3891373 (max)
     8   6 C        9   6 C                                       1.3821607
     9   6 C       10   6 C                                       1.3852352
    10   6 C       11   6 C                                       1.3838925
     7   6 C       12   6 C                                       1.3869344
    11   6 C       12   6 C                                       1.3841812
     1   6 C       13   1 H                                       1.0882354
     1   6 C       14   1 H                                       1.0896687
     1   6 C       15   1 H                                       1.0859470
     3   6 C       16   1 H                                       1.0772677
     3   6 C       17   1 H                                       1.0758330 (min)
     8   6 C       18   1 H                                       1.0790993
     9   6 C       19   1 H                                       1.0797786
    10   6 C       20   1 H                                       1.0794903
    11   6 C       21   1 H                                       1.0796595
    12   6 C       22   1 H                                       1.0783200

 * 3 distinct bonds (by element types)

   Z      Z             #   av. dist./Å        max./Å        min./Å
   1 H    6 C          10     1.0813299     1.0896687     1.0758330
   6 C    6 C           7     1.3771563     1.3891373     1.3285529
   6 C    8 O           3     1.3136176     1.3890749     1.2048544


optimized geometry written to: xtbopt.xyz


           -------------------------------------------------
          | TOTAL ENERGY              -34.614497614505 Eh   |
          | GRADIENT NORM               0.000385051260 Eh/α |
          | HOMO-LUMO GAP               3.529371524796 eV   |
           -------------------------------------------------

------------------------------------------------------------------------
 * finished run on 2025/12/01 at 14:22:52.725     
------------------------------------------------------------------------
 total:
 * wall-time:     0 d,  0 h,  0 min,  0.491 sec
 *  cpu-time:     0 d,  0 h,  0 min, 11.213 sec
 * ratio c/w:    22.828 speedup
 SCF:
 * wall-time:     0 d,  0 h,  0 min,  0.029 sec
 *  cpu-time:     0 d,  0 h,  0 min,  0.666 sec
 * ratio c/w:    22.847 speedup
 ANC optimizer:
 * wall-time:     0 d,  0 h,  0 min,  0.455 sec
 *  cpu-time:     0 d,  0 h,  0 min, 10.428 sec
 * ratio c/w:    22.913 speedup

normal termination of xtb
