      -----------------------------------------------------------      
     |                   =====================                   |     
     |                           x T B                           |     
     |                   =====================                   |     
     |                         S. Grimme                         |     
     |          Mulliken Center for Theoretical Chemistry        |     
     |                    University of Bonn                     |     
      -----------------------------------------------------------      

   * xtb version 6.7.1 (edcfbbe) compiled by 'albert@albert-system' on 2024-07-22

   xtb is free software: you can redistribute it and/or modify it under
   the terms of the GNU Lesser General Public License as published by
   the Free Software Foundation, either version 3 of the License, or
   (at your option) any later version.
   
   xtb is distributed in the hope that it will be useful,
   but WITHOUT ANY WARRANTY; without even the implied warranty of
   MERCHANTABILITY or FITNESS FOR A PARTICULAR PURPOSE.  See the
   GNU Lesser General Public License for more details.
   
   Cite this work as:
   * C. Bannwarth, E. Caldeweyher, S. Ehlert, A. Hansen, P. Pracht,
     J. Seibert, S. Spicher, S. Grimme, WIREs Comput. Mol. Sci., 2020, 11,
     e01493. DOI: 10.1002/wcms.1493
   
   for GFN2-xTB:
   * C. Bannwarth, S. Ehlert and S. Grimme., J. Chem. Theory Comput., 2019,
     15, 1652-1671. DOI: 10.1021/acs.jctc.8b01176
   for GFN1-xTB:
   * S. Grimme, C. Bannwarth, P. Shushkov, J. Chem. Theory Comput., 2017,
     13, 1989-2009. DOI: 10.1021/acs.jctc.7b00118
   for GFN0-xTB:
   * P. Pracht, E. Caldeweyher, S. Ehlert, S. Grimme, ChemRxiv, 2019, preprint.
     DOI: 10.26434/chemrxiv.8326202.v1
   for GFN-FF:
   * S. Spicher and S. Grimme, Angew. Chem. Int. Ed., 2020, 59, 15665-15673.
     DOI: 10.1002/anie.202004239
   
   for ALPB and GBSA implicit solvation:
   * S. Ehlert, M. Stahn, S. Spicher, S. Grimme, J. Chem. Theory Comput.,
     2021, 17, 4250-4261. DOI: 10.1021/acs.jctc.1c00471
   
   for ddCOSMO and CPCM-X implicit solvation:
   * M. Stahn, S. Ehlert, S. Grimme, J. Phys. Chem. A,
     2023, XX, XXXX-XXXX. DOI: 10.1021/acs.jpca.3c04382
   
   for DFT-D4:
   * E. Caldeweyher, C. Bannwarth and S. Grimme, J. Chem. Phys., 2017,
     147, 034112. DOI: 10.1063/1.4993215
   * E. Caldeweyher, S. Ehlert, A. Hansen, H. Neugebauer, S. Spicher,
     C. Bannwarth and S. Grimme, J. Chem. Phys., 2019, 150, 154122.
     DOI: 10.1063/1.5090222
   * E. Caldeweyher, J.-M. Mewes, S. Ehlert and S. Grimme, Phys. Chem. Chem. Phys.
     2020, 22, 8499-8512. DOI: 10.1039/D0CP00502A
   
   for sTDA-xTB:
   * S. Grimme and C. Bannwarth, J. Chem. Phys., 2016, 145, 054103.
     DOI: 10.1063/1.4959605
   
   in the mass-spec context:
   * V. Asgeirsson, C. Bauer and S. Grimme, Chem. Sci., 2017, 8, 4879.
     DOI: 10.1039/c7sc00601b
   * J. Koopman and S. Grimme, ACS Omega 2019, 4, 12, 15120-15133.
     DOI: 10.1021/acsomega.9b02011
   
   for metadynamics refer to:
   * S. Grimme, J. Chem. Theory Comput., 2019, 155, 2847-2862
     DOI: 10.1021/acs.jctc.9b00143
   
   for SPH calculations refer to:
   * S. Spicher and S. Grimme, J. Chem. Theory Comput., 2021, 17, 1701-1714
     DOI: 10.1021/acs.jctc.0c01306
   
   for ONIOM refer to:
   * C. Plett, A. Katbashev, S. Ehlert, S. Grimme, M. Bursch,
     Phys. Chem. Chem. Phys., 2023, 25, 17860-17868. DOI: 10.1039/D3CP02178E
   
   for DIPRO refer to:
   * J. Kohn, N. Gildemeister, S. Grimme, D. Fazzi, A. Hansen,
     J. Chem. Phys., 2023, just accepted.
   
   for PTB refer to:
   * S. Grimme, M. Mueller, A. Hansen, J. Chem. Phys., 2023, 158, 124111.
     DOI: 10.1063/5.0137838
   
   with help from (in alphabetical order)
   P. Atkinson, C. Bannwarth, F. Bohle, G. Brandenburg, E. Caldeweyher
   M. Checinski, S. Dohm, S. Ehlert, S. Ehrlich, I. Gerasimov, C. Hölzer
   A. Katbashev, J. Kohn, J. Koopman, C. Lavigne, S. Lehtola, F. März, M. Müller,
   F. Musil, H. Neugebauer, J. Pisarek, C. Plett, P. Pracht, F. Pultar,
   J. Seibert, P. Shushkov, S. Spicher, M. Stahn, M. Steiner, T. Strunk,
   J. Stückrath, T. Rose, and J. Unsleber
   
 * started run on 2025/12/01 at 14:22:52.733     
   ID    Z sym.   atoms
    1    6 C      1-4, 7-12
    2    8 O      5, 6
    3    1 H      13-22

           -------------------------------------------------
          |                Calculation Setup                |
           -------------------------------------------------

          program call               : xtb pipeline_data/3_conformer_xyz/acrylates/rdkit/QIWKUEJZZCOPFV-UHFFFAOYSA-N_conf116.xyz --opt --gfn 2-xTB --iterations 250
          coordinate file            : pipeline_data/3_conformer_xyz/acrylates/rdkit/QIWKUEJZZCOPFV-UHFFFAOYSA-N_conf116.xyz
          omp threads                :                    24

########################################################################
[WARNING] Please study the warnings concerning your input carefully
-1- readin_getIntValue: could not parse '2-xTB'
########################################################################

           -------------------------------------------------
          |                 G F N 2 - x T B                 |
           -------------------------------------------------

        Reference                      10.1021/acs.jctc.8b01176
      * Hamiltonian:
        H0-scaling (s, p, d)           1.850000    2.230000    2.230000
        zeta-weighting                 0.500000
      * Dispersion:
        s8                             2.700000
        a1                             0.520000
        a2                             5.000000
        s9                             5.000000
      * Repulsion:
        kExp                           1.500000    1.000000
        rExp                           1.000000
      * Coulomb:
        alpha                          2.000000
        third order                    shell-resolved
        anisotropic                    true
        a3                             3.000000
        a5                             4.000000
        cn-shift                       1.200000
        cn-exp                         4.000000
        max-rad                        5.000000

q/qsh data taken from xtbrestart
CAMM data taken from xtbrestart

          ...................................................
          :                      SETUP                      :
          :.................................................:
          :  # basis functions                  58          :
          :  # atomic orbitals                  58          :
          :  # shells                           34          :
          :  # electrons                        62          :
          :  max. iterations                   250          :
          :  Hamiltonian                  GFN2-xTB          :
          :  restarted?                       true          :
          :  GBSA solvation                  false          :
          :  PC potential                    false          :
          :  electronic temp.          300.0000000     K    :
          :  accuracy                    1.0000000          :
          :  -> integral cutoff          0.2500000E+02      :
          :  -> integral neglect         0.1000000E-07      :
          :  -> SCF convergence          0.1000000E-05 Eh   :
          :  -> wf. convergence          0.1000000E-03 e    :
          :  Broyden damping             0.4000000          :
          :  net charge                          0          :
          :  unpaired electrons                  0          :
          ...................................................

 iter      E             dE          RMSdq      gap      omega  full diag
   1    -35.0908369 -0.350908E+02  0.563E+00    3.03       0.0  T
   2    -35.0949898 -0.415284E-02  0.337E+00    3.10       1.0  T
   3    -35.0950640 -0.742678E-04  0.308E-01    3.21       1.0  T
   4    -35.0962162 -0.115218E-02  0.150E-01    3.17       1.0  T
   5    -35.0963178 -0.101599E-03  0.822E-02    3.17       1.0  T
   6    -35.0963317 -0.138622E-04  0.360E-02    3.17       1.0  T
   7    -35.0963480 -0.163381E-04  0.990E-03    3.16       2.2  T
   8    -35.0963487 -0.689312E-06  0.483E-03    3.16       4.4  T
   9    -35.0963488 -0.152636E-06  0.226E-03    3.16       9.4  T
  10    -35.0963489 -0.264170E-07  0.551E-04    3.16      38.7  T
  11    -35.0963489 -0.538442E-09  0.233E-04    3.16      91.6  T

   *** convergence criteria satisfied after 11 iterations ***

         #    Occupation            Energy/Eh            Energy/eV
      -------------------------------------------------------------
         1        2.0000           -0.7316166             -19.9083
       ...           ...                  ...                  ...
        25        2.0000           -0.4535670             -12.3422
        26        2.0000           -0.4438072             -12.0766
        27        2.0000           -0.4257272             -11.5846
        28        2.0000           -0.4214630             -11.4686
        29        2.0000           -0.4168526             -11.3431
        30        2.0000           -0.4137297             -11.2582
        31        2.0000           -0.4046335             -11.0106 (HOMO)
        32                         -0.2883248              -7.8457 (LUMO)
        33                         -0.2353155              -6.4033
        34                         -0.2325142              -6.3270
        35                         -0.1731461              -4.7115
        36                         -0.1064685              -2.8972
       ...                                ...                  ...
        58                          0.6506280              17.7045
      -------------------------------------------------------------
                  HL-Gap            0.1163087 Eh            3.1649 eV
             Fermi-level           -0.3464791 Eh           -9.4282 eV

 SCC (total)                   0 d,  0 h,  0 min,  0.021 sec
 SCC setup                      ...        0 min,  0.000 sec (  0.946%)
 Dispersion                     ...        0 min,  0.000 sec (  1.050%)
 classical contributions        ...        0 min,  0.000 sec (  0.250%)
 integral evaluation            ...        0 min,  0.001 sec (  6.156%)
 iterations                     ...        0 min,  0.017 sec ( 81.931%)
 molecular gradient             ...        0 min,  0.002 sec (  8.862%)
 printout                       ...        0 min,  0.000 sec (  0.682%)

         :::::::::::::::::::::::::::::::::::::::::::::::::::::
         ::                     SUMMARY                     ::
         :::::::::::::::::::::::::::::::::::::::::::::::::::::
         :: total energy             -34.596181348771 Eh    ::
         :: gradient norm              0.147947323410 Eh/a0 ::
         :: HOMO-LUMO gap              3.164921424423 eV    ::
         ::.................................................::
         :: SCC energy               -35.096383080451 Eh    ::
         :: -> isotropic ES            0.050369470299 Eh    ::
         :: -> anisotropic ES         -0.000052265214 Eh    ::
         :: -> anisotropic XC          0.015503016494 Eh    ::
         :: -> dispersion             -0.017923891983 Eh    ::
         :: repulsion energy           0.500201731680 Eh    ::
         :: add. restraining           0.000000000000 Eh    ::
         :: total charge              -0.000000000000 e     ::
         :::::::::::::::::::::::::::::::::::::::::::::::::::::

      ----------------------------------------------------------- 
     |                   =====================                   |
     |                        A N C O P T                        |
     |                   =====================                   |
     |               Approximate Normal Coordinate               |
     |                Rational Function Optimizer                |
      ----------------------------------------------------------- 
      ----------------------------------------------------------- 
     |                   =====================                   |
     |                        A N C O P T                        |
     |                   =====================                   |
     |               Approximate Normal Coordinate               |
     |                Rational Function Optimizer                |
      ----------------------------------------------------------- 

          ...................................................
          :                      SETUP                      :
          :.................................................:
          :   optimization level            normal          :
          :   max. optcycles                   200          :
          :   ANC micro-cycles                  20          :
          :   degrees of freedom                60          :
          :.................................................:
          :   RF solver                   davidson          :
          :   write xtbopt.log                true          :
          :   linear?                        false          :
          :   energy convergence         0.5000000E-05 Eh   :
          :   grad. convergence          0.1000000E-02 Eh/α :
          :   maxmium RF displ.          1.0000000          :
          :   Hlow (freq-cutoff)         0.1000000E-01      :
          :   Hmax (freq-cutoff)         5.0000000          :
          :   S6 in model hess.         20.0000000          :
          ...................................................

generating ANC from exact Hessian ...
Using Lindh-Hessian (1995)
 Shifting diagonal of input Hessian by   8.993152551808875E-003
 Lowest  eigenvalues of input Hessian
    0.000000    0.000000    0.000000    0.000000    0.000000    0.000000
    0.010000    0.010332    0.010795    0.016531    0.017736    0.018792
    0.021880    0.021919    0.023858    0.028918    0.032683    0.034590
 Highest eigenvalues
    1.794224    1.878522    1.895409    2.014542    2.067457    2.097634
 

........................................................................
.............................. CYCLE    1 ..............................
........................................................................

 iter      E             dE          RMSdq      gap      omega  full diag
   1    -35.0963489 -0.350963E+02  0.765E-05    3.16       0.0  T
   2    -35.0963489 -0.299636E-10  0.471E-05    3.16     452.4  T
   3    -35.0963489 -0.139551E-10  0.298E-05    3.16     716.2  T
     SCC iter.                  ...        0 min,  0.003 sec
     gradient                   ...        0 min,  0.004 sec
 * total energy  :   -34.5961813 Eh     change       -0.4545200E-09 Eh
   gradient norm :     0.1479496 Eh/α   predicted     0.0000000E+00 (-100.00%)
   displ. norm   :     0.2466349 α      lambda       -0.1809687E-01
   maximum displ.:     0.1391347 α      in ANC's #8, #49, #10, ...

........................................................................
.............................. CYCLE    2 ..............................
........................................................................

 iter      E             dE          RMSdq      gap      omega  full diag
   1    -35.1257857 -0.351258E+02  0.265E-01    3.43       0.0  T
   2    -35.1261707 -0.384996E-03  0.168E-01    3.44       1.0  T
   3    -35.1261734 -0.264791E-05  0.832E-02    3.44       1.0  T
   4    -35.1261812 -0.781840E-05  0.403E-02    3.44       1.0  T
   5    -35.1262059 -0.247447E-04  0.108E-02    3.44       2.0  T
   6    -35.1262074 -0.146230E-05  0.485E-03    3.44       4.4  T
   7    -35.1262075 -0.988972E-07  0.177E-03    3.44      12.0  T
   8    -35.1262075 -0.824603E-08  0.882E-04    3.44      24.2  T
   9    -35.1262075 -0.353690E-08  0.390E-04    3.44      54.7  T
     SCC iter.                  ...        0 min,  0.019 sec
     gradient                   ...        0 min,  0.002 sec
 * total energy  :   -34.6089240 Eh     change       -0.1274268E-01 Eh
   gradient norm :     0.0611141 Eh/α   predicted    -0.9602189E-02 ( -24.65%)
   displ. norm   :     0.2768187 α      lambda       -0.6005162E-02
   maximum displ.:     0.2184273 α      in ANC's #8, #10, #14, ...

........................................................................
.............................. CYCLE    3 ..............................
........................................................................

 iter      E             dE          RMSdq      gap      omega  full diag
   1    -35.1431586 -0.351432E+02  0.202E-01    3.63       0.0  T
   2    -35.1433552 -0.196549E-03  0.121E-01    3.65       1.0  T
   3    -35.1433585 -0.325889E-05  0.527E-02    3.65       1.0  T
   4    -35.1433610 -0.250424E-05  0.167E-02    3.65       1.3  T
   5    -35.1433643 -0.338863E-05  0.782E-03    3.65       2.7  T
   6    -35.1433652 -0.839229E-06  0.285E-03    3.65       7.5  T
   7    -35.1433652 -0.511969E-07  0.101E-03    3.65      21.1  T
   8    -35.1433652 -0.496811E-08  0.558E-04    3.65      38.2  T
   9    -35.1433652 -0.103677E-08  0.243E-04    3.65      87.6  T
     SCC iter.                  ...        0 min,  0.015 sec
     gradient                   ...        0 min,  0.003 sec
 * total energy  :   -34.6121145 Eh     change       -0.3190437E-02 Eh
   gradient norm :     0.0172524 Eh/α   predicted    -0.3234108E-02 (   1.37%)
   displ. norm   :     0.1415303 α      lambda       -0.6572736E-03
   maximum displ.:     0.1269564 α      in ANC's #8, #7, #10, ...

........................................................................
.............................. CYCLE    4 ..............................
........................................................................

 iter      E             dE          RMSdq      gap      omega  full diag
   1    -35.1423675 -0.351424E+02  0.687E-02    3.64       0.0  T
   2    -35.1423762 -0.864330E-05  0.428E-02    3.64       1.0  T
   3    -35.1423706  0.560907E-05  0.240E-02    3.65       1.0  T
   4    -35.1423772 -0.664211E-05  0.738E-03    3.65       2.9  T
   5    -35.1423781 -0.852129E-06  0.133E-03    3.65      16.0  T
   6    -35.1423781 -0.169320E-07  0.777E-04    3.65      27.4  T
   7    -35.1423781 -0.269601E-08  0.337E-04    3.65      63.2  T
     SCC iter.                  ...        0 min,  0.010 sec
     gradient                   ...        0 min,  0.002 sec
 * total energy  :   -34.6125426 Eh     change       -0.4281257E-03 Eh
   gradient norm :     0.0056956 Eh/α   predicted    -0.3352527E-03 ( -21.69%)
   displ. norm   :     0.1124821 α      lambda       -0.1975436E-03
   maximum displ.:     0.0992479 α      in ANC's #8, #4, #7, ...

........................................................................
.............................. CYCLE    5 ..............................
........................................................................

 iter      E             dE          RMSdq      gap      omega  full diag
   1    -35.1422561 -0.351423E+02  0.485E-02    3.65       0.0  T
   2    -35.1422592 -0.311501E-05  0.297E-02    3.65       1.0  T
   3    -35.1422583  0.897509E-06  0.884E-03    3.65       2.4  T
   4    -35.1422593 -0.910658E-06  0.380E-03    3.65       5.6  T
   5    -35.1422595 -0.272173E-06  0.892E-04    3.65      23.9  T
   6    -35.1422595 -0.920294E-08  0.458E-04    3.65      46.6  T
     SCC iter.                  ...        0 min,  0.006 sec
     gradient                   ...        0 min,  0.002 sec
 * total energy  :   -34.6126548 Eh     change       -0.1122190E-03 Eh
   gradient norm :     0.0030720 Eh/α   predicted    -0.1001005E-03 ( -10.80%)
   displ. norm   :     0.0499881 α      lambda       -0.4697315E-04
   maximum displ.:     0.0359252 α      in ANC's #8, #4, #6, ...

........................................................................
.............................. CYCLE    6 ..............................
........................................................................

 iter      E             dE          RMSdq      gap      omega  full diag
   1    -35.1426416 -0.351426E+02  0.243E-02    3.65       0.0  T
   2    -35.1426420 -0.375762E-06  0.148E-02    3.65       1.4  T
   3    -35.1426412  0.758310E-06  0.723E-03    3.65       2.9  T
   4    -35.1426421 -0.874888E-06  0.173E-03    3.65      12.3  T
   5    -35.1426421 -0.427032E-07  0.478E-04    3.65      44.6  T
   6    -35.1426421 -0.244673E-08  0.258E-04    3.65      82.8  T
     SCC iter.                  ...        0 min,  0.006 sec
     gradient                   ...        0 min,  0.002 sec
 * total energy  :   -34.6126823 Eh     change       -0.2752947E-04 Eh
   gradient norm :     0.0017871 Eh/α   predicted    -0.2354814E-04 ( -14.46%)
   displ. norm   :     0.0646712 α      lambda       -0.2357141E-04
   maximum displ.:     0.0445607 α      in ANC's #4, #6, #8, ...

........................................................................
.............................. CYCLE    7 ..............................
........................................................................

 iter      E             dE          RMSdq      gap      omega  full diag
   1    -35.1430653 -0.351431E+02  0.249E-02    3.66       0.0  T
   2    -35.1430655 -0.181341E-06  0.149E-02    3.66       1.4  T
   3    -35.1430642  0.128438E-05  0.101E-02    3.66       2.1  T
   4    -35.1430658 -0.158140E-05  0.948E-04    3.66      22.5  T
   5    -35.1430658 -0.615378E-08  0.462E-04    3.66      46.1  T
   6    -35.1430658 -0.380695E-09  0.220E-04    3.66      96.9  T
     SCC iter.                  ...        0 min,  0.006 sec
     gradient                   ...        0 min,  0.002 sec
 * total energy  :   -34.6127040 Eh     change       -0.2170276E-04 Eh
   gradient norm :     0.0015794 Eh/α   predicted    -0.1183453E-04 ( -45.47%)
   displ. norm   :     0.0769355 α      lambda       -0.1885897E-04
   maximum displ.:     0.0608655 α      in ANC's #4, #6, #2, ...

........................................................................
.............................. CYCLE    8 ..............................
........................................................................

 iter      E             dE          RMSdq      gap      omega  full diag
   1    -35.1431510 -0.351432E+02  0.277E-02    3.66       0.0  T
   2    -35.1431512 -0.157365E-06  0.165E-02    3.66       1.3  T
   3    -35.1431502  0.100606E-05  0.812E-03    3.66       2.6  T
   4    -35.1431513 -0.114741E-05  0.962E-04    3.66      22.2  T
   5    -35.1431513 -0.104563E-07  0.474E-04    3.66      45.0  T
   6    -35.1431513 -0.805045E-09  0.261E-04    3.66      81.7  T
     SCC iter.                  ...        0 min,  0.008 sec
     gradient                   ...        0 min,  0.003 sec
 * total energy  :   -34.6127287 Eh     change       -0.2463938E-04 Eh
   gradient norm :     0.0021112 Eh/α   predicted    -0.9456154E-05 ( -61.62%)
   displ. norm   :     0.1531214 α      lambda       -0.5325794E-04
   maximum displ.:     0.1197396 α      in ANC's #4, #6, #2, ...

........................................................................
.............................. CYCLE    9 ..............................
........................................................................

 iter      E             dE          RMSdq      gap      omega  full diag
   1    -35.1427524 -0.351428E+02  0.526E-02    3.66       0.0  T
   2    -35.1427530 -0.523247E-06  0.311E-02    3.66       1.0  T
   3    -35.1427512  0.176371E-05  0.107E-02    3.66       2.0  T
   4    -35.1427532 -0.200152E-05  0.182E-03    3.66      11.7  T
   5    -35.1427532 -0.403624E-07  0.859E-04    3.66      24.8  T
   6    -35.1427532 -0.186538E-08  0.464E-04    3.66      45.9  T
     SCC iter.                  ...        0 min,  0.008 sec
     gradient                   ...        0 min,  0.002 sec
 * total energy  :   -34.6127767 Eh     change       -0.4801879E-04 Eh
   gradient norm :     0.0027757 Eh/α   predicted    -0.2725541E-04 ( -43.24%)
   displ. norm   :     0.2285570 α      lambda       -0.7970439E-04
   maximum displ.:     0.1796520 α      in ANC's #4, #6, #2, ...

........................................................................
.............................. CYCLE   10 ..............................
........................................................................

 iter      E             dE          RMSdq      gap      omega  full diag
   1    -35.1416067 -0.351416E+02  0.817E-02    3.66       0.0  T
   2    -35.1416081 -0.136312E-05  0.480E-02    3.67       1.0  T
   3    -35.1416053  0.275652E-05  0.136E-02    3.66       1.6  T
   4    -35.1416085 -0.316623E-05  0.293E-03    3.67       7.3  T
   5    -35.1416086 -0.109572E-06  0.135E-03    3.67      15.8  T
   6    -35.1416086 -0.521353E-08  0.718E-04    3.67      29.7  T
   7    -35.1416086 -0.341979E-08  0.174E-04    3.67     122.4  T
     SCC iter.                  ...        0 min,  0.010 sec
     gradient                   ...        0 min,  0.002 sec
 * total energy  :   -34.6128352 Eh     change       -0.5848323E-04 Eh
   gradient norm :     0.0049782 Eh/α   predicted    -0.4193729E-04 ( -28.29%)
   displ. norm   :     0.1822724 α      lambda       -0.7555871E-04
   maximum displ.:     0.1487845 α      in ANC's #4, #6, #2, ...

........................................................................
.............................. CYCLE   11 ..............................
........................................................................

 iter      E             dE          RMSdq      gap      omega  full diag
   1    -35.1411588 -0.351412E+02  0.691E-02    3.67       0.0  T
   2    -35.1411594 -0.653131E-06  0.407E-02    3.67       1.0  T
   3    -35.1411582  0.117824E-05  0.876E-03    3.67       2.4  T
   4    -35.1411597 -0.141560E-05  0.211E-03    3.67      10.1  T
   5    -35.1411597 -0.466372E-07  0.110E-03    3.67      19.4  T
   6    -35.1411597 -0.330717E-08  0.541E-04    3.67      39.4  T
   7    -35.1411597 -0.251526E-08  0.135E-04    3.67     157.8  T
     SCC iter.                  ...        0 min,  0.007 sec
     gradient                   ...        0 min,  0.003 sec
 * total energy  :   -34.6128927 Eh     change       -0.5752476E-04 Eh
   gradient norm :     0.0057557 Eh/α   predicted    -0.3903759E-04 ( -32.14%)
   displ. norm   :     0.2219152 α      lambda       -0.1570636E-03
   maximum displ.:     0.1894433 α      in ANC's #4, #6, #1, ...

........................................................................
.............................. CYCLE   12 ..............................
........................................................................

 iter      E             dE          RMSdq      gap      omega  full diag
   1    -35.1420698 -0.351421E+02  0.944E-02    3.67       0.0  T
   2    -35.1420708 -0.108335E-05  0.554E-02    3.67       1.0  T
   3    -35.1420698  0.100420E-05  0.789E-03    3.67       2.7  T
   4    -35.1420712 -0.138059E-05  0.247E-03    3.67       8.6  T
   5    -35.1420713 -0.440184E-07  0.137E-03    3.67      15.6  T
   6    -35.1420713 -0.360916E-08  0.793E-04    3.67      26.9  T
   7    -35.1420713 -0.647515E-08  0.154E-04    3.67     138.9  T
     SCC iter.                  ...        0 min,  0.007 sec
     gradient                   ...        0 min,  0.002 sec
 * total energy  :   -34.6130004 Eh     change       -0.1076921E-03 Eh
   gradient norm :     0.0045518 Eh/α   predicted    -0.8240039E-04 ( -23.49%)
   displ. norm   :     0.4278277 α      lambda       -0.1706180E-03
   maximum displ.:     0.3632134 α      in ANC's #4, #6, #2, ...

........................................................................
.............................. CYCLE   13 ..............................
........................................................................

 iter      E             dE          RMSdq      gap      omega  full diag
   1    -35.1382657 -0.351383E+02  0.164E-01    3.67       0.0  T
   2    -35.1382733 -0.758430E-05  0.964E-02    3.67       1.0  T
   3    -35.1382616  0.117369E-04  0.278E-02    3.67       1.0  T
   4    -35.1382751 -0.135277E-04  0.688E-03    3.67       3.1  T
   5    -35.1382757 -0.616368E-06  0.292E-03    3.67       7.3  T
   6    -35.1382757 -0.204085E-07  0.163E-03    3.67      13.0  T
   7    -35.1382758 -0.211631E-07  0.372E-04    3.67      57.3  T
   8    -35.1382758 -0.984656E-09  0.152E-04    3.67     140.6  T
     SCC iter.                  ...        0 min,  0.008 sec
     gradient                   ...        0 min,  0.002 sec
 * total energy  :   -34.6129855 Eh     change        0.1490417E-04 Eh
   gradient norm :     0.0124842 Eh/α   predicted    -0.1009248E-03 (-777.16%)
   displ. norm   :     0.1225616 α      lambda       -0.3810268E-03
   maximum displ.:     0.0818866 α      in ANC's #4, #6, #2, ...

........................................................................
.............................. CYCLE   14 ..............................
........................................................................

 iter      E             dE          RMSdq      gap      omega  full diag
   1    -35.1439499 -0.351439E+02  0.614E-02    3.68       0.0  T
   2    -35.1439573 -0.733795E-05  0.348E-02    3.68       1.0  T
   3    -35.1439567  0.568445E-06  0.146E-02    3.69       1.5  T
   4    -35.1439581 -0.140965E-05  0.360E-03    3.68       5.9  T
   5    -35.1439583 -0.147502E-06  0.156E-03    3.68      13.7  T
   6    -35.1439583 -0.871729E-08  0.822E-04    3.68      25.9  T
   7    -35.1439583 -0.294170E-08  0.316E-04    3.68      67.6  T
     SCC iter.                  ...        0 min,  0.007 sec
     gradient                   ...        0 min,  0.002 sec
 * total energy  :   -34.6131427 Eh     change       -0.1572531E-03 Eh
   gradient norm :     0.0032897 Eh/α   predicted    -0.1933826E-03 (  22.98%)
   displ. norm   :     0.1297607 α      lambda       -0.5266328E-04
   maximum displ.:     0.1158918 α      in ANC's #4, #6, #1, ...

........................................................................
.............................. CYCLE   15 ..............................
........................................................................

 iter      E             dE          RMSdq      gap      omega  full diag
   1    -35.1433469 -0.351433E+02  0.544E-02    3.68       0.0  T
   2    -35.1433476 -0.763988E-06  0.321E-02    3.68       1.0  T
   3    -35.1433463  0.129306E-05  0.890E-03    3.68       2.4  T
   4    -35.1433478 -0.148783E-05  0.223E-03    3.68       9.6  T
   5    -35.1433479 -0.644363E-07  0.948E-04    3.68      22.5  T
   6    -35.1433479 -0.383314E-08  0.552E-04    3.68      38.6  T
     SCC iter.                  ...        0 min,  0.005 sec
     gradient                   ...        0 min,  0.002 sec
 * total energy  :   -34.6131872 Eh     change       -0.4448523E-04 Eh
   gradient norm :     0.0030906 Eh/α   predicted    -0.2677840E-04 ( -39.80%)
   displ. norm   :     0.4083255 α      lambda       -0.1282340E-03
   maximum displ.:     0.3649194 α      in ANC's #4, #6, #33, ...

........................................................................
.............................. CYCLE   16 ..............................
........................................................................

 iter      E             dE          RMSdq      gap      omega  full diag
   1    -35.1400270 -0.351400E+02  0.156E-01    3.68       0.0  T
   2    -35.1400343 -0.731420E-05  0.917E-02    3.68       1.0  T
   3    -35.1400134  0.208943E-04  0.369E-02    3.68       1.0  T
   4    -35.1400376 -0.241597E-04  0.616E-03    3.68       3.5  T
   5    -35.1400380 -0.406251E-06  0.302E-03    3.68       7.1  T
   6    -35.1400380 -0.290669E-07  0.171E-03    3.68      12.5  T
   7    -35.1400381 -0.182605E-07  0.350E-04    3.68      60.9  T
   8    -35.1400381 -0.129420E-08  0.137E-04    3.68     156.0  T
     SCC iter.                  ...        0 min,  0.006 sec
     gradient                   ...        0 min,  0.002 sec
 * total energy  :   -34.6131773 Eh     change        0.9967245E-05 Eh
   gradient norm :     0.0106542 Eh/α   predicted    -0.7480617E-04 (-850.52%)
   displ. norm   :     0.1915200 α      lambda       -0.1999996E-03
   maximum displ.:     0.1645404 α      in ANC's #4, #6, #1, ...

........................................................................
.............................. CYCLE   17 ..............................
........................................................................

 iter      E             dE          RMSdq      gap      omega  full diag
   1    -35.1433860 -0.351434E+02  0.763E-02    3.69       0.0  T
   2    -35.1433895 -0.355371E-05  0.443E-02    3.69       1.0  T
   3    -35.1433866  0.293276E-05  0.160E-02    3.69       1.3  T
   4    -35.1433900 -0.339947E-05  0.448E-03    3.69       4.8  T
   5    -35.1433903 -0.312201E-06  0.164E-03    3.69      13.0  T
   6    -35.1433903 -0.138616E-07  0.870E-04    3.69      24.5  T
   7    -35.1433903 -0.249271E-08  0.265E-04    3.69      80.3  T
     SCC iter.                  ...        0 min,  0.006 sec
     gradient                   ...        0 min,  0.002 sec
 * total energy  :   -34.6132593 Eh     change       -0.8206369E-04 Eh
   gradient norm :     0.0035452 Eh/α   predicted    -0.1036783E-03 (  26.34%)
   displ. norm   :     0.0765342 α      lambda       -0.3210825E-04
   maximum displ.:     0.0693742 α      in ANC's #4, #6, #1, ...

........................................................................
.............................. CYCLE   18 ..............................
........................................................................

 iter      E             dE          RMSdq      gap      omega  full diag
   1    -35.1435892 -0.351436E+02  0.295E-02    3.69       0.0  T
   2    -35.1435894 -0.152716E-06  0.174E-02    3.69       1.2  T
   3    -35.1435881  0.124948E-05  0.889E-03    3.69       2.4  T
   4    -35.1435896 -0.146369E-05  0.111E-03    3.69      19.1  T
   5    -35.1435896 -0.105159E-07  0.648E-04    3.69      32.9  T
   6    -35.1435896 -0.141776E-08  0.187E-04    3.69     114.0  T
     SCC iter.                  ...        0 min,  0.005 sec
     gradient                   ...        0 min,  0.002 sec
 * total energy  :   -34.6132894 Eh     change       -0.3007521E-04 Eh
   gradient norm :     0.0032018 Eh/α   predicted    -0.1614980E-04 ( -46.30%)
   displ. norm   :     0.4672133 α      lambda       -0.1841323E-03
   maximum displ.:     0.4194212 α      in ANC's #4, #1, #6, ...

........................................................................
.............................. CYCLE   19 ..............................
........................................................................

 iter      E             dE          RMSdq      gap      omega  full diag
   1    -35.1412073 -0.351412E+02  0.183E-01    3.70       0.0  T
   2    -35.1412162 -0.886988E-05  0.108E-01    3.71       1.0  T
   3    -35.1411750  0.411424E-04  0.523E-02    3.70       1.0  T
   4    -35.1412238 -0.487677E-04  0.774E-03    3.70       2.8  T
   5    -35.1412245 -0.662546E-06  0.407E-03    3.70       5.2  T
   6    -35.1412245 -0.419593E-07  0.188E-03    3.70      11.3  T
   7    -35.1412245 -0.240403E-07  0.420E-04    3.70      50.8  T
   8    -35.1412245 -0.219947E-08  0.144E-04    3.70     147.8  T
     SCC iter.                  ...        0 min,  0.007 sec
     gradient                   ...        0 min,  0.002 sec
 * total energy  :   -34.6133697 Eh     change       -0.8025986E-04 Eh
   gradient norm :     0.0085384 Eh/α   predicted    -0.1120965E-03 (  39.67%)
   displ. norm   :     0.0984672 α      lambda       -0.1250036E-03
   maximum displ.:     0.0776971 α      in ANC's #4, #1, #6, ...

........................................................................
.............................. CYCLE   20 ..............................
........................................................................

 iter      E             dE          RMSdq      gap      omega  full diag
   1    -35.1444984 -0.351445E+02  0.509E-02    3.72       0.0  T
   2    -35.1445015 -0.306414E-05  0.301E-02    3.72       1.0  T
   3    -35.1445006  0.812180E-06  0.110E-02    3.72       1.9  T
   4    -35.1445020 -0.131111E-05  0.181E-03    3.72      11.7  T
   5    -35.1445020 -0.333403E-07  0.989E-04    3.72      21.6  T
   6    -35.1445020 -0.595454E-08  0.562E-04    3.72      37.9  T
     SCC iter.                  ...        0 min,  0.014 sec
     gradient                   ...        0 min,  0.002 sec
 * total energy  :   -34.6134289 Eh     change       -0.5920617E-04 Eh
   gradient norm :     0.0026111 Eh/α   predicted    -0.6315328E-04 (   6.67%)
   displ. norm   :     0.1730418 α      lambda       -0.7013342E-04
   maximum displ.:     0.1245326 α      in ANC's #4, #1, #40, ...
 * RMSD in coord.:     0.4954806 α      energy gain  -0.1724752E-01 Eh

generating ANC from exact Hessian ...
Using Lindh-Hessian (1995)
 Shifting diagonal of input Hessian by   8.795683084311038E-003
 Lowest  eigenvalues of input Hessian
    0.000000    0.000000    0.000000    0.000000    0.000000    0.000000
    0.010000    0.010070    0.010906    0.016581    0.017452    0.019459
    0.021705    0.022341    0.024722    0.029341    0.033135    0.035370
 Highest eigenvalues
    1.835112    1.908448    1.915530    2.029046    2.100200    2.377469
 

........................................................................
.............................. CYCLE   21 ..............................
........................................................................

 iter      E             dE          RMSdq      gap      omega  full diag
   1    -35.1445414 -0.351445E+02  0.825E-02    3.72       0.0  T
   2    -35.1445433 -0.190241E-05  0.485E-02    3.72       1.0  T
   3    -35.1445400  0.338488E-05  0.139E-02    3.72       1.5  T
   4    -35.1445440 -0.408459E-05  0.331E-03    3.72       6.4  T
   5    -35.1445442 -0.118479E-06  0.165E-03    3.72      12.9  T
   6    -35.1445442 -0.188210E-07  0.903E-04    3.72      23.6  T
   7    -35.1445442 -0.343797E-08  0.167E-04    3.72     127.9  T
     SCC iter.                  ...        0 min,  0.006 sec
     gradient                   ...        0 min,  0.002 sec
 * total energy  :   -34.6134865 Eh     change       -0.5765129E-04 Eh
   gradient norm :     0.0031183 Eh/α   predicted     0.0000000E+00 (-100.00%)
   displ. norm   :     0.0413025 α      lambda       -0.3757250E-04
   maximum displ.:     0.0330302 α      in ANC's #1, #3, #2, ...

........................................................................
.............................. CYCLE   22 ..............................
........................................................................

 iter      E             dE          RMSdq      gap      omega  full diag
   1    -35.1445226 -0.351445E+02  0.226E-02    3.72       0.0  T
   2    -35.1445228 -0.214326E-06  0.133E-02    3.72       1.6  T
   3    -35.1445225  0.277409E-06  0.447E-03    3.72       4.8  T
   4    -35.1445229 -0.352016E-06  0.745E-04    3.72      28.6  T
   5    -35.1445229 -0.523710E-08  0.365E-04    3.72      58.4  T
     SCC iter.                  ...        0 min,  0.004 sec
     gradient                   ...        0 min,  0.002 sec
 * total energy  :   -34.6135179 Eh     change       -0.3140183E-04 Eh
   gradient norm :     0.0012441 Eh/α   predicted    -0.1885423E-04 ( -39.96%)
   displ. norm   :     0.1562466 α      lambda       -0.6011858E-04
   maximum displ.:     0.1164389 α      in ANC's #1, #3, #2, ...

........................................................................
.............................. CYCLE   23 ..............................
........................................................................

 iter      E             dE          RMSdq      gap      omega  full diag
   1    -35.1442468 -0.351442E+02  0.815E-02    3.72       0.0  T
   2    -35.1442480 -0.120629E-05  0.480E-02    3.71       1.0  T
   3    -35.1442454  0.256546E-05  0.122E-02    3.71       1.7  T
   4    -35.1442486 -0.315437E-05  0.194E-03    3.71      11.0  T
   5    -35.1442486 -0.193907E-07  0.116E-03    3.71      18.4  T
   6    -35.1442486 -0.935228E-08  0.554E-04    3.71      38.5  T
   7    -35.1442486 -0.185062E-08  0.248E-04    3.71      86.1  T
     SCC iter.                  ...        0 min,  0.006 sec
     gradient                   ...        0 min,  0.002 sec
 * total energy  :   -34.6135792 Eh     change       -0.6131558E-04 Eh
   gradient norm :     0.0028969 Eh/α   predicted    -0.3038731E-04 ( -50.44%)
   displ. norm   :     0.1027366 α      lambda       -0.4283401E-04
   maximum displ.:     0.0744384 α      in ANC's #1, #3, #2, ...

........................................................................
.............................. CYCLE   24 ..............................
........................................................................

 iter      E             dE          RMSdq      gap      omega  full diag
   1    -35.1441877 -0.351442E+02  0.544E-02    3.71       0.0  T
   2    -35.1441880 -0.284531E-06  0.319E-02    3.71       1.0  T
   3    -35.1441876  0.378774E-06  0.452E-03    3.71       4.7  T
   4    -35.1441882 -0.515749E-06  0.103E-03    3.71      20.6  T
   5    -35.1441882 -0.380977E-08  0.613E-04    3.71      34.8  T
   6    -35.1441882 -0.116364E-08  0.344E-04    3.71      61.9  T
     SCC iter.                  ...        0 min,  0.005 sec
     gradient                   ...        0 min,  0.002 sec
 * total energy  :   -34.6136202 Eh     change       -0.4091277E-04 Eh
   gradient norm :     0.0028003 Eh/α   predicted    -0.2165568E-04 ( -47.07%)
   displ. norm   :     0.2275021 α      lambda       -0.1024014E-03
   maximum displ.:     0.1576551 α      in ANC's #1, #3, #2, ...

........................................................................
.............................. CYCLE   25 ..............................
........................................................................

 iter      E             dE          RMSdq      gap      omega  full diag
   1    -35.1437798 -0.351438E+02  0.122E-01    3.70       0.0  T
   2    -35.1437812 -0.146803E-05  0.718E-02    3.70       1.0  T
   3    -35.1437790  0.224713E-05  0.114E-02    3.69       1.9  T
   4    -35.1437819 -0.292703E-05  0.284E-03    3.69       7.5  T
   5    -35.1437820 -0.532917E-07  0.168E-03    3.69      12.7  T
   6    -35.1437820 -0.174843E-07  0.802E-04    3.69      26.6  T
   7    -35.1437820 -0.355344E-08  0.197E-04    3.69     108.3  T
     SCC iter.                  ...        0 min,  0.006 sec
     gradient                   ...        0 min,  0.002 sec
 * total energy  :   -34.6137114 Eh     change       -0.9126193E-04 Eh
   gradient norm :     0.0028031 Eh/α   predicted    -0.5385706E-04 ( -40.99%)
   displ. norm   :     0.3412278 α      lambda       -0.1336182E-03
   maximum displ.:     0.2392927 α      in ANC's #1, #3, #4, ...

........................................................................
.............................. CYCLE   26 ..............................
........................................................................

 iter      E             dE          RMSdq      gap      omega  full diag
   1    -35.1423603 -0.351424E+02  0.186E-01    3.68       0.0  T
   2    -35.1423638 -0.353408E-05  0.109E-01    3.67       1.0  T
   3    -35.1423592  0.456406E-05  0.170E-02    3.67       1.3  T
   4    -35.1423653 -0.606764E-05  0.438E-03    3.67       4.9  T
   5    -35.1423654 -0.146146E-06  0.256E-03    3.67       8.3  T
   6    -35.1423655 -0.362290E-07  0.120E-03    3.67      17.7  T
   7    -35.1423655 -0.773300E-08  0.348E-04    3.67      61.3  T
   8    -35.1423655 -0.169727E-08  0.111E-04    3.67     191.2  T
     SCC iter.                  ...        0 min,  0.007 sec
     gradient                   ...        0 min,  0.002 sec
 * total energy  :   -34.6138017 Eh     change       -0.9032201E-04 Eh
   gradient norm :     0.0072442 Eh/α   predicted    -0.7459862E-04 ( -17.41%)
   displ. norm   :     0.1368103 α      lambda       -0.6791438E-04
   maximum displ.:     0.1076777 α      in ANC's #1, #3, #4, ...

........................................................................
.............................. CYCLE   27 ..............................
........................................................................

 iter      E             dE          RMSdq      gap      omega  full diag
   1    -35.1432819 -0.351433E+02  0.765E-02    3.68       0.0  T
   2    -35.1432825 -0.608328E-06  0.451E-02    3.67       1.0  T
   3    -35.1432797  0.273963E-05  0.123E-02    3.67       1.7  T
   4    -35.1432828 -0.312192E-05  0.180E-03    3.67      11.8  T
   5    -35.1432829 -0.258284E-07  0.940E-04    3.67      22.7  T
   6    -35.1432829 -0.495277E-08  0.463E-04    3.67      46.0  T
     SCC iter.                  ...        0 min,  0.005 sec
     gradient                   ...        0 min,  0.002 sec
 * total energy  :   -34.6138581 Eh     change       -0.5636439E-04 Eh
   gradient norm :     0.0053794 Eh/α   predicted    -0.3459555E-04 ( -38.62%)
   displ. norm   :     0.1825795 α      lambda       -0.1059440E-03
   maximum displ.:     0.1571784 α      in ANC's #1, #3, #4, ...

........................................................................
.............................. CYCLE   28 ..............................
........................................................................

 iter      E             dE          RMSdq      gap      omega  full diag
   1    -35.1451830 -0.351452E+02  0.103E-01    3.69       0.0  T
   2    -35.1451844 -0.139845E-05  0.603E-02    3.68       1.0  T
   3    -35.1451802  0.414882E-05  0.151E-02    3.69       1.4  T
   4    -35.1451850 -0.478207E-05  0.303E-03    3.68       7.0  T
   5    -35.1451851 -0.110550E-06  0.128E-03    3.68      16.6  T
   6    -35.1451851 -0.378852E-08  0.620E-04    3.68      34.4  T
   7    -35.1451851 -0.161582E-08  0.254E-04    3.68      83.8  T
     SCC iter.                  ...        0 min,  0.006 sec
     gradient                   ...        0 min,  0.002 sec
 * total energy  :   -34.6139385 Eh     change       -0.8037039E-04 Eh
   gradient norm :     0.0022152 Eh/α   predicted    -0.5474226E-04 ( -31.89%)
   displ. norm   :     0.2668241 α      lambda       -0.9259952E-04
   maximum displ.:     0.2281539 α      in ANC's #1, #3, #4, ...

........................................................................
.............................. CYCLE   29 ..............................
........................................................................

 iter      E             dE          RMSdq      gap      omega  full diag
   1    -35.1444848 -0.351445E+02  0.147E-01    3.68       0.0  T
   2    -35.1444872 -0.242765E-05  0.865E-02    3.68       1.0  T
   3    -35.1444848  0.241088E-05  0.116E-02    3.68       1.8  T
   4    -35.1444879 -0.310329E-05  0.357E-03    3.68       6.0  T
   5    -35.1444880 -0.146300E-06  0.178E-03    3.68      12.0  T
   6    -35.1444881 -0.142707E-07  0.101E-03    3.68      21.1  T
   7    -35.1444881 -0.618835E-08  0.212E-04    3.68     100.5  T
   8    -35.1444881 -0.462997E-09  0.885E-05    3.68     240.9  T
     SCC iter.                  ...        0 min,  0.007 sec
     gradient                   ...        0 min,  0.002 sec
 * total energy  :   -34.6140141 Eh     change       -0.7564217E-04 Eh
   gradient norm :     0.0025577 Eh/α   predicted    -0.4960163E-04 ( -34.43%)
   displ. norm   :     0.1625004 α      lambda       -0.5810643E-04
   maximum displ.:     0.1496987 α      in ANC's #1, #4, #3, ...

........................................................................
.............................. CYCLE   30 ..............................
........................................................................

 iter      E             dE          RMSdq      gap      omega  full diag
   1    -35.1448265 -0.351448E+02  0.871E-02    3.68       0.0  T
   2    -35.1448274 -0.820073E-06  0.512E-02    3.68       1.0  T
   3    -35.1448260  0.136168E-05  0.854E-03    3.68       2.5  T
   4    -35.1448277 -0.167973E-05  0.190E-03    3.68      11.2  T
   5    -35.1448277 -0.271409E-07  0.107E-03    3.68      19.9  T
   6    -35.1448277 -0.736634E-08  0.515E-04    3.68      41.4  T
   7    -35.1448277 -0.106829E-08  0.200E-04    3.68     106.5  T
     SCC iter.                  ...        0 min,  0.006 sec
     gradient                   ...        0 min,  0.002 sec
 * total energy  :   -34.6140619 Eh     change       -0.4782705E-04 Eh
   gradient norm :     0.0018138 Eh/α   predicted    -0.2982484E-04 ( -37.64%)
   displ. norm   :     0.2236795 α      lambda       -0.4704057E-04
   maximum displ.:     0.2087871 α      in ANC's #1, #4, #3, ...

........................................................................
.............................. CYCLE   31 ..............................
........................................................................

 iter      E             dE          RMSdq      gap      omega  full diag
   1    -35.1447601 -0.351448E+02  0.120E-01    3.67       0.0  T
   2    -35.1447620 -0.184204E-05  0.703E-02    3.67       1.0  T
   3    -35.1447608  0.111729E-05  0.840E-03    3.67       2.5  T
   4    -35.1447624 -0.153507E-05  0.239E-03    3.67       8.9  T
   5    -35.1447625 -0.755903E-07  0.114E-03    3.67      18.7  T
   6    -35.1447625 -0.112684E-08  0.544E-04    3.67      39.2  T
   7    -35.1447625 -0.168735E-08  0.205E-04    3.67     104.1  T
     SCC iter.                  ...        0 min,  0.006 sec
     gradient                   ...        0 min,  0.003 sec
 * total energy  :   -34.6141172 Eh     change       -0.5528173E-04 Eh
   gradient norm :     0.0020257 Eh/α   predicted    -0.2404560E-04 ( -56.50%)
   displ. norm   :     0.1051605 α      lambda       -0.3269831E-04
   maximum displ.:     0.1004710 α      in ANC's #1, #4, #2, ...

........................................................................
.............................. CYCLE   32 ..............................
........................................................................

 iter      E             dE          RMSdq      gap      omega  full diag
   1    -35.1451552 -0.351452E+02  0.549E-02    3.67       0.0  T
   2    -35.1451555 -0.349925E-06  0.323E-02    3.67       1.0  T
   3    -35.1451551  0.405485E-06  0.491E-03    3.67       4.3  T
   4    -35.1451556 -0.489549E-06  0.126E-03    3.67      16.9  T
   5    -35.1451556 -0.172391E-07  0.597E-04    3.67      35.7  T
   6    -35.1451556 -0.242655E-08  0.308E-04    3.67      69.2  T
     SCC iter.                  ...        0 min,  0.005 sec
     gradient                   ...        0 min,  0.002 sec
 * total energy  :   -34.6141445 Eh     change       -0.2730183E-04 Eh
   gradient norm :     0.0018555 Eh/α   predicted    -0.1653045E-04 ( -39.45%)
   displ. norm   :     0.1800066 α      lambda       -0.3081607E-04
   maximum displ.:     0.1696233 α      in ANC's #1, #4, #8, ...

........................................................................
.............................. CYCLE   33 ..............................
........................................................................

 iter      E             dE          RMSdq      gap      omega  full diag
   1    -35.1449805 -0.351450E+02  0.938E-02    3.66       0.0  T
   2    -35.1449810 -0.516082E-06  0.550E-02    3.65       1.0  T
   3    -35.1449808  0.201743E-06  0.423E-03    3.65       5.0  T
   4    -35.1449812 -0.378929E-06  0.146E-03    3.65      14.6  T
   5    -35.1449812 -0.141875E-07  0.781E-04    3.65      27.3  T
   6    -35.1449812 -0.174387E-08  0.412E-04    3.65      51.7  T
     SCC iter.                  ...        0 min,  0.005 sec
     gradient                   ...        0 min,  0.002 sec
 * total energy  :   -34.6141801 Eh     change       -0.3557291E-04 Eh
   gradient norm :     0.0015865 Eh/α   predicted    -0.1563146E-04 ( -56.06%)
   displ. norm   :     0.1114177 α      lambda       -0.1820099E-04
   maximum displ.:     0.1059945 α      in ANC's #1, #2, #7, ...

........................................................................
.............................. CYCLE   34 ..............................
........................................................................

 iter      E             dE          RMSdq      gap      omega  full diag
   1    -35.1456327 -0.351456E+02  0.579E-02    3.65       0.0  T
   2    -35.1456330 -0.332438E-06  0.340E-02    3.65       1.0  T
   3    -35.1456325  0.460339E-06  0.567E-03    3.65       3.8  T
   4    -35.1456331 -0.551786E-06  0.116E-03    3.65      18.4  T
   5    -35.1456331 -0.184152E-07  0.550E-04    3.65      38.8  T
   6    -35.1456331 -0.140556E-08  0.243E-04    3.65      87.6  T
     SCC iter.                  ...        0 min,  0.005 sec
     gradient                   ...        0 min,  0.002 sec
 * total energy  :   -34.6141987 Eh     change       -0.1862475E-04 Eh
   gradient norm :     0.0027884 Eh/α   predicted    -0.9151875E-05 ( -50.86%)
   displ. norm   :     0.0591549 α      lambda       -0.1557249E-04
   maximum displ.:     0.0563719 α      in ANC's #1, #3, #7, ...

........................................................................
.............................. CYCLE   35 ..............................
........................................................................

 iter      E             dE          RMSdq      gap      omega  full diag
   1    -35.1454544 -0.351455E+02  0.324E-02    3.65       0.0  T
   2    -35.1454544 -0.490498E-07  0.190E-02    3.65       1.1  T
   3    -35.1454542  0.255445E-06  0.382E-03    3.64       5.6  T
   4    -35.1454545 -0.286815E-06  0.535E-04    3.64      39.8  T
   5    -35.1454545 -0.287695E-08  0.225E-04    3.64      94.7  T
     SCC iter.                  ...        0 min,  0.004 sec
     gradient                   ...        0 min,  0.002 sec
 * total energy  :   -34.6142133 Eh     change       -0.1455174E-04 Eh
   gradient norm :     0.0022369 Eh/α   predicted    -0.7815276E-05 ( -46.29%)
   displ. norm   :     0.0631778 α      lambda       -0.2113184E-04
   maximum displ.:     0.0579487 α      in ANC's #1, #3, #4, ...

........................................................................
.............................. CYCLE   36 ..............................
........................................................................

 iter      E             dE          RMSdq      gap      omega  full diag
   1    -35.1453554 -0.351454E+02  0.351E-02    3.64       0.0  T
   2    -35.1453555 -0.761770E-07  0.206E-02    3.64       1.0  T
   3    -35.1453550  0.505688E-06  0.536E-03    3.64       4.0  T
   4    -35.1453556 -0.559967E-06  0.747E-04    3.64      28.5  T
   5    -35.1453556 -0.719514E-08  0.237E-04    3.64      90.1  T
     SCC iter.                  ...        0 min,  0.004 sec
     gradient                   ...        0 min,  0.002 sec
 * total energy  :   -34.6142328 Eh     change       -0.1950410E-04 Eh
   gradient norm :     0.0015050 Eh/α   predicted    -0.1061287E-04 ( -45.59%)
   displ. norm   :     0.1658636 α      lambda       -0.3587468E-04
   maximum displ.:     0.1469664 α      in ANC's #1, #3, #4, ...

........................................................................
.............................. CYCLE   37 ..............................
........................................................................

 iter      E             dE          RMSdq      gap      omega  full diag
   1    -35.1449512 -0.351450E+02  0.914E-02    3.62       0.0  T
   2    -35.1449516 -0.384691E-06  0.536E-02    3.62       1.0  T
   3    -35.1449466  0.505010E-05  0.171E-02    3.62       1.2  T
   4    -35.1449521 -0.559534E-05  0.151E-03    3.62      14.1  T
   5    -35.1449522 -0.197544E-07  0.684E-04    3.62      31.2  T
   6    -35.1449522 -0.905807E-09  0.195E-04    3.62     109.3  T
     SCC iter.                  ...        0 min,  0.005 sec
     gradient                   ...        0 min,  0.002 sec
 * total energy  :   -34.6142777 Eh     change       -0.4492809E-04 Eh
   gradient norm :     0.0014903 Eh/α   predicted    -0.1815745E-04 ( -59.59%)
   displ. norm   :     0.2082643 α      lambda       -0.3673293E-04
   maximum displ.:     0.1836887 α      in ANC's #1, #4, #3, ...

........................................................................
.............................. CYCLE   38 ..............................
........................................................................

 iter      E             dE          RMSdq      gap      omega  full diag
   1    -35.1446862 -0.351447E+02  0.111E-01    3.60       0.0  T
   2    -35.1446868 -0.590025E-06  0.649E-02    3.60       1.0  T
   3    -35.1446772  0.964377E-05  0.240E-02    3.60       1.0  T
   4    -35.1446879 -0.107089E-04  0.164E-03    3.60      13.0  T
   5    -35.1446879 -0.134438E-07  0.861E-04    3.60      24.8  T
   6    -35.1446879 -0.153548E-08  0.328E-04    3.60      65.1  T
     SCC iter.                  ...        0 min,  0.005 sec
     gradient                   ...        0 min,  0.002 sec
 * total energy  :   -34.6143236 Eh     change       -0.4585080E-04 Eh
   gradient norm :     0.0019874 Eh/α   predicted    -0.1872159E-04 ( -59.17%)
   displ. norm   :     0.2530135 α      lambda       -0.3673957E-04
   maximum displ.:     0.2240039 α      in ANC's #1, #4, #8, ...

........................................................................
.............................. CYCLE   39 ..............................
........................................................................

 iter      E             dE          RMSdq      gap      omega  full diag
   1    -35.1442941 -0.351443E+02  0.133E-01    3.58       0.0  T
   2    -35.1442947 -0.643540E-06  0.778E-02    3.58       1.0  T
   3    -35.1442821  0.126351E-04  0.277E-02    3.58       1.0  T
   4    -35.1442961 -0.140404E-04  0.183E-03    3.58      11.7  T
   5    -35.1442961 -0.675278E-08  0.959E-04    3.58      22.2  T
   6    -35.1442961 -0.270489E-08  0.359E-04    3.58      59.5  T
     SCC iter.                  ...        0 min,  0.005 sec
     gradient                   ...        0 min,  0.002 sec
 * total energy  :   -34.6143667 Eh     change       -0.4311077E-04 Eh
   gradient norm :     0.0022902 Eh/α   predicted    -0.1889483E-04 ( -56.17%)
   displ. norm   :     0.2357457 α      lambda       -0.4119181E-04
   maximum displ.:     0.2107864 α      in ANC's #1, #4, #6, ...

........................................................................
.............................. CYCLE   40 ..............................
........................................................................

 iter      E             dE          RMSdq      gap      omega  full diag
   1    -35.1441995 -0.351442E+02  0.121E-01    3.56       0.0  T
   2    -35.1442001 -0.579286E-06  0.711E-02    3.56       1.0  T
   3    -35.1441903  0.984980E-05  0.245E-02    3.56       1.0  T
   4    -35.1442012 -0.109415E-04  0.166E-03    3.56      12.9  T
   5    -35.1442012 -0.907982E-08  0.893E-04    3.56      23.9  T
   6    -35.1442012 -0.760878E-09  0.322E-04    3.56      66.3  T
     SCC iter.                  ...        0 min,  0.005 sec
     gradient                   ...        0 min,  0.002 sec
 * total energy  :   -34.6143969 Eh     change       -0.3026588E-04 Eh
   gradient norm :     0.0028198 Eh/α   predicted    -0.2174504E-04 ( -28.15%)
   displ. norm   :     0.2898931 α      lambda       -0.3963857E-04
   maximum displ.:     0.2623686 α      in ANC's #1, #4, #6, ...

........................................................................
.............................. CYCLE   41 ..............................
........................................................................

 iter      E             dE          RMSdq      gap      omega  full diag
   1    -35.1437952 -0.351438E+02  0.149E-01    3.55       0.0  T
   2    -35.1437959 -0.696929E-06  0.874E-02    3.54       1.0  T
   3    -35.1437843  0.115878E-04  0.265E-02    3.55       1.0  T
   4    -35.1437972 -0.128768E-04  0.188E-03    3.54      11.4  T
   5    -35.1437972 -0.696675E-08  0.938E-04    3.54      22.7  T
   6    -35.1437972 -0.189063E-08  0.321E-04    3.54      66.3  T
     SCC iter.                  ...        0 min,  0.005 sec
     gradient                   ...        0 min,  0.002 sec
 * total energy  :   -34.6144237 Eh     change       -0.2675522E-04 Eh
   gradient norm :     0.0030372 Eh/α   predicted    -0.2148601E-04 ( -19.69%)
   displ. norm   :     0.1872585 α      lambda       -0.3001394E-04
   maximum displ.:     0.1698840 α      in ANC's #1, #6, #2, ...

........................................................................
.............................. CYCLE   42 ..............................
........................................................................

 iter      E             dE          RMSdq      gap      omega  full diag
   1    -35.1444359 -0.351444E+02  0.953E-02    3.54       0.0  T
   2    -35.1444362 -0.255407E-06  0.558E-02    3.54       1.0  T
   3    -35.1444353  0.865189E-06  0.772E-03    3.54       2.8  T
   4    -35.1444363 -0.104698E-05  0.120E-03    3.54      17.8  T
   5    -35.1444363 -0.437267E-08  0.661E-04    3.54      32.3  T
   6    -35.1444363 -0.252562E-08  0.186E-04    3.54     114.7  T
     SCC iter.                  ...        0 min,  0.005 sec
     gradient                   ...        0 min,  0.002 sec
 * total energy  :   -34.6144462 Eh     change       -0.2254978E-04 Eh
   gradient norm :     0.0015956 Eh/α   predicted    -0.1553405E-04 ( -31.11%)
   displ. norm   :     0.3370239 α      lambda       -0.2914122E-04
   maximum displ.:     0.3087552 α      in ANC's #1, #6, #3, ...
 * RMSD in coord.:     0.7691814 α      energy gain  -0.1017367E-02 Eh

generating ANC from exact Hessian ...
Using Lindh-Hessian (1995)
 Shifting diagonal of input Hessian by   8.811106979629672E-003
 Lowest  eigenvalues of input Hessian
    0.000000    0.000000    0.000000    0.000000    0.000000    0.000000
    0.010000    0.010148    0.011068    0.015806    0.018110    0.019888
    0.021836    0.022934    0.024832    0.029175    0.032886    0.035780
 Highest eigenvalues
    1.843145    1.910676    1.918975    2.030316    2.111392    2.398809
 

........................................................................
.............................. CYCLE   43 ..............................
........................................................................

 iter      E             dE          RMSdq      gap      omega  full diag
   1    -35.1448874 -0.351449E+02  0.172E-01    3.53       0.0  T
   2    -35.1448882 -0.809223E-06  0.101E-01    3.53       1.0  T
   3    -35.1448864  0.174303E-05  0.111E-02    3.53       1.9  T
   4    -35.1448886 -0.219821E-05  0.204E-03    3.53      10.4  T
   5    -35.1448887 -0.197333E-07  0.112E-03    3.53      19.0  T
   6    -35.1448887 -0.798978E-08  0.333E-04    3.53      64.1  T
   7    -35.1448887 -0.817089E-09  0.149E-04    3.53     143.2  T
     SCC iter.                  ...        0 min,  0.006 sec
     gradient                   ...        0 min,  0.002 sec
 * total energy  :   -34.6144694 Eh     change       -0.2311587E-04 Eh
   gradient norm :     0.0024237 Eh/α   predicted     0.0000000E+00 (-100.00%)
   displ. norm   :     0.0182943 α      lambda       -0.1410826E-04
   maximum displ.:     0.0094788 α      in ANC's #2, #4, #1, ...

........................................................................
.............................. CYCLE   44 ..............................
........................................................................

 iter      E             dE          RMSdq      gap      omega  full diag
   1    -35.1450880 -0.351451E+02  0.131E-02    3.53       0.0  T
   2    -35.1450880 -0.832657E-07  0.785E-03    3.53       2.7  T
   3    -35.1450880  0.430757E-07  0.190E-03    3.53      11.2  T
   4    -35.1450881 -0.576388E-07  0.495E-04    3.53      43.1  T
   5    -35.1450881 -0.234466E-08  0.250E-04    3.53      85.2  T
     SCC iter.                  ...        0 min,  0.004 sec
     gradient                   ...        0 min,  0.002 sec
 * total energy  :   -34.6144778 Eh     change       -0.8402320E-05 Eh
   gradient norm :     0.0007050 Eh/α   predicted    -0.7120023E-05 ( -15.26%)
   displ. norm   :     0.0335212 α      lambda       -0.6526207E-05
   maximum displ.:     0.0191129 α      in ANC's #2, #1, #4, ...

........................................................................
.............................. CYCLE   45 ..............................
........................................................................

 iter      E             dE          RMSdq      gap      omega  full diag
   1    -35.1452672 -0.351453E+02  0.183E-02    3.52       0.0  T
   2    -35.1452672 -0.899291E-07  0.109E-02    3.53       2.0  T
   3    -35.1452671  0.152966E-06  0.338E-03    3.53       6.3  T
   4    -35.1452673 -0.185473E-06  0.702E-04    3.53      30.4  T
   5    -35.1452673 -0.588550E-08  0.323E-04    3.53      66.0  T
     SCC iter.                  ...        0 min,  0.004 sec
     gradient                   ...        0 min,  0.002 sec
 * total energy  :   -34.6144823 Eh     change       -0.4532014E-05 Eh
   gradient norm :     0.0014511 Eh/α   predicted    -0.3298768E-05 ( -27.21%)
   displ. norm   :     0.0331615 α      lambda       -0.4702044E-05
   maximum displ.:     0.0196371 α      in ANC's #2, #1, #4, ...

........................................................................
.............................. CYCLE   46 ..............................
........................................................................

 iter      E             dE          RMSdq      gap      omega  full diag
   1    -35.1452023 -0.351452E+02  0.162E-02    3.53       0.0  T
   2    -35.1452024 -0.368590E-07  0.957E-03    3.53       2.2  T
   3    -35.1452023  0.992973E-07  0.244E-03    3.53       8.7  T
   4    -35.1452024 -0.118885E-06  0.476E-04    3.53      44.8  T
   5    -35.1452024 -0.163038E-08  0.270E-04    3.53      79.0  T
     SCC iter.                  ...        0 min,  0.004 sec
     gradient                   ...        0 min,  0.002 sec
 * total energy  :   -34.6144878 Eh     change       -0.5531421E-05 Eh
   gradient norm :     0.0010872 Eh/α   predicted    -0.2353527E-05 ( -57.45%)
   displ. norm   :     0.0747461 α      lambda       -0.8236862E-05
   maximum displ.:     0.0444670 α      in ANC's #2, #1, #4, ...

........................................................................
.............................. CYCLE   47 ..............................
........................................................................

 iter      E             dE          RMSdq      gap      omega  full diag
   1    -35.1449256 -0.351449E+02  0.347E-02    3.53       0.0  T
   2    -35.1449258 -0.181907E-06  0.204E-02    3.53       1.0  T
   3    -35.1449253  0.447542E-06  0.511E-03    3.52       4.2  T
   4    -35.1449258 -0.533108E-06  0.108E-03    3.52      19.7  T
   5    -35.1449259 -0.849075E-08  0.554E-04    3.52      38.5  T
   6    -35.1449259 -0.126095E-08  0.278E-04    3.52      76.6  T
     SCC iter.                  ...        0 min,  0.005 sec
     gradient                   ...        0 min,  0.002 sec
 * total energy  :   -34.6144960 Eh     change       -0.8136014E-05 Eh
   gradient norm :     0.0008097 Eh/α   predicted    -0.4138016E-05 ( -49.14%)
   displ. norm   :     0.0665177 α      lambda       -0.4288599E-05
   maximum displ.:     0.0385199 α      in ANC's #2, #1, #4, ...

........................................................................
.............................. CYCLE   48 ..............................
........................................................................

 iter      E             dE          RMSdq      gap      omega  full diag
   1    -35.1449162 -0.351449E+02  0.308E-02    3.52       0.0  T
   2    -35.1449163 -0.119434E-06  0.181E-02    3.52       1.2  T
   3    -35.1449162  0.176272E-06  0.340E-03    3.52       6.3  T
   4    -35.1449164 -0.215701E-06  0.956E-04    3.52      22.3  T
   5    -35.1449164 -0.962086E-08  0.433E-04    3.52      49.2  T
     SCC iter.                  ...        0 min,  0.004 sec
     gradient                   ...        0 min,  0.003 sec
 * total energy  :   -34.6145006 Eh     change       -0.4664589E-05 Eh
   gradient norm :     0.0006868 Eh/α   predicted    -0.2148972E-05 ( -53.93%)
   displ. norm   :     0.0756166 α      lambda       -0.4422433E-05
   maximum displ.:     0.0435498 α      in ANC's #2, #1, #5, ...

   *** GEOMETRY OPTIMIZATION CONVERGED AFTER 48 ITERATIONS ***

------------------------------------------------------------------------
 total energy gain   :        -0.0183193 Eh      -11.4955 kcal/mol
 total RMSD          :         0.9662966 a0        0.5113 Å
 total power (kW/mol):        -1.0020258 (step)  -97.3176 (real)
------------------------------------------------------------------------

 ANCopt (total)                0 d,  0 h,  0 min,  0.494 sec
 optimizer setup                ...        0 min,  0.000 sec (  0.024%)
 model hessian                  ...        0 min,  0.011 sec (  2.237%)
 ANC generation                 ...        0 min,  0.001 sec (  0.283%)
 coordinate transformation      ...        0 min,  0.000 sec (  0.074%)
 single point calculation       ...        0 min,  0.456 sec ( 92.254%)
 optimization log               ...        0 min,  0.010 sec (  1.943%)
 hessian update                 ...        0 min,  0.011 sec (  2.204%)
 rational function              ...        0 min,  0.003 sec (  0.629%)

================
 final structure:
================
22
 xtb: 6.7.1 (edcfbbe)
C            3.60171226450198       -0.10303990379666        1.07956267197509
C            2.59577027319245        0.11066835388839       -0.00587301920175
C            2.90619708675752        0.37035632738121       -1.27137098186550
C            1.17946947389336        0.04826483742966        0.44982899549333
O            0.84391150149958        0.07021121079250        1.60676070361628
O            0.32463144645394       -0.05278309175125       -0.58629047735145
C           -1.04768499442546       -0.05769899162015       -0.37117229396005
C           -1.79549316845641       -0.96889806361776       -1.10593762982924
C           -3.17114605951399       -0.98830651411410       -0.97170465407820
C           -3.79895194589134       -0.10643383614012       -0.10735738902004
C           -3.04709571613466        0.80238724816381        0.61674273549984
C           -1.66947634341607        0.83653914348644        0.48772051554204
H            3.35010804153892        0.51578592590210        1.93894201781758
H            4.60406494243540        0.13440766451440        0.73472649976496
H            3.57396098050529       -1.14125243802772        1.40992486221771
H            2.14854069791422        0.52737032026955       -2.01924308072386
H            3.93183189520548        0.43743343828248       -1.59398972399414
H           -1.28794730210694       -1.64972985439278       -1.77162986252011
H           -3.75316109528316       -1.69773787744489       -1.54029091794552
H           -4.87290119335415       -0.12749304539097        0.00051152413268
H           -3.53321863439838        1.49467588990606        1.28768530696223
H           -1.08312215091751        1.54527325628005        1.05055319746825
 
 Bond Distances (Angstroems)
 ---------------------------
C1-C2=1.4952         C1-H13=1.0885        C1-H14=1.0863        C1-H15=1.0899        C2-C1=1.4952         C2-C3=1.3286         
C2-C4=1.4891         C3-C2=1.3286         C3-H16=1.0761        C3-H17=1.0773        C4-C2=1.4891         C4-O5=1.2048         
C4-O6=1.3470         O5-C4=1.2048         O6-C4=1.3470         O6-C7=1.3891         C7-O6=1.3891         C7-C8=1.3890         
C7-C12=1.3871        C8-C7=1.3890         C8-C9=1.3823         C8-H18=1.0790        C9-C8=1.3823         C9-C10=1.3853        
C9-H19=1.0795        C10-C9=1.3853        C10-C11=1.3840       C10-H20=1.0796       C11-C10=1.3840       C11-C12=1.3841       
C11-H21=1.0797       C12-C7=1.3871        C12-C11=1.3841       C12-H22=1.0784       H13-C1=1.0885        H14-C1=1.0863        
H15-C1=1.0899        H16-C3=1.0761        H17-C3=1.0773        H18-C8=1.0790        H19-C9=1.0795        H20-C10=1.0796       
H21-C11=1.0797       H22-C12=1.0784       
 C  H  Rav=1.0814 sigma=0.0046  Rmin=1.0761  Rmax=1.0899    10
 C  C  Rav=1.4028 sigma=0.0510  Rmin=1.3286  Rmax=1.4952     9
 O  C  Rav=1.3136 sigma=0.0788  Rmin=1.2048  Rmax=1.3891     3
 
 selected bond angles (degree)
 --------------------
H13-C1-C2=109.66               H14-C1-C2=111.04               H14-C1-H13=109.86              H15-C1-C2=109.82               
H15-C1-H13=107.24              H15-C1-H14=109.14              C3-C2-C1=124.21                C4-C2-C1=114.31                
C4-C2-C3=121.46                H16-C3-C2=121.73               H17-C3-C2=121.32               H17-C3-H16=116.94              
O5-C4-C2=123.92                O6-C4-C2=111.80                O6-C4-O5=124.28                C7-O6-C4=120.54                
C8-C7-O6=116.89                C12-C7-O6=122.44               C12-C7-C8=120.61               C9-C8-C7=119.58                
H18-C8-C7=119.15               H18-C8-C9=121.28               C10-C9-C8=120.18               H19-C9-C8=119.65               
H19-C9-C10=120.18              C11-C10-C9=119.89              H20-C10-C9=120.05              H20-C10-C11=120.06             
 
 selected dihedral angles (degree)
 ---------------------------------
C3-C2-C1-H13=130.50           C3-C2-C1-H14=  8.91           C3-C2-C1-H15=248.10           C4-C2-C1-H13=312.17           
C4-C2-C1-H14=190.58           C4-C2-C1-H15= 69.77           H16-C3-C2-C1=180.63           H16-C3-C2-C4=358.84           
H17-C3-C2-C1=  0.36           H17-C3-C2-C4=178.57           O5-C4-C2-C1= 13.01            O5-C4-C2-C3=194.63            
O6-C4-C2-C1=193.81            O6-C4-C2-C3= 15.43            C7-O6-C4-C2=183.18            C7-O6-C4-O5=  3.98            
C8-C7-O6-C4=222.32            C12-C7-O6-C4= 45.14           C9-C8-C7-O6=182.34            C9-C8-C7-C12=359.59           
H18-C8-C7-O6=  2.38           H18-C8-C7-C12=179.62          C10-C9-C8-C7=359.85           C10-C9-C8-H18=179.81          
H19-C9-C8-C7=180.16           H19-C9-C8-H18=  0.12          C11-C10-C9-C8=  0.44          C11-C10-C9-H19=180.13         
H20-C10-C9-C8=180.38          H20-C10-C9-H19=  0.07         
           -------------------------------------------------
          |                Final Singlepoint                |
           -------------------------------------------------

          ...................................................
          :                      SETUP                      :
          :.................................................:
          :  # basis functions                  58          :
          :  # atomic orbitals                  58          :
          :  # shells                           34          :
          :  # electrons                        62          :
          :  max. iterations                   250          :
          :  Hamiltonian                  GFN2-xTB          :
          :  restarted?                      false          :
          :  GBSA solvation                  false          :
          :  PC potential                    false          :
          :  electronic temp.          300.0000000     K    :
          :  accuracy                    1.0000000          :
          :  -> integral cutoff          0.2500000E+02      :
          :  -> integral neglect         0.1000000E-07      :
          :  -> SCF convergence          0.1000000E-05 Eh   :
          :  -> wf. convergence          0.1000000E-03 e    :
          :  Broyden damping             0.4000000          :
          :  net charge                          0          :
          :  unpaired electrons                  0          :
          ...................................................

 iter      E             dE          RMSdq      gap      omega  full diag
   1    -35.1449164 -0.351449E+02  0.234E-04    3.52       0.0  T
   2    -35.1449164 -0.195001E-09  0.157E-04    3.52     135.4  T
   3    -35.1449164 -0.126470E-09  0.103E-04    3.52     206.4  T

   *** convergence criteria satisfied after 3 iterations ***

         #    Occupation            Energy/Eh            Energy/eV
      -------------------------------------------------------------
         1        2.0000           -0.7438615             -20.2415
       ...           ...                  ...                  ...
        25        2.0000           -0.4580153             -12.4632
        26        2.0000           -0.4450907             -12.1115
        27        2.0000           -0.4302492             -11.7077
        28        2.0000           -0.4199826             -11.4283
        29        2.0000           -0.4153626             -11.3026
        30        2.0000           -0.4098491             -11.1526
        31        2.0000           -0.4026326             -10.9562 (HOMO)
        32                         -0.2731579              -7.4330 (LUMO)
        33                         -0.2325124              -6.3270
        34                         -0.2271115              -6.1800
        35                         -0.1657085              -4.5092
        36                         -0.0994484              -2.7061
       ...                                ...                  ...
        58                          0.7088065              19.2876
      -------------------------------------------------------------
                  HL-Gap            0.1294747 Eh            3.5232 eV
             Fermi-level           -0.3378952 Eh           -9.1946 eV

 SCC (total)                   0 d,  0 h,  0 min,  0.005 sec
 SCC setup                      ...        0 min,  0.000 sec (  1.294%)
 Dispersion                     ...        0 min,  0.000 sec (  1.916%)
 classical contributions        ...        0 min,  0.000 sec (  0.676%)
 integral evaluation            ...        0 min,  0.001 sec ( 10.875%)
 iterations                     ...        0 min,  0.003 sec ( 48.278%)
 molecular gradient             ...        0 min,  0.002 sec ( 34.891%)
 printout                       ...        0 min,  0.000 sec (  1.688%)

         :::::::::::::::::::::::::::::::::::::::::::::::::::::
         ::                     SUMMARY                     ::
         :::::::::::::::::::::::::::::::::::::::::::::::::::::
         :: total energy             -34.614500620711 Eh    ::
         :: gradient norm              0.000686992599 Eh/a0 ::
         :: HOMO-LUMO gap              3.523185940908 eV    ::
         ::.................................................::
         :: SCC energy               -35.144960609616 Eh    ::
         :: -> isotropic ES            0.044684001666 Eh    ::
         :: -> anisotropic ES          0.001286925307 Eh    ::
         :: -> anisotropic XC          0.014609024784 Eh    ::
         :: -> dispersion             -0.018150911022 Eh    ::
         :: repulsion energy           0.530459988905 Eh    ::
         :: add. restraining           0.000000000000 Eh    ::
         :: total charge               0.000000000000 e     ::
         :::::::::::::::::::::::::::::::::::::::::::::::::::::

           -------------------------------------------------
          |                Property Printout                |
           -------------------------------------------------

    * Orbital Energies and Occupations

         #    Occupation            Energy/Eh            Energy/eV
      -------------------------------------------------------------
         1        2.0000           -0.7438615             -20.2415
       ...           ...                  ...                  ...
        19        2.0000           -0.4945983             -13.4587
        20        2.0000           -0.4897272             -13.3262
        21        2.0000           -0.4856474             -13.2151
        22        2.0000           -0.4818337             -13.1114
        23        2.0000           -0.4689883             -12.7618
        24        2.0000           -0.4669858             -12.7073
        25        2.0000           -0.4580153             -12.4632
        26        2.0000           -0.4450907             -12.1115
        27        2.0000           -0.4302492             -11.7077
        28        2.0000           -0.4199826             -11.4283
        29        2.0000           -0.4153626             -11.3026
        30        2.0000           -0.4098491             -11.1526
        31        2.0000           -0.4026326             -10.9562 (HOMO)
        32                         -0.2731579              -7.4330 (LUMO)
        33                         -0.2325124              -6.3270
        34                         -0.2271115              -6.1800
        35                         -0.1657085              -4.5092
        36                         -0.0994484              -2.7061
        37                          0.0162271               0.4416
        38                          0.1062681               2.8917
        39                          0.1136719               3.0932
        40                          0.1209428               3.2910
        41                          0.1445339               3.9330
        42                          0.1659967               4.5170
       ...                                ...                  ...
        58                          0.7088065              19.2876
      -------------------------------------------------------------
                  HL-Gap            0.1294747 Eh            3.5232 eV
             Fermi-level           -0.3378952 Eh           -9.1946 eV

     #   Z          covCN         q      C6AA      α(0)
     1   6 C        3.759    -0.111    22.671     6.788
     2   6 C        2.938    -0.008    28.208     8.710
     3   6 C        2.844    -0.081    30.013     8.978
     4   6 C        2.720     0.354    20.991     7.500
     5   8 O        0.856    -0.404    21.766     6.255
     6   8 O        1.708    -0.258    18.274     5.772
     7   6 C        2.871     0.146    24.822     8.167
     8   6 C        2.918    -0.046    29.133     8.851
     9   6 C        2.921    -0.028    28.699     8.785
    10   6 C        2.919    -0.033    28.819     8.803
    11   6 C        2.923    -0.027    28.677     8.782
    12   6 C        2.917    -0.041    29.012     8.833
    13   1 H        0.925     0.070     2.085     2.258
    14   1 H        0.925     0.051     2.304     2.373
    15   1 H        0.925     0.061     2.186     2.312
    16   1 H        0.926     0.061     2.182     2.310
    17   1 H        0.926     0.056     2.250     2.346
    18   1 H        0.926     0.051     2.312     2.378
    19   1 H        0.926     0.043     2.415     2.430
    20   1 H        0.926     0.041     2.437     2.441
    21   1 H        0.926     0.044     2.395     2.420
    22   1 H        0.926     0.058     2.224     2.332

 Mol. C6AA /au·bohr⁶  :       5754.738588
 Mol. C8AA /au·bohr⁸  :     138003.870086
 Mol. α(0) /au        :        119.824672


Wiberg/Mayer (AO) data.
largest (>0.10) Wiberg bond orders for each atom

 ---------------------------------------------------------------------------
     #   Z sym  total        # sym  WBO       # sym  WBO       # sym  WBO
 ---------------------------------------------------------------------------
     1   6 C    3.993 --     2 C    1.029    14 H    0.984    13 H    0.968
                            15 H    0.965
     2   6 C    3.986 --     3 C    1.878     1 C    1.029     4 C    0.993
     3   6 C    3.987 --     2 C    1.878    17 H    0.974    16 H    0.973
     4   6 C    3.915 --     5 O    1.741     6 O    1.091     2 C    0.993
     5   8 O    2.047 --     4 C    1.741     6 O    0.162
     6   8 O    2.347 --     4 C    1.091     7 C    0.975     5 O    0.162
     7   6 C    3.918 --    12 C    1.396     8 C    1.385     6 O    0.975
                            10 C    0.102
     8   6 C    3.989 --     9 C    1.450     7 C    1.385    18 H    0.968
                            11 C    0.111
     9   6 C    3.991 --     8 C    1.450    10 C    1.434    19 H    0.970
                            12 C    0.110
    10   6 C    3.991 --    11 C    1.442     9 C    1.434    20 H    0.971
                             7 C    0.102
    11   6 C    3.991 --    10 C    1.442    12 C    1.440    21 H    0.970
                             8 C    0.111
    12   6 C    3.990 --    11 C    1.440     7 C    1.396    22 H    0.967
                             9 C    0.110
    13   1 H    0.995 --     1 C    0.968
    14   1 H    0.997 --     1 C    0.984
    15   1 H    0.996 --     1 C    0.965
    16   1 H    0.996 --     3 C    0.973
    17   1 H    0.997 --     3 C    0.974
    18   1 H    0.997 --     8 C    0.968
    19   1 H    0.998 --     9 C    0.970
    20   1 H    0.998 --    10 C    0.971
    21   1 H    0.998 --    11 C    0.970
    22   1 H    0.997 --    12 C    0.967
 ---------------------------------------------------------------------------

Topologies differ in total number of bonds
Writing topology from bond orders to xtbtopo.mol

molecular dipole:
                 x           y           z       tot (Debye)
 q only:        0.055       0.035      -0.674
   full:        0.118       0.035      -0.763       1.965
molecular quadrupole (traceless):
                xx          xy          yy          xz          yz          zz
 q only:       10.083       0.254      -3.177      -0.414       1.136      -6.906
  q+dip:       10.820       0.512      -2.787      -1.696       3.425      -8.033
   full:        9.441       0.222      -1.246      -1.101       1.679      -8.195

           -------------------------------------------------
          |                Geometry Summary                 |
           -------------------------------------------------

      molecular mass/u    :      162.1855763
   center of mass at/Å    :       -0.1800863      -0.0021991       0.0087092
  moments of inertia/u·Å² :        0.1852793E+03   0.1020060E+04   0.1126867E+04
rotational constants/cm⁻¹ :        0.9098496E-01   0.1652612E-01   0.1495973E-01

 * 20 selected distances

     #   Z          #   Z                                           value/Å
     2   6 C        3   6 C                                       1.3286414
     4   6 C        5   8 O                                       1.2048120
     4   6 C        6   8 O                                       1.3470348
     6   8 O        7   6 C                                       1.3890834 (max)
     7   6 C        8   6 C                                       1.3890217
     8   6 C        9   6 C                                       1.3823228
     9   6 C       10   6 C                                       1.3852567
    10   6 C       11   6 C                                       1.3840393
     7   6 C       12   6 C                                       1.3870773
    11   6 C       12   6 C                                       1.3840696
     1   6 C       13   1 H                                       1.0884775
     1   6 C       14   1 H                                       1.0862801
     1   6 C       15   1 H                                       1.0898600
     3   6 C       16   1 H                                       1.0761085 (min)
     3   6 C       17   1 H                                       1.0772693
     8   6 C       18   1 H                                       1.0790186
     9   6 C       19   1 H                                       1.0795022
    10   6 C       20   1 H                                       1.0795584
    11   6 C       21   1 H                                       1.0796959
    12   6 C       22   1 H                                       1.0783766

 * 3 distinct bonds (by element types)

   Z      Z             #   av. dist./Å        max./Å        min./Å
   1 H    6 C          10     1.0814147     1.0898600     1.0761085
   6 C    6 C           7     1.3772041     1.3890217     1.3286414
   6 C    8 O           3     1.3136434     1.3890834     1.2048120


optimized geometry written to: xtbopt.xyz


           -------------------------------------------------
          | TOTAL ENERGY              -34.614500620711 Eh   |
          | GRADIENT NORM               0.000686992599 Eh/α |
          | HOMO-LUMO GAP               3.523185940908 eV   |
           -------------------------------------------------

------------------------------------------------------------------------
 * finished run on 2025/12/01 at 14:22:53.263     
------------------------------------------------------------------------
 total:
 * wall-time:     0 d,  0 h,  0 min,  0.530 sec
 *  cpu-time:     0 d,  0 h,  0 min, 12.045 sec
 * ratio c/w:    22.735 speedup
 SCF:
 * wall-time:     0 d,  0 h,  0 min,  0.021 sec
 *  cpu-time:     0 d,  0 h,  0 min,  0.484 sec
 * ratio c/w:    22.633 speedup
 ANC optimizer:
 * wall-time:     0 d,  0 h,  0 min,  0.500 sec
 *  cpu-time:     0 d,  0 h,  0 min, 11.412 sec
 * ratio c/w:    22.806 speedup

normal termination of xtb
