      -----------------------------------------------------------      
     |                   =====================                   |     
     |                           x T B                           |     
     |                   =====================                   |     
     |                         S. Grimme                         |     
     |          Mulliken Center for Theoretical Chemistry        |     
     |                    University of Bonn                     |     
      -----------------------------------------------------------      

   * xtb version 6.7.1 (edcfbbe) compiled by 'albert@albert-system' on 2024-07-22

   xtb is free software: you can redistribute it and/or modify it under
   the terms of the GNU Lesser General Public License as published by
   the Free Software Foundation, either version 3 of the License, or
   (at your option) any later version.
   
   xtb is distributed in the hope that it will be useful,
   but WITHOUT ANY WARRANTY; without even the implied warranty of
   MERCHANTABILITY or FITNESS FOR A PARTICULAR PURPOSE.  See the
   GNU Lesser General Public License for more details.
   
   Cite this work as:
   * C. Bannwarth, E. Caldeweyher, S. Ehlert, A. Hansen, P. Pracht,
     J. Seibert, S. Spicher, S. Grimme, WIREs Comput. Mol. Sci., 2020, 11,
     e01493. DOI: 10.1002/wcms.1493
   
   for GFN2-xTB:
   * C. Bannwarth, S. Ehlert and S. Grimme., J. Chem. Theory Comput., 2019,
     15, 1652-1671. DOI: 10.1021/acs.jctc.8b01176
   for GFN1-xTB:
   * S. Grimme, C. Bannwarth, P. Shushkov, J. Chem. Theory Comput., 2017,
     13, 1989-2009. DOI: 10.1021/acs.jctc.7b00118
   for GFN0-xTB:
   * P. Pracht, E. Caldeweyher, S. Ehlert, S. Grimme, ChemRxiv, 2019, preprint.
     DOI: 10.26434/chemrxiv.8326202.v1
   for GFN-FF:
   * S. Spicher and S. Grimme, Angew. Chem. Int. Ed., 2020, 59, 15665-15673.
     DOI: 10.1002/anie.202004239
   
   for ALPB and GBSA implicit solvation:
   * S. Ehlert, M. Stahn, S. Spicher, S. Grimme, J. Chem. Theory Comput.,
     2021, 17, 4250-4261. DOI: 10.1021/acs.jctc.1c00471
   
   for ddCOSMO and CPCM-X implicit solvation:
   * M. Stahn, S. Ehlert, S. Grimme, J. Phys. Chem. A,
     2023, XX, XXXX-XXXX. DOI: 10.1021/acs.jpca.3c04382
   
   for DFT-D4:
   * E. Caldeweyher, C. Bannwarth and S. Grimme, J. Chem. Phys., 2017,
     147, 034112. DOI: 10.1063/1.4993215
   * E. Caldeweyher, S. Ehlert, A. Hansen, H. Neugebauer, S. Spicher,
     C. Bannwarth and S. Grimme, J. Chem. Phys., 2019, 150, 154122.
     DOI: 10.1063/1.5090222
   * E. Caldeweyher, J.-M. Mewes, S. Ehlert and S. Grimme, Phys. Chem. Chem. Phys.
     2020, 22, 8499-8512. DOI: 10.1039/D0CP00502A
   
   for sTDA-xTB:
   * S. Grimme and C. Bannwarth, J. Chem. Phys., 2016, 145, 054103.
     DOI: 10.1063/1.4959605
   
   in the mass-spec context:
   * V. Asgeirsson, C. Bauer and S. Grimme, Chem. Sci., 2017, 8, 4879.
     DOI: 10.1039/c7sc00601b
   * J. Koopman and S. Grimme, ACS Omega 2019, 4, 12, 15120-15133.
     DOI: 10.1021/acsomega.9b02011
   
   for metadynamics refer to:
   * S. Grimme, J. Chem. Theory Comput., 2019, 155, 2847-2862
     DOI: 10.1021/acs.jctc.9b00143
   
   for SPH calculations refer to:
   * S. Spicher and S. Grimme, J. Chem. Theory Comput., 2021, 17, 1701-1714
     DOI: 10.1021/acs.jctc.0c01306
   
   for ONIOM refer to:
   * C. Plett, A. Katbashev, S. Ehlert, S. Grimme, M. Bursch,
     Phys. Chem. Chem. Phys., 2023, 25, 17860-17868. DOI: 10.1039/D3CP02178E
   
   for DIPRO refer to:
   * J. Kohn, N. Gildemeister, S. Grimme, D. Fazzi, A. Hansen,
     J. Chem. Phys., 2023, just accepted.
   
   for PTB refer to:
   * S. Grimme, M. Mueller, A. Hansen, J. Chem. Phys., 2023, 158, 124111.
     DOI: 10.1063/5.0137838
   
   with help from (in alphabetical order)
   P. Atkinson, C. Bannwarth, F. Bohle, G. Brandenburg, E. Caldeweyher
   M. Checinski, S. Dohm, S. Ehlert, S. Ehrlich, I. Gerasimov, C. Hölzer
   A. Katbashev, J. Kohn, J. Koopman, C. Lavigne, S. Lehtola, F. März, M. Müller,
   F. Musil, H. Neugebauer, J. Pisarek, C. Plett, P. Pracht, F. Pultar,
   J. Seibert, P. Shushkov, S. Spicher, M. Stahn, M. Steiner, T. Strunk,
   J. Stückrath, T. Rose, and J. Unsleber
   
 * started run on 2025/12/01 at 14:22:51.607     
   ID    Z sym.   atoms
    1    6 C      1-4, 7-12
    2    8 O      5, 6
    3    1 H      13-22

           -------------------------------------------------
          |                Calculation Setup                |
           -------------------------------------------------

          program call               : xtb pipeline_data/3_conformer_xyz/acrylates/rdkit/QIWKUEJZZCOPFV-UHFFFAOYSA-N_conf249.xyz --opt --gfn 2-xTB --iterations 250
          coordinate file            : pipeline_data/3_conformer_xyz/acrylates/rdkit/QIWKUEJZZCOPFV-UHFFFAOYSA-N_conf249.xyz
          omp threads                :                    24

########################################################################
[WARNING] Please study the warnings concerning your input carefully
-1- readin_getIntValue: could not parse '2-xTB'
########################################################################

           -------------------------------------------------
          |                 G F N 2 - x T B                 |
           -------------------------------------------------

        Reference                      10.1021/acs.jctc.8b01176
      * Hamiltonian:
        H0-scaling (s, p, d)           1.850000    2.230000    2.230000
        zeta-weighting                 0.500000
      * Dispersion:
        s8                             2.700000
        a1                             0.520000
        a2                             5.000000
        s9                             5.000000
      * Repulsion:
        kExp                           1.500000    1.000000
        rExp                           1.000000
      * Coulomb:
        alpha                          2.000000
        third order                    shell-resolved
        anisotropic                    true
        a3                             3.000000
        a5                             4.000000
        cn-shift                       1.200000
        cn-exp                         4.000000
        max-rad                        5.000000


          ...................................................
          :                      SETUP                      :
          :.................................................:
          :  # basis functions                  58          :
          :  # atomic orbitals                  58          :
          :  # shells                           34          :
          :  # electrons                        62          :
          :  max. iterations                   250          :
          :  Hamiltonian                  GFN2-xTB          :
          :  restarted?                      false          :
          :  GBSA solvation                  false          :
          :  PC potential                    false          :
          :  electronic temp.          300.0000000     K    :
          :  accuracy                    1.0000000          :
          :  -> integral cutoff          0.2500000E+02      :
          :  -> integral neglect         0.1000000E-07      :
          :  -> SCF convergence          0.1000000E-05 Eh   :
          :  -> wf. convergence          0.1000000E-03 e    :
          :  Broyden damping             0.4000000          :
          :  net charge                          0          :
          :  unpaired electrons                  0          :
          ...................................................

 iter      E             dE          RMSdq      gap      omega  full diag
   1    -35.0380736 -0.350381E+02  0.480E+00    3.60       0.0  T
   2    -35.0923796 -0.543061E-01  0.266E+00    3.01       1.0  T
   3    -35.0899655  0.241412E-02  0.144E+00    3.47       1.0  T
   4    -35.1018599 -0.118944E-01  0.264E-01    3.25       1.0  T
   5    -35.1023421 -0.482167E-03  0.103E-01    3.25       1.0  T
   6    -35.1024623 -0.120172E-03  0.468E-02    3.26       1.0  T
   7    -35.1024681 -0.583339E-05  0.206E-02    3.26       1.0  T
   8    -35.1024716 -0.347289E-05  0.104E-02    3.26       2.1  T
   9    -35.1024725 -0.957596E-06  0.250E-03    3.26       8.5  T
  10    -35.1024725 -0.204006E-07  0.917E-04    3.26      23.3  T
  11    -35.1024725 -0.303616E-08  0.526E-04    3.26      40.5  T

   *** convergence criteria satisfied after 11 iterations ***

         #    Occupation            Energy/Eh            Energy/eV
      -------------------------------------------------------------
         1        2.0000           -0.7318670             -19.9151
       ...           ...                  ...                  ...
        25        2.0000           -0.4552505             -12.3880
        26        2.0000           -0.4415101             -12.0141
        27        2.0000           -0.4268649             -11.6156
        28        2.0000           -0.4232064             -11.5160
        29        2.0000           -0.4174171             -11.3585
        30        2.0000           -0.4139677             -11.2646
        31        2.0000           -0.4045312             -11.0079 (HOMO)
        32                         -0.2847197              -7.7476 (LUMO)
        33                         -0.2359694              -6.4211
        34                         -0.2330421              -6.3414
        35                         -0.1712221              -4.6592
        36                         -0.1078515              -2.9348
       ...                                ...                  ...
        58                          0.6471744              17.6105
      -------------------------------------------------------------
                  HL-Gap            0.1198115 Eh            3.2602 eV
             Fermi-level           -0.3446255 Eh           -9.3777 eV

 SCC (total)                   0 d,  0 h,  0 min,  0.020 sec
 SCC setup                      ...        0 min,  0.000 sec (  1.170%)
 Dispersion                     ...        0 min,  0.000 sec (  1.638%)
 classical contributions        ...        0 min,  0.000 sec (  0.299%)
 integral evaluation            ...        0 min,  0.001 sec (  4.226%)
 iterations                     ...        0 min,  0.016 sec ( 80.760%)
 molecular gradient             ...        0 min,  0.002 sec ( 11.139%)
 printout                       ...        0 min,  0.000 sec (  0.647%)

         :::::::::::::::::::::::::::::::::::::::::::::::::::::
         ::                     SUMMARY                     ::
         :::::::::::::::::::::::::::::::::::::::::::::::::::::
         :: total energy             -34.600047464501 Eh    ::
         :: gradient norm              0.123191066435 Eh/a0 ::
         :: HOMO-LUMO gap              3.260238082377 eV    ::
         ::.................................................::
         :: SCC energy               -35.102508023700 Eh    ::
         :: -> isotropic ES            0.049482230664 Eh    ::
         :: -> anisotropic ES          0.000152756791 Eh    ::
         :: -> anisotropic XC          0.015361474643 Eh    ::
         :: -> dispersion             -0.017919127375 Eh    ::
         :: repulsion energy           0.502460559199 Eh    ::
         :: add. restraining           0.000000000000 Eh    ::
         :: total charge               0.000000000000 e     ::
         :::::::::::::::::::::::::::::::::::::::::::::::::::::

      ----------------------------------------------------------- 
     |                   =====================                   |
     |                        A N C O P T                        |
     |                   =====================                   |
     |               Approximate Normal Coordinate               |
     |                Rational Function Optimizer                |
      ----------------------------------------------------------- 
      ----------------------------------------------------------- 
     |                   =====================                   |
     |                        A N C O P T                        |
     |                   =====================                   |
     |               Approximate Normal Coordinate               |
     |                Rational Function Optimizer                |
      ----------------------------------------------------------- 

          ...................................................
          :                      SETUP                      :
          :.................................................:
          :   optimization level            normal          :
          :   max. optcycles                   200          :
          :   ANC micro-cycles                  20          :
          :   degrees of freedom                60          :
          :.................................................:
          :   RF solver                   davidson          :
          :   write xtbopt.log                true          :
          :   linear?                        false          :
          :   energy convergence         0.5000000E-05 Eh   :
          :   grad. convergence          0.1000000E-02 Eh/α :
          :   maxmium RF displ.          1.0000000          :
          :   Hlow (freq-cutoff)         0.1000000E-01      :
          :   Hmax (freq-cutoff)         5.0000000          :
          :   S6 in model hess.         20.0000000          :
          ...................................................

generating ANC from exact Hessian ...
Using Lindh-Hessian (1995)
 Shifting diagonal of input Hessian by   8.999762977945722E-003
 Lowest  eigenvalues of input Hessian
    0.000000    0.000000    0.000000    0.000000    0.000000    0.000000
    0.010000    0.010286    0.010804    0.016336    0.017605    0.018667
    0.021671    0.021822    0.023878    0.029012    0.032435    0.033848
 Highest eigenvalues
    1.799124    1.876024    1.881924    1.997298    2.062049    2.125374
 

........................................................................
.............................. CYCLE    1 ..............................
........................................................................

 iter      E             dE          RMSdq      gap      omega  full diag
   1    -35.1024725 -0.351025E+02  0.205E-04    3.26       0.0  T
   2    -35.1024725 -0.277055E-09  0.139E-04    3.26     153.1  T
   3    -35.1024725 -0.182943E-09  0.892E-05    3.26     239.1  T
     SCC iter.                  ...        0 min,  0.004 sec
     gradient                   ...        0 min,  0.002 sec
 * total energy  :   -34.6000475 Eh     change       -0.1724956E-08 Eh
   gradient norm :     0.1231976 Eh/α   predicted     0.0000000E+00 (-100.00%)
   displ. norm   :     0.2770377 α      lambda       -0.1472914E-01
   maximum displ.:     0.1653595 α      in ANC's #8, #17, #21, ...

........................................................................
.............................. CYCLE    2 ..............................
........................................................................

 iter      E             dE          RMSdq      gap      omega  full diag
   1    -35.1286935 -0.351287E+02  0.293E-01    3.47       0.0  T
   2    -35.1289770 -0.283460E-03  0.185E-01    3.48       1.0  T
   3    -35.1289510  0.259599E-04  0.850E-02    3.48       1.0  T
   4    -35.1289929 -0.418653E-04  0.342E-02    3.48       1.0  T
   5    -35.1290115 -0.186779E-04  0.919E-03    3.48       2.3  T
   6    -35.1290126 -0.107450E-05  0.395E-03    3.48       5.4  T
   7    -35.1290127 -0.978996E-07  0.167E-03    3.48      12.7  T
   8    -35.1290127 -0.191173E-07  0.692E-04    3.48      30.8  T
   9    -35.1290127 -0.165576E-08  0.318E-04    3.48      67.1  T
     SCC iter.                  ...        0 min,  0.011 sec
     gradient                   ...        0 min,  0.003 sec
 * total energy  :   -34.6101884 Eh     change       -0.1014094E-01 Eh
   gradient norm :     0.0478943 Eh/α   predicted    -0.7935563E-02 ( -21.75%)
   displ. norm   :     0.2771262 α      lambda       -0.4332112E-02
   maximum displ.:     0.2238446 α      in ANC's #8, #13, #10, ...

........................................................................
.............................. CYCLE    3 ..............................
........................................................................

 iter      E             dE          RMSdq      gap      omega  full diag
   1    -35.1432345 -0.351432E+02  0.206E-01    3.63       0.0  T
   2    -35.1433458 -0.111336E-03  0.126E-01    3.64       1.0  T
   3    -35.1433331  0.127161E-04  0.497E-02    3.64       1.0  T
   4    -35.1433471 -0.139700E-04  0.224E-02    3.64       1.0  T
   5    -35.1433553 -0.824098E-05  0.556E-03    3.64       3.8  T
   6    -35.1433557 -0.343143E-06  0.219E-03    3.64       9.7  T
   7    -35.1433557 -0.363549E-07  0.848E-04    3.64      25.1  T
   8    -35.1433557 -0.680154E-08  0.313E-04    3.64      68.1  T
     SCC iter.                  ...        0 min,  0.010 sec
     gradient                   ...        0 min,  0.002 sec
 * total energy  :   -34.6125731 Eh     change       -0.2384682E-02 Eh
   gradient norm :     0.0154922 Eh/α   predicted    -0.2333993E-02 (  -2.13%)
   displ. norm   :     0.1292143 α      lambda       -0.4973354E-03
   maximum displ.:     0.1157985 α      in ANC's #8, #4, #14, ...

........................................................................
.............................. CYCLE    4 ..............................
........................................................................

 iter      E             dE          RMSdq      gap      omega  full diag
   1    -35.1433244 -0.351433E+02  0.657E-02    3.65       0.0  T
   2    -35.1433307 -0.630807E-05  0.399E-02    3.65       1.0  T
   3    -35.1433284  0.225701E-05  0.149E-02    3.65       1.4  T
   4    -35.1433304 -0.194378E-05  0.713E-03    3.65       3.0  T
   5    -35.1433313 -0.902247E-06  0.120E-03    3.65      17.7  T
   6    -35.1433313 -0.139989E-07  0.683E-04    3.65      31.2  T
   7    -35.1433313 -0.225707E-08  0.271E-04    3.65      78.6  T
     SCC iter.                  ...        0 min,  0.008 sec
     gradient                   ...        0 min,  0.002 sec
 * total energy  :   -34.6128905 Eh     change       -0.3173911E-03 Eh
   gradient norm :     0.0059495 Eh/α   predicted    -0.2528447E-03 ( -20.34%)
   displ. norm   :     0.0901111 α      lambda       -0.1376111E-03
   maximum displ.:     0.0750259 α      in ANC's #8, #4, #6, ...

........................................................................
.............................. CYCLE    5 ..............................
........................................................................

 iter      E             dE          RMSdq      gap      omega  full diag
   1    -35.1432378 -0.351432E+02  0.388E-02    3.66       0.0  T
   2    -35.1432403 -0.249485E-05  0.232E-02    3.66       1.0  T
   3    -35.1432402  0.114127E-06  0.633E-03    3.66       3.4  T
   4    -35.1432403 -0.129493E-06  0.192E-03    3.66      11.1  T
   5    -35.1432404 -0.853028E-07  0.490E-04    3.66      43.5  T
   6    -35.1432404 -0.166884E-08  0.276E-04    3.66      77.2  T
     SCC iter.                  ...        0 min,  0.022 sec
     gradient                   ...        0 min,  0.004 sec
 * total energy  :   -34.6129696 Eh     change       -0.7913373E-04 Eh
   gradient norm :     0.0027205 Eh/α   predicted    -0.6936526E-04 ( -12.34%)
   displ. norm   :     0.0484382 α      lambda       -0.3963650E-04
   maximum displ.:     0.0296289 α      in ANC's #4, #8, #6, ...

........................................................................
.............................. CYCLE    6 ..............................
........................................................................

 iter      E             dE          RMSdq      gap      omega  full diag
   1    -35.1433675 -0.351434E+02  0.246E-02    3.66       0.0  T
   2    -35.1433679 -0.447202E-06  0.145E-02    3.66       1.5  T
   3    -35.1433674  0.541697E-06  0.653E-03    3.66       3.3  T
   4    -35.1433680 -0.602029E-06  0.186E-03    3.66      11.5  T
   5    -35.1433680 -0.557173E-07  0.426E-04    3.66      50.1  T
   6    -35.1433681 -0.174219E-08  0.211E-04    3.66     101.0  T
     SCC iter.                  ...        0 min,  0.015 sec
     gradient                   ...        0 min,  0.005 sec
 * total energy  :   -34.6129943 Eh     change       -0.2470498E-04 Eh
   gradient norm :     0.0018962 Eh/α   predicted    -0.1986650E-04 ( -19.59%)
   displ. norm   :     0.0792620 α      lambda       -0.2540756E-04
   maximum displ.:     0.0597867 α      in ANC's #4, #6, #8, ...

........................................................................
.............................. CYCLE    7 ..............................
........................................................................

 iter      E             dE          RMSdq      gap      omega  full diag
   1    -35.1435175 -0.351435E+02  0.331E-02    3.67       0.0  T
   2    -35.1435178 -0.313916E-06  0.197E-02    3.67       1.1  T
   3    -35.1435163  0.146694E-05  0.961E-03    3.67       2.2  T
   4    -35.1435180 -0.166717E-05  0.142E-03    3.67      15.0  T
   5    -35.1435180 -0.220462E-07  0.544E-04    3.67      39.2  T
   6    -35.1435180 -0.871275E-09  0.290E-04    3.67      73.4  T
     SCC iter.                  ...        0 min,  0.014 sec
     gradient                   ...        0 min,  0.006 sec
 * total energy  :   -34.6130175 Eh     change       -0.2320869E-04 Eh
   gradient norm :     0.0021443 Eh/α   predicted    -0.1275854E-04 ( -45.03%)
   displ. norm   :     0.0615860 α      lambda       -0.2371963E-04
   maximum displ.:     0.0490699 α      in ANC's #4, #6, #2, ...

........................................................................
.............................. CYCLE    8 ..............................
........................................................................

 iter      E             dE          RMSdq      gap      omega  full diag
   1    -35.1435664 -0.351436E+02  0.227E-02    3.67       0.0  T
   2    -35.1435664 -0.707543E-07  0.135E-02    3.67       1.6  T
   3    -35.1435660  0.435355E-06  0.513E-03    3.67       4.2  T
   4    -35.1435665 -0.487904E-06  0.642E-04    3.67      33.2  T
   5    -35.1435665 -0.409476E-08  0.331E-04    3.67      64.4  T
     SCC iter.                  ...        0 min,  0.007 sec
     gradient                   ...        0 min,  0.002 sec
 * total energy  :   -34.6130382 Eh     change       -0.2067277E-04 Eh
   gradient norm :     0.0023363 Eh/α   predicted    -0.1190852E-04 ( -42.40%)
   displ. norm   :     0.1591890 α      lambda       -0.5944350E-04
   maximum displ.:     0.1256285 α      in ANC's #4, #6, #2, ...

........................................................................
.............................. CYCLE    9 ..............................
........................................................................

 iter      E             dE          RMSdq      gap      omega  full diag
   1    -35.1432764 -0.351433E+02  0.591E-02    3.67       0.0  T
   2    -35.1432770 -0.601492E-06  0.350E-02    3.67       1.0  T
   3    -35.1432754  0.155652E-05  0.982E-03    3.67       2.2  T
   4    -35.1432772 -0.175312E-05  0.203E-03    3.67      10.5  T
   5    -35.1432772 -0.557097E-07  0.866E-04    3.67      24.6  T
   6    -35.1432772 -0.203953E-08  0.441E-04    3.67      48.3  T
     SCC iter.                  ...        0 min,  0.007 sec
     gradient                   ...        0 min,  0.002 sec
 * total energy  :   -34.6130870 Eh     change       -0.4881732E-04 Eh
   gradient norm :     0.0030860 Eh/α   predicted    -0.3047622E-04 ( -37.57%)
   displ. norm   :     0.1837379 α      lambda       -0.6117026E-04
   maximum displ.:     0.1471099 α      in ANC's #4, #6, #2, ...

........................................................................
.............................. CYCLE   10 ..............................
........................................................................

 iter      E             dE          RMSdq      gap      omega  full diag
   1    -35.1426931 -0.351427E+02  0.664E-02    3.67       0.0  T
   2    -35.1426938 -0.662702E-06  0.393E-02    3.67       1.0  T
   3    -35.1426928  0.970089E-06  0.802E-03    3.67       2.7  T
   4    -35.1426940 -0.115158E-05  0.217E-03    3.67       9.8  T
   5    -35.1426940 -0.564594E-07  0.104E-03    3.67      20.5  T
   6    -35.1426940 -0.311204E-08  0.487E-04    3.67      43.8  T
   7    -35.1426940 -0.188533E-08  0.134E-04    3.67     158.7  T
     SCC iter.                  ...        0 min,  0.008 sec
     gradient                   ...        0 min,  0.002 sec
 * total energy  :   -34.6131330 Eh     change       -0.4599191E-04 Eh
   gradient norm :     0.0040829 Eh/α   predicted    -0.3161908E-04 ( -31.25%)
   displ. norm   :     0.1706856 α      lambda       -0.6441599E-04
   maximum displ.:     0.1426251 α      in ANC's #4, #6, #2, ...

........................................................................
.............................. CYCLE   11 ..............................
........................................................................

 iter      E             dE          RMSdq      gap      omega  full diag
   1    -35.1426777 -0.351427E+02  0.663E-02    3.67       0.0  T
   2    -35.1426781 -0.458749E-06  0.391E-02    3.67       1.0  T
   3    -35.1426777  0.451417E-06  0.538E-03    3.67       4.0  T
   4    -35.1426783 -0.636544E-06  0.160E-03    3.67      13.3  T
   5    -35.1426783 -0.132848E-07  0.956E-04    3.67      22.3  T
   6    -35.1426783 -0.330869E-08  0.462E-04    3.67      46.1  T
     SCC iter.                  ...        0 min,  0.007 sec
     gradient                   ...        0 min,  0.002 sec
 * total energy  :   -34.6131800 Eh     change       -0.4694758E-04 Eh
   gradient norm :     0.0039406 Eh/α   predicted    -0.3314739E-04 ( -29.39%)
   displ. norm   :     0.1485581 α      lambda       -0.6237897E-04
   maximum displ.:     0.1307026 α      in ANC's #4, #6, #2, ...

........................................................................
.............................. CYCLE   12 ..............................
........................................................................

 iter      E             dE          RMSdq      gap      omega  full diag
   1    -35.1433624 -0.351434E+02  0.594E-02    3.67       0.0  T
   2    -35.1433628 -0.398769E-06  0.350E-02    3.67       1.0  T
   3    -35.1433623  0.508809E-06  0.533E-03    3.67       4.0  T
   4    -35.1433630 -0.700143E-06  0.143E-03    3.67      14.9  T
   5    -35.1433630 -0.604606E-08  0.773E-04    3.67      27.6  T
   6    -35.1433630  0.201652E-10  0.411E-04    3.67      51.9  T
     SCC iter.                  ...        0 min,  0.007 sec
     gradient                   ...        0 min,  0.002 sec
 * total energy  :   -34.6132248 Eh     change       -0.4482986E-04 Eh
   gradient norm :     0.0029853 Eh/α   predicted    -0.3187879E-04 ( -28.89%)
   displ. norm   :     0.2583919 α      lambda       -0.5648400E-04
   maximum displ.:     0.2274043 α      in ANC's #4, #6, #2, ...

........................................................................
.............................. CYCLE   13 ..............................
........................................................................

 iter      E             dE          RMSdq      gap      omega  full diag
   1    -35.1418431 -0.351418E+02  0.992E-02    3.67       0.0  T
   2    -35.1418449 -0.189300E-05  0.584E-02    3.67       1.0  T
   3    -35.1418423  0.262758E-05  0.126E-02    3.67       1.7  T
   4    -35.1418455 -0.316479E-05  0.347E-03    3.67       6.1  T
   5    -35.1418456 -0.120840E-06  0.174E-03    3.67      12.2  T
   6    -35.1418456 -0.809707E-08  0.967E-04    3.67      22.0  T
   7    -35.1418456 -0.780680E-08  0.148E-04    3.67     143.9  T
     SCC iter.                  ...        0 min,  0.009 sec
     gradient                   ...        0 min,  0.002 sec
 * total energy  :   -34.6132332 Eh     change       -0.8404630E-05 Eh
   gradient norm :     0.0061555 Eh/α   predicted    -0.3013297E-04 ( 258.53%)
   displ. norm   :     0.0419650 α      lambda       -0.9927976E-04
   maximum displ.:     0.0275237 α      in ANC's #6, #2, #4, ...

........................................................................
.............................. CYCLE   14 ..............................
........................................................................

 iter      E             dE          RMSdq      gap      omega  full diag
   1    -35.1444215 -0.351444E+02  0.289E-02    3.68       0.0  T
   2    -35.1444232 -0.172549E-05  0.161E-02    3.68       1.3  T
   3    -35.1444232  0.387067E-07  0.645E-03    3.68       3.3  T
   4    -35.1444234 -0.212674E-06  0.164E-03    3.68      13.0  T
   5    -35.1444234 -0.268829E-07  0.751E-04    3.68      28.4  T
   6    -35.1444234 -0.131197E-08  0.372E-04    3.68      57.3  T
     SCC iter.                  ...        0 min,  0.007 sec
     gradient                   ...        0 min,  0.003 sec
 * total energy  :   -34.6132758 Eh     change       -0.4256544E-04 Eh
   gradient norm :     0.0028613 Eh/α   predicted    -0.4972769E-04 (  16.83%)
   displ. norm   :     0.0839472 α      lambda       -0.2001671E-04
   maximum displ.:     0.0768354 α      in ANC's #4, #6, #18, ...

........................................................................
.............................. CYCLE   15 ..............................
........................................................................

 iter      E             dE          RMSdq      gap      omega  full diag
   1    -35.1440147 -0.351440E+02  0.343E-02    3.68       0.0  T
   2    -35.1440149 -0.202217E-06  0.202E-02    3.68       1.1  T
   3    -35.1440142  0.757966E-06  0.675E-03    3.68       3.2  T
   4    -35.1440150 -0.881939E-06  0.115E-03    3.68      18.6  T
   5    -35.1440151 -0.994921E-08  0.669E-04    3.68      31.9  T
   6    -35.1440151 -0.160686E-08  0.330E-04    3.68      64.5  T
     SCC iter.                  ...        0 min,  0.007 sec
     gradient                   ...        0 min,  0.002 sec
 * total energy  :   -34.6132934 Eh     change       -0.1763505E-04 Eh
   gradient norm :     0.0022423 Eh/α   predicted    -0.1009307E-04 ( -42.77%)
   displ. norm   :     0.3098726 α      lambda       -0.6441413E-04
   maximum displ.:     0.2856323 α      in ANC's #4, #6, #1, ...

........................................................................
.............................. CYCLE   16 ..............................
........................................................................

 iter      E             dE          RMSdq      gap      omega  full diag
   1    -35.1419034 -0.351419E+02  0.132E-01    3.68       0.0  T
   2    -35.1419070 -0.364288E-05  0.777E-02    3.68       1.0  T
   3    -35.1418941  0.129262E-04  0.284E-02    3.68       1.0  T
   4    -35.1419092 -0.150830E-04  0.480E-03    3.68       4.4  T
   5    -35.1419094 -0.204574E-06  0.273E-03    3.68       7.8  T
   6    -35.1419094 -0.271897E-07  0.136E-03    3.68      15.7  T
   7    -35.1419094 -0.102146E-07  0.256E-04    3.68      83.2  T
   8    -35.1419094 -0.912564E-09  0.988E-05    3.68     215.7  T
     SCC iter.                  ...        0 min,  0.010 sec
     gradient                   ...        0 min,  0.002 sec
 * total energy  :   -34.6133065 Eh     change       -0.1312199E-04 Eh
   gradient norm :     0.0063021 Eh/α   predicted    -0.3529908E-04 ( 169.01%)
   displ. norm   :     0.1288826 α      lambda       -0.7026039E-04
   maximum displ.:     0.1131808 α      in ANC's #4, #6, #2, ...

........................................................................
.............................. CYCLE   17 ..............................
........................................................................

 iter      E             dE          RMSdq      gap      omega  full diag
   1    -35.1439793 -0.351440E+02  0.534E-02    3.69       0.0  T
   2    -35.1439806 -0.122756E-05  0.312E-02    3.69       1.0  T
   3    -35.1439800  0.543936E-06  0.702E-03    3.69       3.0  T
   4    -35.1439808 -0.736664E-06  0.187E-03    3.69      11.4  T
   5    -35.1439808 -0.389160E-07  0.102E-03    3.69      20.8  T
   6    -35.1439808 -0.455261E-08  0.573E-04    3.69      37.2  T
   7    -35.1439808 -0.163240E-08  0.173E-04    3.69     123.0  T
     SCC iter.                  ...        0 min,  0.008 sec
     gradient                   ...        0 min,  0.002 sec
 * total energy  :   -34.6133381 Eh     change       -0.3154165E-04 Eh
   gradient norm :     0.0020961 Eh/α   predicted    -0.3572162E-04 (  13.25%)
   displ. norm   :     0.0813161 α      lambda       -0.2472321E-04
   maximum displ.:     0.0663641 α      in ANC's #4, #1, #7, ...

........................................................................
.............................. CYCLE   18 ..............................
........................................................................

 iter      E             dE          RMSdq      gap      omega  full diag
   1    -35.1440468 -0.351440E+02  0.438E-02    3.69       0.0  T
   2    -35.1440471 -0.314289E-06  0.257E-02    3.69       1.0  T
   3    -35.1440462  0.864093E-06  0.690E-03    3.69       3.1  T
   4    -35.1440473 -0.105077E-05  0.146E-03    3.69      14.6  T
   5    -35.1440473 -0.136509E-07  0.869E-04    3.69      24.5  T
   6    -35.1440473 -0.403482E-08  0.374E-04    3.69      57.0  T
     SCC iter.                  ...        0 min,  0.007 sec
     gradient                   ...        0 min,  0.002 sec
 * total energy  :   -34.6133613 Eh     change       -0.2327038E-04 Eh
   gradient norm :     0.0022728 Eh/α   predicted    -0.1243901E-04 ( -46.55%)
   displ. norm   :     0.6700916 α      lambda       -0.1933531E-03
   maximum displ.:     0.5350164 α      in ANC's #4, #1, #7, ...

........................................................................
.............................. CYCLE   19 ..............................
........................................................................

 iter      E             dE          RMSdq      gap      omega  full diag
   1    -35.1384431 -0.351384E+02  0.360E-01    3.66       0.0  T
   2    -35.1384699 -0.268624E-04  0.211E-01    3.66       1.0  T
   3    -35.1384160  0.539608E-04  0.572E-02    3.65       1.0  T
   4    -35.1384833 -0.673357E-04  0.116E-02    3.65       1.8  T
   5    -35.1384843 -0.981933E-06  0.709E-03    3.65       3.0  T
   6    -35.1384845 -0.167026E-06  0.308E-03    3.65       6.9  T
   7    -35.1384845 -0.775663E-07  0.766E-04    3.65      27.8  T
   8    -35.1384845 -0.900579E-08  0.247E-04    3.65      86.3  T
     SCC iter.                  ...        0 min,  0.009 sec
     gradient                   ...        0 min,  0.002 sec
 * total energy  :   -34.6132942 Eh     change        0.6715866E-04 Eh
   gradient norm :     0.0209174 Eh/α   predicted    -0.1395536E-03 (-307.80%)
   displ. norm   :     0.3186336 α      lambda       -0.5619295E-03
   maximum displ.:     0.2852449 α      in ANC's #4, #1, #7, ...

........................................................................
.............................. CYCLE   20 ..............................
........................................................................

 iter      E             dE          RMSdq      gap      omega  full diag
   1    -35.1451860 -0.351452E+02  0.173E-01    3.70       0.0  T
   2    -35.1452054 -0.194069E-04  0.101E-01    3.70       1.0  T
   3    -35.1451935  0.119182E-04  0.342E-02    3.71       1.0  T
   4    -35.1452108 -0.172632E-04  0.576E-03    3.70       3.7  T
   5    -35.1452110 -0.278887E-06  0.337E-03    3.70       6.3  T
   6    -35.1452111 -0.326172E-07  0.168E-03    3.70      12.7  T
   7    -35.1452111 -0.854562E-08  0.689E-04    3.70      30.9  T
   8    -35.1452111 -0.750688E-08  0.192E-04    3.70     111.0  T
     SCC iter.                  ...        0 min,  0.009 sec
     gradient                   ...        0 min,  0.003 sec
 * total energy  :   -34.6134742 Eh     change       -0.1799932E-03 Eh
   gradient norm :     0.0035600 Eh/α   predicted    -0.3107476E-03 (  72.64%)
   displ. norm   :     0.1297547 α      lambda       -0.5625929E-04
   maximum displ.:     0.1002919 α      in ANC's #1, #4, #7, ...
 * RMSD in coord.:     0.4198954 α      energy gain  -0.1342669E-01 Eh

generating ANC from exact Hessian ...
Using Lindh-Hessian (1995)
 Shifting diagonal of input Hessian by   8.797841848944813E-003
 Lowest  eigenvalues of input Hessian
    0.000000    0.000000    0.000000    0.000000    0.000000    0.000000
    0.010000    0.010101    0.010881    0.016522    0.017568    0.019467
    0.021693    0.022299    0.024699    0.029330    0.033305    0.035337
 Highest eigenvalues
    1.836306    1.908178    1.915844    2.028545    2.100687    2.381521
 

........................................................................
.............................. CYCLE   21 ..............................
........................................................................

 iter      E             dE          RMSdq      gap      omega  full diag
   1    -35.1447817 -0.351448E+02  0.726E-02    3.70       0.0  T
   2    -35.1447825 -0.802932E-06  0.425E-02    3.70       1.0  T
   3    -35.1447813  0.120023E-05  0.781E-03    3.70       2.7  T
   4    -35.1447828 -0.152817E-05  0.180E-03    3.70      11.8  T
   5    -35.1447829 -0.202717E-07  0.112E-03    3.70      19.1  T
   6    -35.1447829 -0.322621E-08  0.643E-04    3.70      33.2  T
   7    -35.1447829 -0.340639E-08  0.104E-04    3.70     204.7  T
     SCC iter.                  ...        0 min,  0.009 sec
     gradient                   ...        0 min,  0.002 sec
 * total energy  :   -34.6135288 Eh     change       -0.5467186E-04 Eh
   gradient norm :     0.0033424 Eh/α   predicted     0.0000000E+00 (-100.00%)
   displ. norm   :     0.0387906 α      lambda       -0.1145774E-04
   maximum displ.:     0.0312933 α      in ANC's #1, #3, #8, ...

........................................................................
.............................. CYCLE   22 ..............................
........................................................................

 iter      E             dE          RMSdq      gap      omega  full diag
   1    -35.1446282 -0.351446E+02  0.230E-02    3.70       0.0  T
   2    -35.1446284 -0.201443E-06  0.134E-02    3.70       1.6  T
   3    -35.1446283  0.101043E-06  0.292E-03    3.70       7.3  T
   4    -35.1446284 -0.140434E-06  0.752E-04    3.70      28.3  T
   5    -35.1446284 -0.549631E-08  0.352E-04    3.70      60.6  T
     SCC iter.                  ...        0 min,  0.006 sec
     gradient                   ...        0 min,  0.002 sec
 * total energy  :   -34.6135619 Eh     change       -0.3302334E-04 Eh
   gradient norm :     0.0014244 Eh/α   predicted    -0.2041927E-04 ( -38.17%)
   displ. norm   :     0.1405190 α      lambda       -0.5880116E-04
   maximum displ.:     0.1072339 α      in ANC's #1, #3, #8, ...

........................................................................
.............................. CYCLE   23 ..............................
........................................................................

 iter      E             dE          RMSdq      gap      omega  full diag
   1    -35.1441219 -0.351441E+02  0.792E-02    3.69       0.0  T
   2    -35.1441228 -0.947149E-06  0.463E-02    3.69       1.0  T
   3    -35.1441218  0.103990E-05  0.801E-03    3.69       2.7  T
   4    -35.1441232 -0.141811E-05  0.198E-03    3.69      10.8  T
   5    -35.1441232 -0.157701E-07  0.107E-03    3.69      19.9  T
   6    -35.1441232 -0.224905E-08  0.619E-04    3.69      34.5  T
   7    -35.1441232 -0.320411E-08  0.214E-04    3.69      99.8  T
     SCC iter.                  ...        0 min,  0.008 sec
     gradient                   ...        0 min,  0.003 sec
 * total energy  :   -34.6136203 Eh     change       -0.5843934E-04 Eh
   gradient norm :     0.0031707 Eh/α   predicted    -0.2965944E-04 ( -49.25%)
   displ. norm   :     0.1054840 α      lambda       -0.4894042E-04
   maximum displ.:     0.0778641 α      in ANC's #1, #6, #3, ...

........................................................................
.............................. CYCLE   24 ..............................
........................................................................

 iter      E             dE          RMSdq      gap      omega  full diag
   1    -35.1439569 -0.351440E+02  0.603E-02    3.68       0.0  T
   2    -35.1439572 -0.358320E-06  0.353E-02    3.68       1.0  T
   3    -35.1439566  0.598524E-06  0.571E-03    3.68       3.7  T
   4    -35.1439574 -0.795963E-06  0.138E-03    3.68      15.5  T
   5    -35.1439574 -0.244962E-08  0.929E-04    3.68      23.0  T
   6    -35.1439574 -0.610468E-08  0.370E-04    3.68      57.6  T
     SCC iter.                  ...        0 min,  0.007 sec
     gradient                   ...        0 min,  0.002 sec
 * total energy  :   -34.6136666 Eh     change       -0.4626275E-04 Eh
   gradient norm :     0.0034740 Eh/α   predicted    -0.2474564E-04 ( -46.51%)
   displ. norm   :     0.3010245 α      lambda       -0.1492145E-03
   maximum displ.:     0.2098414 α      in ANC's #1, #6, #3, ...

........................................................................
.............................. CYCLE   25 ..............................
........................................................................

 iter      E             dE          RMSdq      gap      omega  full diag
   1    -35.1428423 -0.351428E+02  0.174E-01    3.66       0.0  T
   2    -35.1428458 -0.344996E-05  0.102E-01    3.66       1.0  T
   3    -35.1428415  0.430969E-05  0.161E-02    3.65       1.3  T
   4    -35.1428474 -0.592284E-05  0.425E-03    3.66       5.0  T
   5    -35.1428475 -0.745913E-07  0.274E-03    3.66       7.8  T
   6    -35.1428475 -0.356078E-07  0.124E-03    3.66      17.2  T
   7    -35.1428475 -0.130122E-07  0.336E-04    3.66      63.5  T
   8    -35.1428475 -0.137090E-08  0.108E-04    3.66     196.8  T
     SCC iter.                  ...        0 min,  0.010 sec
     gradient                   ...        0 min,  0.002 sec
 * total energy  :   -34.6137906 Eh     change       -0.1240103E-03 Eh
   gradient norm :     0.0059490 Eh/α   predicted    -0.8138547E-04 ( -34.37%)
   displ. norm   :     0.3483285 α      lambda       -0.1524154E-03
   maximum displ.:     0.2480165 α      in ANC's #1, #6, #3, ...

........................................................................
.............................. CYCLE   26 ..............................
........................................................................

 iter      E             dE          RMSdq      gap      omega  full diag
   1    -35.1411319 -0.351411E+02  0.201E-01    3.63       0.0  T
   2    -35.1411366 -0.470287E-05  0.117E-01    3.63       1.0  T
   3    -35.1411304  0.618271E-05  0.198E-02    3.62       1.1  T
   4    -35.1411386 -0.824431E-05  0.511E-03    3.62       4.2  T
   5    -35.1411388 -0.157971E-06  0.321E-03    3.62       6.6  T
   6    -35.1411388 -0.518685E-07  0.137E-03    3.62      15.5  T
   7    -35.1411389 -0.126223E-07  0.433E-04    3.62      49.3  T
   8    -35.1411389 -0.257909E-08  0.125E-04    3.62     170.4  T
     SCC iter.                  ...        0 min,  0.010 sec
     gradient                   ...        0 min,  0.002 sec
 * total energy  :   -34.6138764 Eh     change       -0.8587161E-04 Eh
   gradient norm :     0.0112285 Eh/α   predicted    -0.8546591E-04 (  -0.47%)
   displ. norm   :     0.0950275 α      lambda       -0.1256108E-03
   maximum displ.:     0.0771850 α      in ANC's #1, #6, #3, ...

........................................................................
.............................. CYCLE   27 ..............................
........................................................................

 iter      E             dE          RMSdq      gap      omega  full diag
   1    -35.1433353 -0.351433E+02  0.534E-02    3.64       0.0  T
   2    -35.1433368 -0.156583E-05  0.316E-02    3.64       1.0  T
   3    -35.1433339  0.292859E-05  0.139E-02    3.63       1.5  T
   4    -35.1433373 -0.339575E-05  0.301E-03    3.63       7.1  T
   5    -35.1433374 -0.131352E-06  0.865E-04    3.63      24.6  T
   6    -35.1433374 -0.342212E-08  0.496E-04    3.63      43.0  T
     SCC iter.                  ...        0 min,  0.007 sec
     gradient                   ...        0 min,  0.009 sec
 * total energy  :   -34.6139723 Eh     change       -0.9588806E-04 Eh
   gradient norm :     0.0059776 Eh/α   predicted    -0.6337724E-04 ( -33.90%)
   displ. norm   :     0.3138508 α      lambda       -0.1840165E-03
   maximum displ.:     0.2495918 α      in ANC's #1, #6, #3, ...

........................................................................
.............................. CYCLE   28 ..............................
........................................................................

 iter      E             dE          RMSdq      gap      omega  full diag
   1    -35.1443044 -0.351443E+02  0.174E-01    3.64       0.0  T
   2    -35.1443085 -0.414374E-05  0.102E-01    3.63       1.0  T
   3    -35.1443029  0.563901E-05  0.176E-02    3.64       1.2  T
   4    -35.1443098 -0.696918E-05  0.476E-03    3.63       4.5  T
   5    -35.1443101 -0.223126E-06  0.256E-03    3.63       8.3  T
   6    -35.1443101 -0.391777E-07  0.133E-03    3.63      16.1  T
   7    -35.1443101 -0.543062E-08  0.405E-04    3.63      52.7  T
   8    -35.1443101 -0.233491E-08  0.121E-04    3.63     176.7  T
     SCC iter.                  ...        0 min,  0.010 sec
     gradient                   ...        0 min,  0.002 sec
 * total energy  :   -34.6141022 Eh     change       -0.1299239E-03 Eh
   gradient norm :     0.0042351 Eh/α   predicted    -0.1010756E-03 ( -22.20%)
   displ. norm   :     0.2726918 α      lambda       -0.1161999E-03
   maximum displ.:     0.2230845 α      in ANC's #1, #6, #3, ...

........................................................................
.............................. CYCLE   29 ..............................
........................................................................

 iter      E             dE          RMSdq      gap      omega  full diag
   1    -35.1442551 -0.351443E+02  0.146E-01    3.64       0.0  T
   2    -35.1442583 -0.319264E-05  0.857E-02    3.64       1.0  T
   3    -35.1442548  0.340895E-05  0.141E-02    3.64       1.5  T
   4    -35.1442591 -0.423175E-05  0.401E-03    3.64       5.3  T
   5    -35.1442593 -0.186866E-06  0.207E-03    3.64      10.3  T
   6    -35.1442593 -0.253548E-07  0.108E-03    3.64      19.8  T
   7    -35.1442593 -0.362510E-08  0.356E-04    3.64      59.9  T
   8    -35.1442593 -0.168228E-08  0.110E-04    3.64     193.1  T
     SCC iter.                  ...        0 min,  0.010 sec
     gradient                   ...        0 min,  0.002 sec
 * total energy  :   -34.6141793 Eh     change       -0.7701739E-04 Eh
   gradient norm :     0.0027164 Eh/α   predicted    -0.6242363E-04 ( -18.95%)
   displ. norm   :     0.1590844 α      lambda       -0.4455504E-04
   maximum displ.:     0.1356632 α      in ANC's #1, #6, #3, ...

........................................................................
.............................. CYCLE   30 ..............................
........................................................................

 iter      E             dE          RMSdq      gap      omega  full diag
   1    -35.1445435 -0.351445E+02  0.822E-02    3.64       0.0  T
   2    -35.1445448 -0.124437E-05  0.483E-02    3.64       1.0  T
   3    -35.1445442  0.567938E-06  0.651E-03    3.64       3.3  T
   4    -35.1445450 -0.805801E-06  0.184E-03    3.64      11.6  T
   5    -35.1445451 -0.406101E-07  0.918E-04    3.64      23.2  T
   6    -35.1445451 -0.195311E-08  0.480E-04    3.64      44.4  T
     SCC iter.                  ...        0 min,  0.007 sec
     gradient                   ...        0 min,  0.002 sec
 * total energy  :   -34.6142103 Eh     change       -0.3102980E-04 Eh
   gradient norm :     0.0021607 Eh/α   predicted    -0.2284220E-04 ( -26.39%)
   displ. norm   :     0.1108082 α      lambda       -0.2516440E-04
   maximum displ.:     0.0990388 α      in ANC's #1, #3, #6, ...

........................................................................
.............................. CYCLE   31 ..............................
........................................................................

 iter      E             dE          RMSdq      gap      omega  full diag
   1    -35.1448786 -0.351449E+02  0.569E-02    3.64       0.0  T
   2    -35.1448789 -0.267465E-06  0.333E-02    3.63       1.0  T
   3    -35.1448786  0.311557E-06  0.460E-03    3.63       4.6  T
   4    -35.1448790 -0.406076E-06  0.122E-03    3.63      17.5  T
   5    -35.1448790 -0.127160E-07  0.693E-04    3.63      30.8  T
   6    -35.1448790 -0.277548E-08  0.313E-04    3.63      68.2  T
     SCC iter.                  ...        0 min,  0.007 sec
     gradient                   ...        0 min,  0.002 sec
 * total energy  :   -34.6142311 Eh     change       -0.2076659E-04 Eh
   gradient norm :     0.0015165 Eh/α   predicted    -0.1273953E-04 ( -38.65%)
   displ. norm   :     0.1381217 α      lambda       -0.2301777E-04
   maximum displ.:     0.1260721 α      in ANC's #1, #3, #5, ...

........................................................................
.............................. CYCLE   32 ..............................
........................................................................

 iter      E             dE          RMSdq      gap      omega  full diag
   1    -35.1453861 -0.351454E+02  0.684E-02    3.63       0.0  T
   2    -35.1453864 -0.278788E-06  0.401E-02    3.63       1.0  T
   3    -35.1453862  0.140839E-06  0.366E-03    3.63       5.8  T
   4    -35.1453865 -0.243429E-06  0.104E-03    3.63      20.5  T
   5    -35.1453865 -0.460821E-08  0.611E-04    3.63      34.9  T
   6    -35.1453865 -0.140965E-08  0.311E-04    3.63      68.5  T
     SCC iter.                  ...        0 min,  0.007 sec
     gradient                   ...        0 min,  0.002 sec
 * total energy  :   -34.6142565 Eh     change       -0.2548820E-04 Eh
   gradient norm :     0.0013425 Eh/α   predicted    -0.1160967E-04 ( -54.45%)
   displ. norm   :     0.0900741 α      lambda       -0.1205142E-04
   maximum displ.:     0.0833488 α      in ANC's #1, #3, #7, ...

........................................................................
.............................. CYCLE   33 ..............................
........................................................................

 iter      E             dE          RMSdq      gap      omega  full diag
   1    -35.1453775 -0.351454E+02  0.437E-02    3.62       0.0  T
   2    -35.1453776 -0.987391E-07  0.256E-02    3.62       1.0  T
   3    -35.1453774  0.216529E-06  0.364E-03    3.62       5.9  T
   4    -35.1453777 -0.262352E-06  0.669E-04    3.62      31.9  T
   5    -35.1453777 -0.332322E-08  0.381E-04    3.62      56.0  T
     SCC iter.                  ...        0 min,  0.006 sec
     gradient                   ...        0 min,  0.002 sec
 * total energy  :   -34.6142721 Eh     change       -0.1557118E-04 Eh
   gradient norm :     0.0016308 Eh/α   predicted    -0.6048112E-05 ( -61.16%)
   displ. norm   :     0.0662636 α      lambda       -0.1073596E-04
   maximum displ.:     0.0577293 α      in ANC's #1, #3, #2, ...

........................................................................
.............................. CYCLE   34 ..............................
........................................................................

 iter      E             dE          RMSdq      gap      omega  full diag
   1    -35.1451200 -0.351451E+02  0.322E-02    3.61       0.0  T
   2    -35.1451201 -0.126096E-06  0.190E-02    3.61       1.1  T
   3    -35.1451194  0.637917E-06  0.594E-03    3.61       3.6  T
   4    -35.1451201 -0.706690E-06  0.920E-04    3.61      23.2  T
   5    -35.1451202 -0.129396E-07  0.245E-04    3.61      87.0  T
     SCC iter.                  ...        0 min,  0.006 sec
     gradient                   ...        0 min,  0.002 sec
 * total energy  :   -34.6142856 Eh     change       -0.1345604E-04 Eh
   gradient norm :     0.0009318 Eh/α   predicted    -0.5381027E-05 ( -60.01%)
   displ. norm   :     0.1019417 α      lambda       -0.1795032E-04
   maximum displ.:     0.0762993 α      in ANC's #1, #6, #2, ...

........................................................................
.............................. CYCLE   35 ..............................
........................................................................

 iter      E             dE          RMSdq      gap      omega  full diag
   1    -35.1462787 -0.351463E+02  0.486E-02    3.61       0.0  T
   2    -35.1462789 -0.215287E-06  0.286E-02    3.61       1.0  T
   3    -35.1462779  0.991594E-06  0.782E-03    3.61       2.7  T
   4    -35.1462790 -0.111957E-05  0.124E-03    3.61      17.2  T
   5    -35.1462791 -0.179348E-07  0.554E-04    3.61      38.5  T
   6    -35.1462791 -0.573678E-09  0.254E-04    3.61      83.9  T
     SCC iter.                  ...        0 min,  0.007 sec
     gradient                   ...        0 min,  0.003 sec
 * total energy  :   -34.6143034 Eh     change       -0.1783120E-04 Eh
   gradient norm :     0.0028790 Eh/α   predicted    -0.9017245E-05 ( -49.43%)
   displ. norm   :     0.1558760 α      lambda       -0.3284511E-04
   maximum displ.:     0.1305177 α      in ANC's #1, #2, #3, ...

........................................................................
.............................. CYCLE   36 ..............................
........................................................................

 iter      E             dE          RMSdq      gap      omega  full diag
   1    -35.1452942 -0.351453E+02  0.773E-02    3.60       0.0  T
   2    -35.1452946 -0.374668E-06  0.455E-02    3.60       1.0  T
   3    -35.1452914  0.318551E-05  0.132E-02    3.60       1.6  T
   4    -35.1452949 -0.352029E-05  0.144E-03    3.60      14.8  T
   5    -35.1452950 -0.234509E-07  0.582E-04    3.60      36.6  T
   6    -35.1452950 -0.116915E-08  0.262E-04    3.60      81.5  T
     SCC iter.                  ...        0 min,  0.007 sec
     gradient                   ...        0 min,  0.002 sec
 * total energy  :   -34.6143297 Eh     change       -0.2625446E-04 Eh
   gradient norm :     0.0033360 Eh/α   predicted    -0.1682963E-04 ( -35.90%)
   displ. norm   :     0.0719002 α      lambda       -0.1816850E-04
   maximum displ.:     0.0603118 α      in ANC's #1, #2, #6, ...

........................................................................
.............................. CYCLE   37 ..............................
........................................................................

 iter      E             dE          RMSdq      gap      omega  full diag
   1    -35.1450123 -0.351450E+02  0.345E-02    3.59       0.0  T
   2    -35.1450125 -0.139779E-06  0.204E-02    3.59       1.0  T
   3    -35.1450118  0.671803E-06  0.607E-03    3.59       3.5  T
   4    -35.1450126 -0.740040E-06  0.799E-04    3.59      26.7  T
   5    -35.1450126 -0.829742E-08  0.272E-04    3.59      78.5  T
     SCC iter.                  ...        0 min,  0.006 sec
     gradient                   ...        0 min,  0.002 sec
 * total energy  :   -34.6143460 Eh     change       -0.1630009E-04 Eh
   gradient norm :     0.0021892 Eh/α   predicted    -0.9133974E-05 ( -43.96%)
   displ. norm   :     0.0997588 α      lambda       -0.2587498E-04
   maximum displ.:     0.0825586 α      in ANC's #1, #2, #6, ...

........................................................................
.............................. CYCLE   38 ..............................
........................................................................

 iter      E             dE          RMSdq      gap      omega  full diag
   1    -35.1448508 -0.351449E+02  0.479E-02    3.58       0.0  T
   2    -35.1448510 -0.168880E-06  0.283E-02    3.58       1.0  T
   3    -35.1448504  0.601679E-06  0.571E-03    3.58       3.7  T
   4    -35.1448510 -0.675406E-06  0.101E-03    3.58      21.1  T
   5    -35.1448511 -0.117215E-07  0.396E-04    3.58      53.8  T
   6    -35.1448511 -0.365738E-09  0.183E-04    3.58     116.3  T
     SCC iter.                  ...        0 min,  0.007 sec
     gradient                   ...        0 min,  0.002 sec
 * total energy  :   -34.6143676 Eh     change       -0.2168795E-04 Eh
   gradient norm :     0.0011780 Eh/α   predicted    -0.1306851E-04 ( -39.74%)
   displ. norm   :     0.1935642 α      lambda       -0.2506740E-04
   maximum displ.:     0.1606765 α      in ANC's #1, #6, #2, ...

........................................................................
.............................. CYCLE   39 ..............................
........................................................................

 iter      E             dE          RMSdq      gap      omega  full diag
   1    -35.1443876 -0.351444E+02  0.926E-02    3.57       0.0  T
   2    -35.1443882 -0.622880E-06  0.545E-02    3.57       1.0  T
   3    -35.1443865  0.173878E-05  0.993E-03    3.58       2.1  T
   4    -35.1443884 -0.195741E-05  0.185E-03    3.58      11.6  T
   5    -35.1443885 -0.400699E-07  0.703E-04    3.58      30.3  T
   6    -35.1443885 -0.406288E-10  0.342E-04    3.57      62.4  T
     SCC iter.                  ...        0 min,  0.007 sec
     gradient                   ...        0 min,  0.002 sec
 * total energy  :   -34.6143933 Eh     change       -0.2563342E-04 Eh
   gradient norm :     0.0024532 Eh/α   predicted    -0.1274716E-04 ( -50.27%)
   displ. norm   :     0.0801110 α      lambda       -0.1254711E-04
   maximum displ.:     0.0695157 α      in ANC's #1, #6, #5, ...

........................................................................
.............................. CYCLE   40 ..............................
........................................................................

 iter      E             dE          RMSdq      gap      omega  full diag
   1    -35.1444695 -0.351445E+02  0.379E-02    3.57       0.0  T
   2    -35.1444696 -0.422210E-07  0.223E-02    3.57       1.0  T
   3    -35.1444693  0.219428E-06  0.358E-03    3.57       6.0  T
   4    -35.1444696 -0.254140E-06  0.479E-04    3.57      44.5  T
   5    -35.1444696 -0.628297E-09  0.246E-04    3.57      86.6  T
     SCC iter.                  ...        0 min,  0.006 sec
     gradient                   ...        0 min,  0.002 sec
 * total energy  :   -34.6144046 Eh     change       -0.1127003E-04 Eh
   gradient norm :     0.0022691 Eh/α   predicted    -0.6317108E-05 ( -43.95%)
   displ. norm   :     0.1885999 α      lambda       -0.3161588E-04
   maximum displ.:     0.1665691 α      in ANC's #1, #6, #5, ...

........................................................................
.............................. CYCLE   41 ..............................
........................................................................

 iter      E             dE          RMSdq      gap      omega  full diag
   1    -35.1446787 -0.351447E+02  0.878E-02    3.57       0.0  T
   2    -35.1446790 -0.258294E-06  0.516E-02    3.57       1.0  T
   3    -35.1446777  0.125940E-05  0.862E-03    3.57       2.5  T
   4    -35.1446792 -0.144915E-05  0.119E-03    3.57      17.9  T
   5    -35.1446792 -0.958789E-08  0.623E-04    3.57      34.2  T
   6    -35.1446792 -0.127139E-08  0.230E-04    3.57      92.7  T
     SCC iter.                  ...        0 min,  0.007 sec
     gradient                   ...        0 min,  0.002 sec
 * total energy  :   -34.6144306 Eh     change       -0.2604082E-04 Eh
   gradient norm :     0.0016799 Eh/α   predicted    -0.1637262E-04 ( -37.13%)
   displ. norm   :     0.3870769 α      lambda       -0.3602638E-04
   maximum displ.:     0.3483804 α      in ANC's #1, #6, #5, ...

........................................................................
.............................. CYCLE   42 ..............................
........................................................................

 iter      E             dE          RMSdq      gap      omega  full diag
   1    -35.1437922 -0.351438E+02  0.177E-01    3.56       0.0  T
   2    -35.1437933 -0.109674E-05  0.104E-01    3.55       1.0  T
   3    -35.1437859  0.740422E-05  0.205E-02    3.55       1.0  T
   4    -35.1437942 -0.835411E-05  0.234E-03    3.55       9.1  T
   5    -35.1437942 -0.348846E-07  0.120E-03    3.55      17.7  T
   6    -35.1437943 -0.493813E-08  0.508E-04    3.55      42.0  T
   7    -35.1437943 -0.267181E-08  0.142E-04    3.55     150.0  T
     SCC iter.                  ...        0 min,  0.008 sec
     gradient                   ...        0 min,  0.002 sec
 * total energy  :   -34.6144594 Eh     change       -0.2880227E-04 Eh
   gradient norm :     0.0031953 Eh/α   predicted    -0.1921730E-04 ( -33.28%)
   displ. norm   :     0.0747620 α      lambda       -0.2756496E-04
   maximum displ.:     0.0669988 α      in ANC's #1, #2, #3, ...
 * RMSD in coord.:     0.6455428 α      energy gain  -0.9852406E-03 Eh

generating ANC from exact Hessian ...
Using Lindh-Hessian (1995)
 Shifting diagonal of input Hessian by   8.801040458763320E-003
 Lowest  eigenvalues of input Hessian
    0.000000    0.000000    0.000000    0.000000    0.000000    0.000000
    0.010000    0.010128    0.011108    0.015745    0.018128    0.019984
    0.021836    0.023007    0.024908    0.029165    0.032998    0.035793
 Highest eigenvalues
    1.841873    1.911092    1.919691    2.030561    2.111018    2.398932
 

........................................................................
.............................. CYCLE   43 ..............................
........................................................................

 iter      E             dE          RMSdq      gap      omega  full diag
   1    -35.1451428 -0.351451E+02  0.348E-02    3.55       0.0  T
   2    -35.1451431 -0.309308E-06  0.202E-02    3.55       1.1  T
   3    -35.1451430  0.697329E-07  0.267E-03    3.55       8.0  T
   4    -35.1451431 -0.101936E-06  0.918E-04    3.55      23.2  T
   5    -35.1451431 -0.111540E-07  0.381E-04    3.55      55.9  T
     SCC iter.                  ...        0 min,  0.006 sec
     gradient                   ...        0 min,  0.002 sec
 * total energy  :   -34.6144746 Eh     change       -0.1516382E-04 Eh
   gradient norm :     0.0023377 Eh/α   predicted     0.0000000E+00 (-100.00%)
   displ. norm   :     0.0173335 α      lambda       -0.9421059E-05
   maximum displ.:     0.0084181 α      in ANC's #2, #3, #1, ...

........................................................................
.............................. CYCLE   44 ..............................
........................................................................

 iter      E             dE          RMSdq      gap      omega  full diag
   1    -35.1452046 -0.351452E+02  0.941E-03    3.55       0.0  T
   2    -35.1452047 -0.122712E-06  0.573E-03    3.55       3.7  T
   3    -35.1452047  0.538411E-07  0.260E-03    3.55       8.2  T
   4    -35.1452047 -0.775213E-07  0.730E-04    3.55      29.2  T
   5    -35.1452047 -0.889465E-08  0.186E-04    3.55     114.4  T
     SCC iter.                  ...        0 min,  0.006 sec
     gradient                   ...        0 min,  0.002 sec
 * total energy  :   -34.6144817 Eh     change       -0.7189977E-05 Eh
   gradient norm :     0.0007913 Eh/α   predicted    -0.5469232E-05 ( -23.93%)
   displ. norm   :     0.0361268 α      lambda       -0.5353560E-05
   maximum displ.:     0.0208609 α      in ANC's #3, #1, #2, ...

........................................................................
.............................. CYCLE   45 ..............................
........................................................................

 iter      E             dE          RMSdq      gap      omega  full diag
   1    -35.1452784 -0.351453E+02  0.155E-02    3.54       0.0  T
   2    -35.1452786 -0.158289E-06  0.911E-03    3.54       2.3  T
   3    -35.1452785  0.886320E-07  0.283E-03    3.54       7.5  T
   4    -35.1452786 -0.115726E-06  0.663E-04    3.54      32.1  T
   5    -35.1452786 -0.683914E-08  0.243E-04    3.54      87.7  T
     SCC iter.                  ...        0 min,  0.006 sec
     gradient                   ...        0 min,  0.002 sec
 * total energy  :   -34.6144857 Eh     change       -0.3935275E-05 Eh
   gradient norm :     0.0012022 Eh/α   predicted    -0.2680954E-05 ( -31.87%)
   displ. norm   :     0.0250265 α      lambda       -0.2685267E-05
   maximum displ.:     0.0154395 α      in ANC's #1, #3, #2, ...

........................................................................
.............................. CYCLE   46 ..............................
........................................................................

 iter      E             dE          RMSdq      gap      omega  full diag
   1    -35.1452453 -0.351452E+02  0.107E-02    3.54       0.0  T
   2    -35.1452454 -0.345063E-07  0.626E-03    3.54       3.4  T
   3    -35.1452453  0.428826E-07  0.169E-03    3.54      12.6  T
   4    -35.1452454 -0.461018E-07  0.464E-04    3.54      45.9  T
   5    -35.1452454 -0.378056E-08  0.128E-04    3.54     166.0  T
     SCC iter.                  ...        0 min,  0.006 sec
     gradient                   ...        0 min,  0.002 sec
 * total energy  :   -34.6144886 Eh     change       -0.2868939E-05 Eh
   gradient norm :     0.0006442 Eh/α   predicted    -0.1343691E-05 ( -53.16%)
   displ. norm   :     0.0406406 α      lambda       -0.3505988E-05
   maximum displ.:     0.0272313 α      in ANC's #1, #3, #2, ...

   *** GEOMETRY OPTIMIZATION CONVERGED AFTER 46 ITERATIONS ***

------------------------------------------------------------------------
 total energy gain   :        -0.0144411 Eh       -9.0619 kcal/mol
 total RMSD          :         0.8391557 a0        0.4441 Å
 total power (kW/mol):        -0.8242408 (step)  -64.9782 (real)
------------------------------------------------------------------------

 ANCopt (total)                0 d,  0 h,  0 min,  0.584 sec
 optimizer setup                ...        0 min,  0.000 sec (  0.019%)
 model hessian                  ...        0 min,  0.011 sec (  1.964%)
 ANC generation                 ...        0 min,  0.002 sec (  0.328%)
 coordinate transformation      ...        0 min,  0.000 sec (  0.059%)
 single point calculation       ...        0 min,  0.551 sec ( 94.395%)
 optimization log               ...        0 min,  0.009 sec (  1.547%)
 hessian update                 ...        0 min,  0.005 sec (  0.869%)
 rational function              ...        0 min,  0.003 sec (  0.532%)

================
 final structure:
================
22
 xtb: 6.7.1 (edcfbbe)
C           -3.53917918977850        1.03737878603737        0.89685480185884
C           -2.59447487951584        0.09400917906833        0.22429365199562
C           -2.97265886098116       -0.90404062152237       -0.56683790477179
C           -1.15967997605786        0.32968445853495        0.54520671094065
O           -0.77764500875567        1.01978976657752        1.45596662677654
O           -0.34467664893522       -0.30648598492757       -0.31881565280940
C            1.03397089443720       -0.24801460410980       -0.15843760658348
C            1.79132080379278       -0.02918435325839       -1.30193967079291
C            3.17052079454921       -0.00872989304231       -1.21324171164989
C            3.79250594609918       -0.20249038893326        0.00928690336254
C            3.03087389865672       -0.42471692889929        1.14309359177580
C            1.64897826563464       -0.45243740910259        1.06761480507340
H           -3.40571427970690        2.04260335615188        0.49873247316912
H           -4.56971943998124        0.72852131227030        0.74849631415888
H           -3.31620733274164        1.08033795295997        1.96116535300215
H           -4.01314106948174       -1.08664431680569       -0.77825637673879
H           -2.25942031857518       -1.56862653446319       -1.02152998045779
H            1.28793352962345        0.12217309943022       -2.24426863014396
H            3.76015159096720        0.16367494588518       -2.10106256093350
H            4.86976083214567       -0.18106096834429        0.07685340414365
H            3.51210791045697       -0.58013643025958        2.09689491388472
H            1.05439253814797       -0.62560542324757        1.95022254473994
 
 Bond Distances (Angstroems)
 ---------------------------
C1-C2=1.4949         C1-H13=1.0894        C1-H14=1.0860        C1-H15=1.0883        C2-C1=1.4949         C2-C3=1.3285         
C2-C4=1.4890         C3-C2=1.3285         C3-H16=1.0773        C3-H17=1.0757        C4-C2=1.4890         C4-O5=1.2049         
C4-O6=1.3474         O5-C4=1.2049         O6-C4=1.3474         O6-C7=1.3892         C7-O6=1.3892         C7-C8=1.3889         
C7-C12=1.3868        C8-C7=1.3889         C8-C9=1.3822         C8-H18=1.0790        C9-C8=1.3822         C9-C10=1.3853        
C9-H19=1.0796        C10-C9=1.3853        C10-C11=1.3838       C10-H20=1.0796       C11-C10=1.3838       C11-C12=1.3842       
C11-H21=1.0796       C12-C7=1.3868        C12-C11=1.3842       C12-H22=1.0782       H13-C1=1.0894        H14-C1=1.0860        
H15-C1=1.0883        H16-C3=1.0773        H17-C3=1.0757        H18-C8=1.0790        H19-C9=1.0796        H20-C10=1.0796       
H21-C11=1.0796       H22-C12=1.0782       
 C  H  Rav=1.0813 sigma=0.0045  Rmin=1.0757  Rmax=1.0894    10
 C  C  Rav=1.4026 sigma=0.0509  Rmin=1.3285  Rmax=1.4949     9
 O  C  Rav=1.3138 sigma=0.0789  Rmin=1.2049  Rmax=1.3892     3
 
 selected bond angles (degree)
 --------------------
H13-C1-C2=109.90               H14-C1-C2=111.02               H14-C1-H13=109.19              H15-C1-C2=109.60               
H15-C1-H13=107.21              H15-C1-H14=109.83              C3-C2-C1=124.20                C4-C2-C1=114.34                
C4-C2-C3=121.44                H16-C3-C2=121.27               H17-C3-C2=121.81               H17-C3-H16=116.92              
O5-C4-C2=123.99                O6-C4-C2=111.71                O6-C4-O5=124.29                C7-O6-C4=120.42                
C8-C7-O6=116.92                C12-C7-O6=122.41               C12-C7-C8=120.62               C9-C8-C7=119.58                
H18-C8-C7=119.13               H18-C8-C9=121.30               C10-C9-C8=120.17               H19-C9-C8=119.64               
H19-C9-C10=120.19              C11-C10-C9=119.89              H20-C10-C9=120.03              H20-C10-C11=120.07             
 
 selected dihedral angles (degree)
 ---------------------------------
C3-C2-C1-H13=245.78           C3-C2-C1-H14=  6.69           C3-C2-C1-H15=128.20           C4-C2-C1-H13= 67.66           
C4-C2-C1-H14=188.57           C4-C2-C1-H15=310.08           H16-C3-C2-C1=  0.52           H16-C3-C2-C4=178.51           
H17-C3-C2-C1=180.81           H17-C3-C2-C4=358.80           O5-C4-C2-C1= 14.44            O5-C4-C2-C3=196.27            
O6-C4-C2-C1=195.36            O6-C4-C2-C3= 17.19            C7-O6-C4-C2=182.28            C7-O6-C4-O5=  3.20            
C8-C7-O6-C4=223.89            C12-C7-O6-C4= 46.57           C9-C8-C7-O6=182.30            C9-C8-C7-C12=359.67           
H18-C8-C7-O6=  2.32           H18-C8-C7-C12=179.69          C10-C9-C8-C7=359.86           C10-C9-C8-H18=179.84          
H19-C9-C8-C7=180.15           H19-C9-C8-H18=  0.13          C11-C10-C9-C8=  0.37          C11-C10-C9-H19=180.08         
H20-C10-C9-C8=180.31          H20-C10-C9-H19=  0.02         
           -------------------------------------------------
          |                Final Singlepoint                |
           -------------------------------------------------

          ...................................................
          :                      SETUP                      :
          :.................................................:
          :  # basis functions                  58          :
          :  # atomic orbitals                  58          :
          :  # shells                           34          :
          :  # electrons                        62          :
          :  max. iterations                   250          :
          :  Hamiltonian                  GFN2-xTB          :
          :  restarted?                      false          :
          :  GBSA solvation                  false          :
          :  PC potential                    false          :
          :  electronic temp.          300.0000000     K    :
          :  accuracy                    1.0000000          :
          :  -> integral cutoff          0.2500000E+02      :
          :  -> integral neglect         0.1000000E-07      :
          :  -> SCF convergence          0.1000000E-05 Eh   :
          :  -> wf. convergence          0.1000000E-03 e    :
          :  Broyden damping             0.4000000          :
          :  net charge                          0          :
          :  unpaired electrons                  0          :
          ...................................................

 iter      E             dE          RMSdq      gap      omega  full diag
   1    -35.1452454 -0.351452E+02  0.642E-05    3.54       0.0  T
   2    -35.1452454 -0.767386E-11  0.420E-05    3.54     507.8  T
   3    -35.1452454 -0.513012E-11  0.265E-05    3.54     803.3  T

   *** convergence criteria satisfied after 3 iterations ***

         #    Occupation            Energy/Eh            Energy/eV
      -------------------------------------------------------------
         1        2.0000           -0.7437616             -20.2388
       ...           ...                  ...                  ...
        25        2.0000           -0.4580955             -12.4654
        26        2.0000           -0.4451160             -12.1122
        27        2.0000           -0.4301256             -11.7043
        28        2.0000           -0.4199115             -11.4264
        29        2.0000           -0.4154526             -11.3050
        30        2.0000           -0.4101428             -11.1606
        31        2.0000           -0.4027713             -10.9600 (HOMO)
        32                         -0.2727043              -7.4207 (LUMO)
        33                         -0.2325948              -6.3292
        34                         -0.2272372              -6.1834
        35                         -0.1664293              -4.5288
        36                         -0.0996617              -2.7119
       ...                                ...                  ...
        58                          0.7081150              19.2688
      -------------------------------------------------------------
                  HL-Gap            0.1300670 Eh            3.5393 eV
             Fermi-level           -0.3377378 Eh           -9.1903 eV

 SCC (total)                   0 d,  0 h,  0 min,  0.007 sec
 SCC setup                      ...        0 min,  0.000 sec (  1.316%)
 Dispersion                     ...        0 min,  0.000 sec (  2.301%)
 classical contributions        ...        0 min,  0.000 sec (  0.855%)
 integral evaluation            ...        0 min,  0.001 sec (  9.429%)
 iterations                     ...        0 min,  0.004 sec ( 52.857%)
 molecular gradient             ...        0 min,  0.002 sec ( 31.122%)
 printout                       ...        0 min,  0.000 sec (  1.801%)

         :::::::::::::::::::::::::::::::::::::::::::::::::::::
         ::                     SUMMARY                     ::
         :::::::::::::::::::::::::::::::::::::::::::::::::::::
         :: total energy             -34.614488554281 Eh    ::
         :: gradient norm              0.000644658748 Eh/a0 ::
         :: HOMO-LUMO gap              3.539302525672 eV    ::
         ::.................................................::
         :: SCC energy               -35.145287826555 Eh    ::
         :: -> isotropic ES            0.044732061330 Eh    ::
         :: -> anisotropic ES          0.001309204293 Eh    ::
         :: -> anisotropic XC          0.014610118970 Eh    ::
         :: -> dispersion             -0.018151091677 Eh    ::
         :: repulsion energy           0.530799272274 Eh    ::
         :: add. restraining           0.000000000000 Eh    ::
         :: total charge              -0.000000000000 e     ::
         :::::::::::::::::::::::::::::::::::::::::::::::::::::

           -------------------------------------------------
          |                Property Printout                |
           -------------------------------------------------

    * Orbital Energies and Occupations

         #    Occupation            Energy/Eh            Energy/eV
      -------------------------------------------------------------
         1        2.0000           -0.7437616             -20.2388
       ...           ...                  ...                  ...
        19        2.0000           -0.4945958             -13.4586
        20        2.0000           -0.4897259             -13.3261
        21        2.0000           -0.4857882             -13.2190
        22        2.0000           -0.4818768             -13.1125
        23        2.0000           -0.4693571             -12.7719
        24        2.0000           -0.4667124             -12.6999
        25        2.0000           -0.4580955             -12.4654
        26        2.0000           -0.4451160             -12.1122
        27        2.0000           -0.4301256             -11.7043
        28        2.0000           -0.4199115             -11.4264
        29        2.0000           -0.4154526             -11.3050
        30        2.0000           -0.4101428             -11.1606
        31        2.0000           -0.4027713             -10.9600 (HOMO)
        32                         -0.2727043              -7.4207 (LUMO)
        33                         -0.2325948              -6.3292
        34                         -0.2272372              -6.1834
        35                         -0.1664293              -4.5288
        36                         -0.0996617              -2.7119
        37                          0.0167527               0.4559
        38                          0.1066363               2.9017
        39                          0.1137630               3.0956
        40                          0.1208827               3.2894
        41                          0.1445932               3.9346
        42                          0.1660485               4.5184
       ...                                ...                  ...
        58                          0.7081150              19.2688
      -------------------------------------------------------------
                  HL-Gap            0.1300670 Eh            3.5393 eV
             Fermi-level           -0.3377378 Eh           -9.1903 eV

     #   Z          covCN         q      C6AA      α(0)
     1   6 C        3.759    -0.111    22.668     6.788
     2   6 C        2.938    -0.007    28.204     8.710
     3   6 C        2.844    -0.081    30.016     8.979
     4   6 C        2.721     0.354    20.989     7.500
     5   8 O        0.856    -0.404    21.765     6.255
     6   8 O        1.708    -0.258    18.281     5.773
     7   6 C        2.872     0.146    24.821     8.167
     8   6 C        2.919    -0.046    29.130     8.851
     9   6 C        2.921    -0.028    28.698     8.785
    10   6 C        2.919    -0.033    28.817     8.803
    11   6 C        2.923    -0.027    28.676     8.782
    12   6 C        2.917    -0.040    29.006     8.832
    13   1 H        0.925     0.061     2.187     2.313
    14   1 H        0.925     0.051     2.303     2.373
    15   1 H        0.925     0.070     2.084     2.258
    16   1 H        0.926     0.056     2.251     2.346
    17   1 H        0.926     0.061     2.184     2.311
    18   1 H        0.926     0.051     2.312     2.378
    19   1 H        0.926     0.043     2.415     2.430
    20   1 H        0.926     0.041     2.436     2.441
    21   1 H        0.926     0.044     2.394     2.420
    22   1 H        0.926     0.058     2.228     2.334

 Mol. C6AA /au·bohr⁶  :       5754.858253
 Mol. C8AA /au·bohr⁸  :     138003.723467
 Mol. α(0) /au        :        119.825732


Wiberg/Mayer (AO) data.
largest (>0.10) Wiberg bond orders for each atom

 ---------------------------------------------------------------------------
     #   Z sym  total        # sym  WBO       # sym  WBO       # sym  WBO
 ---------------------------------------------------------------------------
     1   6 C    3.993 --     2 C    1.029    14 H    0.984    15 H    0.967
                            13 H    0.965
     2   6 C    3.986 --     3 C    1.878     1 C    1.029     4 C    0.992
     3   6 C    3.987 --     2 C    1.878    16 H    0.974    17 H    0.973
     4   6 C    3.915 --     5 O    1.742     6 O    1.091     2 C    0.992
     5   8 O    2.047 --     4 C    1.742     6 O    0.162
     6   8 O    2.346 --     4 C    1.091     7 C    0.974     5 O    0.162
     7   6 C    3.918 --    12 C    1.396     8 C    1.386     6 O    0.974
                            10 C    0.102
     8   6 C    3.989 --     9 C    1.450     7 C    1.386    18 H    0.968
                            11 C    0.111
     9   6 C    3.991 --     8 C    1.450    10 C    1.433    19 H    0.970
                            12 C    0.110
    10   6 C    3.991 --    11 C    1.442     9 C    1.433    20 H    0.971
                             7 C    0.102
    11   6 C    3.991 --    10 C    1.442    12 C    1.439    21 H    0.970
                             8 C    0.111
    12   6 C    3.990 --    11 C    1.439     7 C    1.396    22 H    0.967
                             9 C    0.110
    13   1 H    0.996 --     1 C    0.965
    14   1 H    0.997 --     1 C    0.984
    15   1 H    0.995 --     1 C    0.967
    16   1 H    0.997 --     3 C    0.974
    17   1 H    0.996 --     3 C    0.973
    18   1 H    0.997 --     8 C    0.968
    19   1 H    0.998 --     9 C    0.970
    20   1 H    0.998 --    10 C    0.971
    21   1 H    0.998 --    11 C    0.970
    22   1 H    0.997 --    12 C    0.967
 ---------------------------------------------------------------------------

Topologies differ in total number of bonds
Writing topology from bond orders to xtbtopo.mol

molecular dipole:
                 x           y           z       tot (Debye)
 q only:       -0.082      -0.437      -0.505
   full:       -0.148      -0.492      -0.572       1.954
molecular quadrupole (traceless):
                xx          xy          yy          xz          yz          zz
 q only:       10.260      -0.602      -5.545       0.021      -2.352      -4.716
  q+dip:       11.121       0.222      -8.024       0.744      -3.734      -3.097
   full:        9.684      -0.133      -5.456       0.412      -4.122      -4.229

           -------------------------------------------------
          |                Geometry Summary                 |
           -------------------------------------------------

      molecular mass/u    :      162.1855763
   center of mass at/Å    :        0.1813383       0.0110814       0.1673890
  moments of inertia/u·Å² :        0.1855422E+03   0.1021537E+04   0.1123663E+04
rotational constants/cm⁻¹ :        0.9085603E-01   0.1650223E-01   0.1500239E-01

 * 20 selected distances

     #   Z          #   Z                                           value/Å
     2   6 C        3   6 C                                       1.3285390
     4   6 C        5   8 O                                       1.2048568
     4   6 C        6   8 O                                       1.3473968
     6   8 O        7   6 C                                       1.3891758 (max)
     7   6 C        8   6 C                                       1.3889071
     8   6 C        9   6 C                                       1.3822007
     9   6 C       10   6 C                                       1.3852744
    10   6 C       11   6 C                                       1.3838302
     7   6 C       12   6 C                                       1.3868048
    11   6 C       12   6 C                                       1.3842331
     1   6 C       13   1 H                                       1.0893993
     1   6 C       14   1 H                                       1.0860095
     1   6 C       15   1 H                                       1.0882643
     3   6 C       16   1 H                                       1.0773325
     3   6 C       17   1 H                                       1.0756992 (min)
     8   6 C       18   1 H                                       1.0790236
     9   6 C       19   1 H                                       1.0796360
    10   6 C       20   1 H                                       1.0795845
    11   6 C       21   1 H                                       1.0795733
    12   6 C       22   1 H                                       1.0782003

 * 3 distinct bonds (by element types)

   Z      Z             #   av. dist./Å        max./Å        min./Å
   1 H    6 C          10     1.0812723     1.0893993     1.0756992
   6 C    6 C           7     1.3771128     1.3889071     1.3285390
   6 C    8 O           3     1.3138098     1.3891758     1.2048568


optimized geometry written to: xtbopt.xyz


           -------------------------------------------------
          | TOTAL ENERGY              -34.614488554281 Eh   |
          | GRADIENT NORM               0.000644658748 Eh/α |
          | HOMO-LUMO GAP               3.539302525672 eV   |
           -------------------------------------------------
########################################################################
[WARNING] Runtime exception occurred
-2- restart_readRestart: Dimension missmatch in restart file.
-1- restart_readRestart: Number of electron missmatch in restart file.
########################################################################

------------------------------------------------------------------------
 * finished run on 2025/12/01 at 14:22:52.226     
------------------------------------------------------------------------
 total:
 * wall-time:     0 d,  0 h,  0 min,  0.618 sec
 *  cpu-time:     0 d,  0 h,  0 min, 14.071 sec
 * ratio c/w:    22.758 speedup
 SCF:
 * wall-time:     0 d,  0 h,  0 min,  0.020 sec
 *  cpu-time:     0 d,  0 h,  0 min,  0.450 sec
 * ratio c/w:    22.297 speedup
 ANC optimizer:
 * wall-time:     0 d,  0 h,  0 min,  0.591 sec
 *  cpu-time:     0 d,  0 h,  0 min, 13.498 sec
 * ratio c/w:    22.836 speedup

normal termination of xtb
