      -----------------------------------------------------------      
     |                   =====================                   |     
     |                           x T B                           |     
     |                   =====================                   |     
     |                         S. Grimme                         |     
     |          Mulliken Center for Theoretical Chemistry        |     
     |                    University of Bonn                     |     
      -----------------------------------------------------------      

   * xtb version 6.7.1 (edcfbbe) compiled by 'albert@albert-system' on 2024-07-22

   xtb is free software: you can redistribute it and/or modify it under
   the terms of the GNU Lesser General Public License as published by
   the Free Software Foundation, either version 3 of the License, or
   (at your option) any later version.
   
   xtb is distributed in the hope that it will be useful,
   but WITHOUT ANY WARRANTY; without even the implied warranty of
   MERCHANTABILITY or FITNESS FOR A PARTICULAR PURPOSE.  See the
   GNU Lesser General Public License for more details.
   
   Cite this work as:
   * C. Bannwarth, E. Caldeweyher, S. Ehlert, A. Hansen, P. Pracht,
     J. Seibert, S. Spicher, S. Grimme, WIREs Comput. Mol. Sci., 2020, 11,
     e01493. DOI: 10.1002/wcms.1493
   
   for GFN2-xTB:
   * C. Bannwarth, S. Ehlert and S. Grimme., J. Chem. Theory Comput., 2019,
     15, 1652-1671. DOI: 10.1021/acs.jctc.8b01176
   for GFN1-xTB:
   * S. Grimme, C. Bannwarth, P. Shushkov, J. Chem. Theory Comput., 2017,
     13, 1989-2009. DOI: 10.1021/acs.jctc.7b00118
   for GFN0-xTB:
   * P. Pracht, E. Caldeweyher, S. Ehlert, S. Grimme, ChemRxiv, 2019, preprint.
     DOI: 10.26434/chemrxiv.8326202.v1
   for GFN-FF:
   * S. Spicher and S. Grimme, Angew. Chem. Int. Ed., 2020, 59, 15665-15673.
     DOI: 10.1002/anie.202004239
   
   for ALPB and GBSA implicit solvation:
   * S. Ehlert, M. Stahn, S. Spicher, S. Grimme, J. Chem. Theory Comput.,
     2021, 17, 4250-4261. DOI: 10.1021/acs.jctc.1c00471
   
   for ddCOSMO and CPCM-X implicit solvation:
   * M. Stahn, S. Ehlert, S. Grimme, J. Phys. Chem. A,
     2023, XX, XXXX-XXXX. DOI: 10.1021/acs.jpca.3c04382
   
   for DFT-D4:
   * E. Caldeweyher, C. Bannwarth and S. Grimme, J. Chem. Phys., 2017,
     147, 034112. DOI: 10.1063/1.4993215
   * E. Caldeweyher, S. Ehlert, A. Hansen, H. Neugebauer, S. Spicher,
     C. Bannwarth and S. Grimme, J. Chem. Phys., 2019, 150, 154122.
     DOI: 10.1063/1.5090222
   * E. Caldeweyher, J.-M. Mewes, S. Ehlert and S. Grimme, Phys. Chem. Chem. Phys.
     2020, 22, 8499-8512. DOI: 10.1039/D0CP00502A
   
   for sTDA-xTB:
   * S. Grimme and C. Bannwarth, J. Chem. Phys., 2016, 145, 054103.
     DOI: 10.1063/1.4959605
   
   in the mass-spec context:
   * V. Asgeirsson, C. Bauer and S. Grimme, Chem. Sci., 2017, 8, 4879.
     DOI: 10.1039/c7sc00601b
   * J. Koopman and S. Grimme, ACS Omega 2019, 4, 12, 15120-15133.
     DOI: 10.1021/acsomega.9b02011
   
   for metadynamics refer to:
   * S. Grimme, J. Chem. Theory Comput., 2019, 155, 2847-2862
     DOI: 10.1021/acs.jctc.9b00143
   
   for SPH calculations refer to:
   * S. Spicher and S. Grimme, J. Chem. Theory Comput., 2021, 17, 1701-1714
     DOI: 10.1021/acs.jctc.0c01306
   
   for ONIOM refer to:
   * C. Plett, A. Katbashev, S. Ehlert, S. Grimme, M. Bursch,
     Phys. Chem. Chem. Phys., 2023, 25, 17860-17868. DOI: 10.1039/D3CP02178E
   
   for DIPRO refer to:
   * J. Kohn, N. Gildemeister, S. Grimme, D. Fazzi, A. Hansen,
     J. Chem. Phys., 2023, just accepted.
   
   for PTB refer to:
   * S. Grimme, M. Mueller, A. Hansen, J. Chem. Phys., 2023, 158, 124111.
     DOI: 10.1063/5.0137838
   
   with help from (in alphabetical order)
   P. Atkinson, C. Bannwarth, F. Bohle, G. Brandenburg, E. Caldeweyher
   M. Checinski, S. Dohm, S. Ehlert, S. Ehrlich, I. Gerasimov, C. Hölzer
   A. Katbashev, J. Kohn, J. Koopman, C. Lavigne, S. Lehtola, F. März, M. Müller,
   F. Musil, H. Neugebauer, J. Pisarek, C. Plett, P. Pracht, F. Pultar,
   J. Seibert, P. Shushkov, S. Spicher, M. Stahn, M. Steiner, T. Strunk,
   J. Stückrath, T. Rose, and J. Unsleber
   
 * started run on 2025/12/01 at 14:22:53.382     
   ID    Z sym.   atoms
    1    6 C      1-4, 7, 8
    2    8 O      5, 6
    3    9 F      9-11
    4    1 H      12-18

           -------------------------------------------------
          |                Calculation Setup                |
           -------------------------------------------------

          program call               : xtb pipeline_data/3_conformer_xyz/acrylates/rdkit/QTKPMCIBUROOGY-UHFFFAOYSA-N_conf146.xyz --opt --gfn 2-xTB --iterations 250
          coordinate file            : pipeline_data/3_conformer_xyz/acrylates/rdkit/QTKPMCIBUROOGY-UHFFFAOYSA-N_conf146.xyz
          omp threads                :                    24

########################################################################
[WARNING] Please study the warnings concerning your input carefully
-1- readin_getIntValue: could not parse '2-xTB'
########################################################################

           -------------------------------------------------
          |                 G F N 2 - x T B                 |
           -------------------------------------------------

        Reference                      10.1021/acs.jctc.8b01176
      * Hamiltonian:
        H0-scaling (s, p, d)           1.850000    2.230000    2.230000
        zeta-weighting                 0.500000
      * Dispersion:
        s8                             2.700000
        a1                             0.520000
        a2                             5.000000
        s9                             5.000000
      * Repulsion:
        kExp                           1.500000    1.000000
        rExp                           1.000000
      * Coulomb:
        alpha                          2.000000
        third order                    shell-resolved
        anisotropic                    true
        a3                             3.000000
        a5                             4.000000
        cn-shift                       1.200000
        cn-exp                         4.000000
        max-rad                        5.000000

q/qsh data taken from xtbrestart
CAMM data taken from xtbrestart

          ...................................................
          :                      SETUP                      :
          :.................................................:
          :  # basis functions                  51          :
          :  # atomic orbitals                  51          :
          :  # shells                           29          :
          :  # electrons                        64          :
          :  max. iterations                   250          :
          :  Hamiltonian                  GFN2-xTB          :
          :  restarted?                       true          :
          :  GBSA solvation                  false          :
          :  PC potential                    false          :
          :  electronic temp.          300.0000000     K    :
          :  accuracy                    1.0000000          :
          :  -> integral cutoff          0.2500000E+02      :
          :  -> integral neglect         0.1000000E-07      :
          :  -> SCF convergence          0.1000000E-05 Eh   :
          :  -> wf. convergence          0.1000000E-03 e    :
          :  Broyden damping             0.4000000          :
          :  net charge                          0          :
          :  unpaired electrons                  0          :
          ...................................................

 iter      E             dE          RMSdq      gap      omega  full diag
   1    -38.9651345 -0.389651E+02  0.318E+00    3.47       0.0  T
   2    -38.9752556 -0.101211E-01  0.194E+00    3.40       1.0  T
   3    -38.9756016 -0.345957E-03  0.479E-01    3.49       1.0  T
   4    -38.9764756 -0.874033E-03  0.242E-01    3.45       1.0  T
   5    -38.9771153 -0.639695E-03  0.125E-01    3.47       1.0  T
   6    -38.9771692 -0.538311E-04  0.414E-02    3.45       1.0  T
   7    -38.9771805 -0.113359E-04  0.906E-03    3.46       2.6  T
   8    -38.9771809 -0.439391E-06  0.477E-03    3.46       4.9  T
   9    -38.9771810 -0.895528E-07  0.175E-03    3.46      13.5  T
  10    -38.9771810 -0.565909E-08  0.785E-04    3.46      30.0  T
  11    -38.9771810 -0.124987E-08  0.232E-04    3.46     101.8  T

   *** convergence criteria satisfied after 11 iterations ***

         #    Occupation            Energy/Eh            Energy/eV
      -------------------------------------------------------------
         1        2.0000           -0.8889678             -24.1900
       ...           ...                  ...                  ...
        26        2.0000           -0.5045972             -13.7308
        27        2.0000           -0.4955619             -13.4849
        28        2.0000           -0.4821558             -13.1201
        29        2.0000           -0.4694558             -12.7745
        30        2.0000           -0.4664545             -12.6929
        31        2.0000           -0.4361374             -11.8679
        32        2.0000           -0.4323280             -11.7642 (HOMO)
        33                         -0.3051208              -8.3028 (LUMO)
        34                         -0.1908171              -5.1924
        35                         -0.0974516              -2.6518
        36                         -0.0524452              -1.4271
        37                         -0.0267569              -0.7281
       ...                                ...                  ...
        51                          0.5847879              15.9129
      -------------------------------------------------------------
                  HL-Gap            0.1272072 Eh            3.4615 eV
             Fermi-level           -0.3687244 Eh          -10.0335 eV

 SCC (total)                   0 d,  0 h,  0 min,  0.037 sec
 SCC setup                      ...        0 min,  0.000 sec (  0.512%)
 Dispersion                     ...        0 min,  0.000 sec (  0.392%)
 classical contributions        ...        0 min,  0.000 sec (  0.046%)
 integral evaluation            ...        0 min,  0.001 sec (  1.759%)
 iterations                     ...        0 min,  0.034 sec ( 92.966%)
 molecular gradient             ...        0 min,  0.001 sec (  3.855%)
 printout                       ...        0 min,  0.000 sec (  0.384%)

         :::::::::::::::::::::::::::::::::::::::::::::::::::::
         ::                     SUMMARY                     ::
         :::::::::::::::::::::::::::::::::::::::::::::::::::::
         :: total energy             -38.708789577254 Eh    ::
         :: gradient norm              0.160682700224 Eh/a0 ::
         :: HOMO-LUMO gap              3.461484935032 eV    ::
         ::.................................................::
         :: SCC energy               -38.977177781166 Eh    ::
         :: -> isotropic ES            0.088708898606 Eh    ::
         :: -> anisotropic ES          0.001514914806 Eh    ::
         :: -> anisotropic XC         -0.010616529358 Eh    ::
         :: -> dispersion             -0.011616997431 Eh    ::
         :: repulsion energy           0.268388203913 Eh    ::
         :: add. restraining           0.000000000000 Eh    ::
         :: total charge              -0.000000000000 e     ::
         :::::::::::::::::::::::::::::::::::::::::::::::::::::

      ----------------------------------------------------------- 
     |                   =====================                   |
     |                        A N C O P T                        |
     |                   =====================                   |
     |               Approximate Normal Coordinate               |
     |                Rational Function Optimizer                |
      ----------------------------------------------------------- 
      ----------------------------------------------------------- 
     |                   =====================                   |
     |                        A N C O P T                        |
     |                   =====================                   |
     |               Approximate Normal Coordinate               |
     |                Rational Function Optimizer                |
      ----------------------------------------------------------- 

          ...................................................
          :                      SETUP                      :
          :.................................................:
          :   optimization level            normal          :
          :   max. optcycles                   200          :
          :   ANC micro-cycles                  20          :
          :   degrees of freedom                48          :
          :.................................................:
          :   RF solver                   davidson          :
          :   write xtbopt.log                true          :
          :   linear?                        false          :
          :   energy convergence         0.5000000E-05 Eh   :
          :   grad. convergence          0.1000000E-02 Eh/α :
          :   maxmium RF displ.          1.0000000          :
          :   Hlow (freq-cutoff)         0.1000000E-01      :
          :   Hmax (freq-cutoff)         5.0000000          :
          :   S6 in model hess.         20.0000000          :
          ...................................................

generating ANC from exact Hessian ...
Using Lindh-Hessian (1995)
 Shifting diagonal of input Hessian by   8.595446086899730E-003
 Lowest  eigenvalues of input Hessian
    0.000000    0.000000    0.000000    0.000000    0.000000    0.000000
    0.010000    0.010935    0.012037    0.016903    0.018239    0.020362
    0.022270    0.026993    0.027642    0.036595    0.040644    0.056505
 Highest eigenvalues
    1.470590    1.542899    1.633066    1.773136    1.855566    2.067901
 

........................................................................
.............................. CYCLE    1 ..............................
........................................................................

 iter      E             dE          RMSdq      gap      omega  full diag
   1    -38.9771810 -0.389772E+02  0.713E-05    3.46       0.0  T
   2    -38.9771810 -0.129816E-10  0.419E-05    3.46     562.9  T
   3    -38.9771810  0.230926E-11  0.284E-05    3.46     830.9  T
     SCC iter.                  ...        0 min,  0.003 sec
     gradient                   ...        0 min,  0.001 sec
 * total energy  :   -38.7087896 Eh     change       -0.1031140E-09 Eh
   gradient norm :     0.1606821 Eh/α   predicted     0.0000000E+00 (-100.00%)
   displ. norm   :     0.3179496 α      lambda       -0.2973227E-01
   maximum displ.:     0.1248609 α      in ANC's #30, #31, #8, ...

........................................................................
.............................. CYCLE    2 ..............................
........................................................................

 iter      E             dE          RMSdq      gap      omega  full diag
   1    -39.0207876 -0.390208E+02  0.349E-01    3.70       0.0  T
   2    -39.0212500 -0.462356E-03  0.217E-01    3.73       1.0  T
   3    -39.0212307  0.192351E-04  0.112E-01    3.74       1.0  T
   4    -39.0212536 -0.229150E-04  0.604E-02    3.73       1.0  T
   5    -39.0212996 -0.459730E-04  0.128E-02    3.73       1.8  T
   6    -39.0213004 -0.818473E-06  0.622E-03    3.73       3.8  T
   7    -39.0213006 -0.131660E-06  0.196E-03    3.73      12.0  T
   8    -39.0213006 -0.103261E-07  0.876E-04    3.73      26.9  T
   9    -39.0213006 -0.175481E-08  0.210E-04    3.73     112.5  T
     SCC iter.                  ...        0 min,  0.007 sec
     gradient                   ...        0 min,  0.002 sec
 * total energy  :   -38.7295120 Eh     change       -0.2072246E-01 Eh
   gradient norm :     0.0679750 Eh/α   predicted    -0.1636898E-01 ( -21.01%)
   displ. norm   :     0.2938292 α      lambda       -0.8900599E-02
   maximum displ.:     0.1527600 α      in ANC's #8, #7, #11, ...

........................................................................
.............................. CYCLE    3 ..............................
........................................................................

 iter      E             dE          RMSdq      gap      omega  full diag
   1    -39.0442969 -0.390443E+02  0.265E-01    3.89       0.0  T
   2    -39.0445395 -0.242581E-03  0.158E-01    3.85       1.0  T
   3    -39.0445395 -0.243390E-07  0.703E-02    3.85       1.0  T
   4    -39.0445376  0.194783E-05  0.345E-02    3.84       1.0  T
   5    -39.0445535 -0.159840E-04  0.788E-03    3.85       3.0  T
   6    -39.0445539 -0.383492E-06  0.274E-03    3.85       8.6  T
   7    -39.0445540 -0.183728E-07  0.946E-04    3.85      24.9  T
   8    -39.0445540 -0.197134E-08  0.456E-04    3.85      51.7  T
     SCC iter.                  ...        0 min,  0.007 sec
     gradient                   ...        0 min,  0.001 sec
 * total energy  :   -38.7342206 Eh     change       -0.4708580E-02 Eh
   gradient norm :     0.0186224 Eh/α   predicted    -0.4834518E-02 (   2.67%)
   displ. norm   :     0.1529248 α      lambda       -0.8617446E-03
   maximum displ.:     0.0952181 α      in ANC's #7, #8, #11, ...

........................................................................
.............................. CYCLE    4 ..............................
........................................................................

 iter      E             dE          RMSdq      gap      omega  full diag
   1    -39.0435291 -0.390435E+02  0.764E-02    3.82       0.0  T
   2    -39.0435416 -0.125143E-04  0.487E-02    3.83       1.0  T
   3    -39.0435371  0.448750E-05  0.296E-02    3.83       1.0  T
   4    -39.0435432 -0.611205E-05  0.992E-03    3.83       2.4  T
   5    -39.0435445 -0.123609E-05  0.166E-03    3.83      14.2  T
   6    -39.0435445 -0.137294E-07  0.816E-04    3.83      28.9  T
   7    -39.0435445 -0.130889E-08  0.267E-04    3.83      88.4  T
     SCC iter.                  ...        0 min,  0.006 sec
     gradient                   ...        0 min,  0.002 sec
 * total energy  :   -38.7347917 Eh     change       -0.5711307E-03 Eh
   gradient norm :     0.0065121 Eh/α   predicted    -0.4409470E-03 ( -22.79%)
   displ. norm   :     0.1302252 α      lambda       -0.2879860E-03
   maximum displ.:     0.0856128 α      in ANC's #7, #8, #3, ...

........................................................................
.............................. CYCLE    5 ..............................
........................................................................

 iter      E             dE          RMSdq      gap      omega  full diag
   1    -39.0435527 -0.390436E+02  0.488E-02    3.83       0.0  T
   2    -39.0435566 -0.393178E-05  0.299E-02    3.84       1.0  T
   3    -39.0435567 -0.662148E-07  0.931E-03    3.84       2.5  T
   4    -39.0435568 -0.760201E-07  0.414E-03    3.84       5.7  T
   5    -39.0435569 -0.179673E-06  0.158E-03    3.84      14.9  T
   6    -39.0435570 -0.222960E-07  0.508E-04    3.84      46.4  T
   7    -39.0435570 -0.168611E-08  0.194E-04    3.84     121.4  T
     SCC iter.                  ...        0 min,  0.006 sec
     gradient                   ...        0 min,  0.001 sec
 * total energy  :   -38.7349633 Eh     change       -0.1715724E-03 Eh
   gradient norm :     0.0037819 Eh/α   predicted    -0.1464346E-03 ( -14.65%)
   displ. norm   :     0.0617706 α      lambda       -0.6311167E-04
   maximum displ.:     0.0349506 α      in ANC's #7, #3, #10, ...

........................................................................
.............................. CYCLE    6 ..............................
........................................................................

 iter      E             dE          RMSdq      gap      omega  full diag
   1    -39.0438346 -0.390438E+02  0.252E-02    3.84       0.0  T
   2    -39.0438352 -0.559011E-06  0.153E-02    3.84       1.5  T
   3    -39.0438347  0.517330E-06  0.764E-03    3.84       3.1  T
   4    -39.0438353 -0.643035E-06  0.248E-03    3.84       9.5  T
   5    -39.0438354 -0.542147E-07  0.724E-04    3.84      32.6  T
   6    -39.0438354 -0.320693E-08  0.241E-04    3.84      97.8  T
     SCC iter.                  ...        0 min,  0.005 sec
     gradient                   ...        0 min,  0.004 sec
 * total energy  :   -38.7350027 Eh     change       -0.3935100E-04 Eh
   gradient norm :     0.0024050 Eh/α   predicted    -0.3167560E-04 ( -19.50%)
   displ. norm   :     0.0559359 α      lambda       -0.3450884E-04
   maximum displ.:     0.0322152 α      in ANC's #3, #4, #9, ...

........................................................................
.............................. CYCLE    7 ..............................
........................................................................

 iter      E             dE          RMSdq      gap      omega  full diag
   1    -39.0441080 -0.390441E+02  0.273E-02    3.84       0.0  T
   2    -39.0441082 -0.239862E-06  0.163E-02    3.85       1.4  T
   3    -39.0441072  0.959679E-06  0.932E-03    3.85       2.5  T
   4    -39.0441084 -0.113580E-05  0.136E-03    3.85      17.3  T
   5    -39.0441084 -0.668327E-08  0.448E-04    3.85      52.7  T
   6    -39.0441084 -0.104347E-08  0.189E-04    3.85     124.5  T
     SCC iter.                  ...        0 min,  0.008 sec
     gradient                   ...        0 min,  0.004 sec
 * total energy  :   -38.7350242 Eh     change       -0.2155534E-04 Eh
   gradient norm :     0.0016506 Eh/α   predicted    -0.1731025E-04 ( -19.69%)
   displ. norm   :     0.0652761 α      lambda       -0.1716233E-04
   maximum displ.:     0.0402945 α      in ANC's #4, #3, #5, ...

........................................................................
.............................. CYCLE    8 ..............................
........................................................................

 iter      E             dE          RMSdq      gap      omega  full diag
   1    -39.0443640 -0.390444E+02  0.295E-02    3.85       0.0  T
   2    -39.0443643 -0.350633E-06  0.177E-02    3.85       1.3  T
   3    -39.0443634  0.904989E-06  0.917E-03    3.85       2.6  T
   4    -39.0443644 -0.104740E-05  0.156E-03    3.85      15.1  T
   5    -39.0443645 -0.224746E-07  0.524E-04    3.85      45.0  T
   6    -39.0443645 -0.933987E-09  0.189E-04    3.85     125.0  T
     SCC iter.                  ...        0 min,  0.008 sec
     gradient                   ...        0 min,  0.004 sec
 * total energy  :   -38.7350404 Eh     change       -0.1616769E-04 Eh
   gradient norm :     0.0017388 Eh/α   predicted    -0.8597775E-05 ( -46.82%)
   displ. norm   :     0.0706201 α      lambda       -0.1419162E-04
   maximum displ.:     0.0512230 α      in ANC's #4, #3, #5, ...

........................................................................
.............................. CYCLE    9 ..............................
........................................................................

 iter      E             dE          RMSdq      gap      omega  full diag
   1    -39.0442440 -0.390442E+02  0.290E-02    3.85       0.0  T
   2    -39.0442443 -0.218351E-06  0.172E-02    3.85       1.4  T
   3    -39.0442443  0.703189E-09  0.225E-03    3.85      10.5  T
   4    -39.0442443 -0.351588E-07  0.771E-04    3.85      30.6  T
   5    -39.0442443 -0.184387E-08  0.446E-04    3.85      52.9  T
     SCC iter.                  ...        0 min,  0.006 sec
     gradient                   ...        0 min,  0.001 sec
 * total energy  :   -38.7350553 Eh     change       -0.1485704E-04 Eh
   gradient norm :     0.0016178 Eh/α   predicted    -0.7112938E-05 ( -52.12%)
   displ. norm   :     0.1162270 α      lambda       -0.1870055E-04
   maximum displ.:     0.0890436 α      in ANC's #4, #3, #5, ...

........................................................................
.............................. CYCLE   10 ..............................
........................................................................

 iter      E             dE          RMSdq      gap      omega  full diag
   1    -39.0439173 -0.390439E+02  0.469E-02    3.85       0.0  T
   2    -39.0439176 -0.256296E-06  0.279E-02    3.85       1.0  T
   3    -39.0439175  0.104729E-06  0.379E-03    3.85       6.2  T
   4    -39.0439176 -0.159707E-06  0.172E-03    3.85      13.7  T
   5    -39.0439177 -0.267980E-07  0.650E-04    3.85      36.2  T
   6    -39.0439177 -0.144482E-08  0.233E-04    3.85     101.4  T
     SCC iter.                  ...        0 min,  0.005 sec
     gradient                   ...        0 min,  0.001 sec
 * total energy  :   -38.7350657 Eh     change       -0.1042589E-04 Eh
   gradient norm :     0.0022407 Eh/α   predicted    -0.9408019E-05 (  -9.76%)
   displ. norm   :     0.0282163 α      lambda       -0.1186817E-04
   maximum displ.:     0.0222039 α      in ANC's #4, #2, #1, ...

........................................................................
.............................. CYCLE   11 ..............................
........................................................................

 iter      E             dE          RMSdq      gap      omega  full diag
   1    -39.0441045 -0.390441E+02  0.103E-02    3.85       0.0  T
   2    -39.0441045 -0.214973E-07  0.619E-03    3.85       3.8  T
   3    -39.0441045  0.165654E-07  0.135E-03    3.85      17.5  T
   4    -39.0441045 -0.206802E-07  0.422E-04    3.85      55.8  T
   5    -39.0441045 -0.137997E-08  0.206E-04    3.85     114.6  T
     SCC iter.                  ...        0 min,  0.004 sec
     gradient                   ...        0 min,  0.001 sec
 * total energy  :   -38.7350747 Eh     change       -0.9013105E-05 Eh
   gradient norm :     0.0015200 Eh/α   predicted    -0.5939290E-05 ( -34.10%)
   displ. norm   :     0.0589815 α      lambda       -0.1249184E-04
   maximum displ.:     0.0405355 α      in ANC's #4, #2, #1, ...

........................................................................
.............................. CYCLE   12 ..............................
........................................................................

 iter      E             dE          RMSdq      gap      omega  full diag
   1    -39.0445111 -0.390445E+02  0.223E-02    3.85       0.0  T
   2    -39.0445113 -0.158628E-06  0.133E-02    3.85       1.8  T
   3    -39.0445113  0.183561E-07  0.233E-03    3.85      10.1  T
   4    -39.0445113 -0.408191E-07  0.923E-04    3.85      25.5  T
   5    -39.0445113 -0.480654E-08  0.525E-04    3.85      44.9  T
     SCC iter.                  ...        0 min,  0.004 sec
     gradient                   ...        0 min,  0.001 sec
 * total energy  :   -38.7350857 Eh     change       -0.1104524E-04 Eh
   gradient norm :     0.0011771 Eh/α   predicted    -0.6257463E-05 ( -43.35%)
   displ. norm   :     0.0580883 α      lambda       -0.6985639E-05
   maximum displ.:     0.0448706 α      in ANC's #4, #2, #1, ...

........................................................................
.............................. CYCLE   13 ..............................
........................................................................

 iter      E             dE          RMSdq      gap      omega  full diag
   1    -39.0443363 -0.390443E+02  0.191E-02    3.85       0.0  T
   2    -39.0443363 -0.468281E-07  0.114E-02    3.85       2.1  T
   3    -39.0443363  0.756725E-07  0.246E-03    3.85       9.6  T
   4    -39.0443363 -0.855628E-07  0.647E-04    3.85      36.4  T
   5    -39.0443364 -0.424522E-08  0.218E-04    3.85     108.1  T
     SCC iter.                  ...        0 min,  0.004 sec
     gradient                   ...        0 min,  0.001 sec
 * total energy  :   -38.7350945 Eh     change       -0.8811182E-05 Eh
   gradient norm :     0.0010569 Eh/α   predicted    -0.3496826E-05 ( -60.31%)
   displ. norm   :     0.1598664 α      lambda       -0.1624640E-04
   maximum displ.:     0.1241977 α      in ANC's #4, #2, #1, ...

........................................................................
.............................. CYCLE   14 ..............................
........................................................................

 iter      E             dE          RMSdq      gap      omega  full diag
   1    -39.0439663 -0.390440E+02  0.541E-02    3.85       0.0  T
   2    -39.0439665 -0.179257E-06  0.322E-02    3.85       1.0  T
   3    -39.0439662  0.288727E-06  0.502E-03    3.85       4.7  T
   4    -39.0439665 -0.355014E-06  0.127E-03    3.85      18.6  T
   5    -39.0439666 -0.107496E-07  0.558E-04    3.85      42.3  T
   6    -39.0439666 -0.305846E-09  0.191E-04    3.85     123.3  T
     SCC iter.                  ...        0 min,  0.007 sec
     gradient                   ...        0 min,  0.002 sec
 * total energy  :   -38.7351070 Eh     change       -0.1242825E-04 Eh
   gradient norm :     0.0014992 Eh/α   predicted    -0.8216028E-05 ( -33.89%)
   displ. norm   :     0.0107520 α      lambda       -0.3260192E-05
   maximum displ.:     0.0065190 α      in ANC's #4, #3, #7, ...

........................................................................
.............................. CYCLE   15 ..............................
........................................................................

 iter      E             dE          RMSdq      gap      omega  full diag
   1    -39.0443341 -0.390443E+02  0.621E-03    3.86       0.0  T
   2    -39.0443341 -0.487847E-07  0.353E-03    3.86       6.7  T
   3    -39.0443341  0.130293E-07  0.153E-03    3.86      15.4  T
   4    -39.0443341 -0.132498E-07  0.725E-04    3.86      32.5  T
   5    -39.0443341 -0.618967E-08  0.151E-04    3.86     156.4  T
     SCC iter.                  ...        0 min,  0.008 sec
     gradient                   ...        0 min,  0.002 sec
 * total energy  :   -38.7351101 Eh     change       -0.3089904E-05 Eh
   gradient norm :     0.0005951 Eh/α   predicted    -0.1631888E-05 ( -47.19%)
   displ. norm   :     0.0631010 α      lambda       -0.3369094E-05
   maximum displ.:     0.0547596 α      in ANC's #4, #2, #5, ...

   *** GEOMETRY OPTIMIZATION CONVERGED AFTER 15 ITERATIONS ***

------------------------------------------------------------------------
 total energy gain   :        -0.0263205 Eh      -16.5164 kcal/mol
 total RMSD          :         0.2466978 a0        0.1305 Å
 total power (kW/mol):        -4.6069620 (step) -487.8666 (real)
------------------------------------------------------------------------

 ANCopt (total)                0 d,  0 h,  0 min,  0.142 sec
 optimizer setup                ...        0 min,  0.000 sec (  0.059%)
 model hessian                  ...        0 min,  0.003 sec (  2.085%)
 ANC generation                 ...        0 min,  0.000 sec (  0.306%)
 coordinate transformation      ...        0 min,  0.000 sec (  0.080%)
 single point calculation       ...        0 min,  0.129 sec ( 91.294%)
 optimization log               ...        0 min,  0.005 sec (  3.376%)
 hessian update                 ...        0 min,  0.001 sec (  1.018%)
 rational function              ...        0 min,  0.002 sec (  1.365%)

================
 final structure:
================
18
 xtb: 6.7.1 (edcfbbe)
C           -2.95213811406591       -0.47426630371926        0.47651353898941
C           -1.64478056054993        0.22438397099247        0.27913920481619
C           -1.51854949458133        1.45815046511252       -0.20120924174953
C           -0.46169870755497       -0.57922405078521        0.66236188418590
O           -0.48774407336269       -1.72075140416446        1.04228918686003
O            0.70400390590550        0.10735163254377        0.54161875784991
C            1.86650068422810       -0.61106706358061        0.89062712815791
C            3.06085505174602        0.29206897347262        0.61519630140011
F            3.02601902160645        1.41645425381755        1.33427718536982
F            4.20759672463808       -0.33180360426258        0.92224573589555
F            3.14396454425819        0.64876907204494       -0.66856952871584
H           -2.93987973421796       -1.43402908723053       -0.03663035356037
H           -3.77384366365002        0.12909010748050        0.10314295106601
H           -3.10666513897509       -0.67764314656487        1.53512449338598
H           -0.55685490734806        1.92272031688008       -0.32677522158093
H           -2.38271095599177        2.03718444451143       -0.48074449604708
H            1.95860336234722       -1.52580374658040        0.29178614110665
H            1.85732305556818       -0.88158482996797        1.95384933257032
 
 Bond Distances (Angstroems)
 ---------------------------
C1-C2=1.4954         C1-H12=1.0884        C1-H13=1.0857        C1-H14=1.0890        C2-C1=1.4954         C2-C3=1.3300         
C2-C4=1.4807         C3-C2=1.3300         C3-H15=1.0754        C3-H16=1.0771        C4-C2=1.4807         C4-O5=1.2034         
C4-O6=1.3582         O5-C4=1.2034         O6-C4=1.3582         O6-C7=1.4104         C7-O6=1.4104         C7-C8=1.5225         
C7-H17=1.0972        C7-H18=1.0971        C8-C7=1.5225         C8-F9=1.3351         C8-F10=1.3411        C8-F11=1.3350        
F9-C8=1.3351         F10-C8=1.3411        F11-C8=1.3350        H12-C1=1.0884        H13-C1=1.0857        H14-C1=1.0890        
H15-C3=1.0754        H16-C3=1.0771        H17-C7=1.0972        H18-C7=1.0971        
 C  H  Rav=1.0871 sigma=0.0080  Rmin=1.0754  Rmax=1.0972     7
 C  C  Rav=1.4571 sigma=0.0749  Rmin=1.3300  Rmax=1.5225     4
 O  C  Rav=1.3240 sigma=0.0879  Rmin=1.2034  Rmax=1.4104     3
 F  C  Rav=1.3371 sigma=0.0028  Rmin=1.3350  Rmax=1.3411     3
 
 selected bond angles (degree)
 --------------------
H12-C1-C2=109.87               H13-C1-C2=110.90               H13-C1-H12=109.66              H14-C1-C2=109.85               
H14-C1-H12=107.17              H14-C1-H13=109.31              C3-C2-C1=124.34                C4-C2-C1=114.26                
C4-C2-C3=121.41                H15-C3-C2=121.86               H16-C3-C2=121.08               H16-C3-H15=117.06              
O5-C4-C2=125.40                O6-C4-C2=112.86                O6-C4-O5=121.75                C7-O6-C4=115.33                
C8-C7-O6=107.44                H17-C7-O6=111.03               H17-C7-C8=109.27               H18-C7-O6=111.01               
H18-C7-C8=109.16               H18-C7-H17=108.91              F9-C8-C7=112.44                F10-C8-C7=110.70               
F10-C8-F9=106.90               F11-C8-C7=112.41               F11-C8-F9=107.13               F11-C8-F10=106.93              
 
 selected dihedral angles (degree)
 ---------------------------------
C3-C2-C1-H12=125.86           C3-C2-C1-H13=  4.47           C3-C2-C1-H14=243.52           C4-C2-C1-H12=306.10           
C4-C2-C1-H13=184.71           C4-C2-C1-H14= 63.76           H15-C3-C2-C1=179.99           H15-C3-C2-C4=359.74           
H16-C3-C2-C1=  0.10           H16-C3-C2-C4=179.84           O5-C4-C2-C1=  3.55            O5-C4-C2-C3=183.78            
O6-C4-C2-C1=183.41            O6-C4-C2-C3=  3.64            C7-O6-C4-C2=180.15            C7-O6-C4-O5=  0.02            
C8-C7-O6-C4=176.83            H17-C7-O6-C4= 57.41           H18-C7-O6-C4=296.11           F9-C8-C7-O6= 60.70            
F9-C8-C7-H17=181.24           F9-C8-C7-H18=300.24           F10-C8-C7-O6=180.19           F10-C8-C7-H17=300.73          
F10-C8-C7-H18= 59.73          F11-C8-C7-O6=299.70           F11-C8-C7-H17= 60.24          F11-C8-C7-H18=179.24          
           -------------------------------------------------
          |                Final Singlepoint                |
           -------------------------------------------------

          ...................................................
          :                      SETUP                      :
          :.................................................:
          :  # basis functions                  51          :
          :  # atomic orbitals                  51          :
          :  # shells                           29          :
          :  # electrons                        64          :
          :  max. iterations                   250          :
          :  Hamiltonian                  GFN2-xTB          :
          :  restarted?                      false          :
          :  GBSA solvation                  false          :
          :  PC potential                    false          :
          :  electronic temp.          300.0000000     K    :
          :  accuracy                    1.0000000          :
          :  -> integral cutoff          0.2500000E+02      :
          :  -> integral neglect         0.1000000E-07      :
          :  -> SCF convergence          0.1000000E-05 Eh   :
          :  -> wf. convergence          0.1000000E-03 e    :
          :  Broyden damping             0.4000000          :
          :  net charge                          0          :
          :  unpaired electrons                  0          :
          ...................................................

 iter      E             dE          RMSdq      gap      omega  full diag
   1    -39.0443341 -0.390443E+02  0.474E-05    3.86       0.0  T
   2    -39.0443341 -0.399325E-11  0.266E-05    3.86     884.8  T
   3    -39.0443341  0.788702E-12  0.155E-05    3.86    1516.7  T

   *** convergence criteria satisfied after 3 iterations ***

         #    Occupation            Energy/Eh            Energy/eV
      -------------------------------------------------------------
         1        2.0000           -0.8971073             -24.4115
       ...           ...                  ...                  ...
        26        2.0000           -0.5024716             -13.6729
        27        2.0000           -0.5019614             -13.6591
        28        2.0000           -0.4845063             -13.1841
        29        2.0000           -0.4812894             -13.0966
        30        2.0000           -0.4701098             -12.7923
        31        2.0000           -0.4360111             -11.8645
        32        2.0000           -0.4334999             -11.7961 (HOMO)
        33                         -0.2918208              -7.9408 (LUMO)
        34                         -0.1816755              -4.9436
        35                         -0.0490173              -1.3338
        36                          0.0160563               0.4369
        37                          0.0321897               0.8759
       ...                                ...                  ...
        51                          0.6813855              18.5414
      -------------------------------------------------------------
                  HL-Gap            0.1416791 Eh            3.8553 eV
             Fermi-level           -0.3626603 Eh           -9.8685 eV

 SCC (total)                   0 d,  0 h,  0 min,  0.009 sec
 SCC setup                      ...        0 min,  0.001 sec ( 10.849%)
 Dispersion                     ...        0 min,  0.000 sec (  1.740%)
 classical contributions        ...        0 min,  0.000 sec (  1.224%)
 integral evaluation            ...        0 min,  0.001 sec (  6.197%)
 iterations                     ...        0 min,  0.005 sec ( 54.922%)
 molecular gradient             ...        0 min,  0.002 sec ( 22.706%)
 printout                       ...        0 min,  0.000 sec (  2.109%)

         :::::::::::::::::::::::::::::::::::::::::::::::::::::
         ::                     SUMMARY                     ::
         :::::::::::::::::::::::::::::::::::::::::::::::::::::
         :: total energy             -38.735110064656 Eh    ::
         :: gradient norm              0.000596901932 Eh/a0 ::
         :: HOMO-LUMO gap              3.855283354330 eV    ::
         ::.................................................::
         :: SCC energy               -39.044327331999 Eh    ::
         :: -> isotropic ES            0.084616410895 Eh    ::
         :: -> anisotropic ES          0.002570391712 Eh    ::
         :: -> anisotropic XC         -0.015159099765 Eh    ::
         :: -> dispersion             -0.011894669538 Eh    ::
         :: repulsion energy           0.309217267342 Eh    ::
         :: add. restraining           0.000000000000 Eh    ::
         :: total charge               0.000000000000 e     ::
         :::::::::::::::::::::::::::::::::::::::::::::::::::::

           -------------------------------------------------
          |                Property Printout                |
           -------------------------------------------------

    * Orbital Energies and Occupations

         #    Occupation            Energy/Eh            Energy/eV
      -------------------------------------------------------------
         1        2.0000           -0.8971073             -24.4115
       ...           ...                  ...                  ...
        20        2.0000           -0.5517491             -15.0139
        21        2.0000           -0.5491258             -14.9425
        22        2.0000           -0.5488468             -14.9349
        23        2.0000           -0.5465138             -14.8714
        24        2.0000           -0.5261973             -14.3186
        25        2.0000           -0.5119975             -13.9322
        26        2.0000           -0.5024716             -13.6729
        27        2.0000           -0.5019614             -13.6591
        28        2.0000           -0.4845063             -13.1841
        29        2.0000           -0.4812894             -13.0966
        30        2.0000           -0.4701098             -12.7923
        31        2.0000           -0.4360111             -11.8645
        32        2.0000           -0.4334999             -11.7961 (HOMO)
        33                         -0.2918208              -7.9408 (LUMO)
        34                         -0.1816755              -4.9436
        35                         -0.0490173              -1.3338
        36                          0.0160563               0.4369
        37                          0.0321897               0.8759
        38                          0.0733502               1.9960
        39                          0.0804269               2.1885
        40                          0.0989039               2.6913
        41                          0.1170187               3.1842
        42                          0.1374432               3.7400
        43                          0.1687465               4.5918
       ...                                ...                  ...
        51                          0.6813855              18.5414
      -------------------------------------------------------------
                  HL-Gap            0.1416791 Eh            3.8553 eV
             Fermi-level           -0.3626603 Eh           -9.8685 eV

     #   Z          covCN         q      C6AA      α(0)
     1   6 C        3.759    -0.114    22.738     6.798
     2   6 C        2.938    -0.004    28.113     8.696
     3   6 C        2.845    -0.077    29.911     8.963
     4   6 C        2.734     0.352    21.028     7.508
     5   8 O        0.856    -0.393    21.550     6.224
     6   8 O        1.706    -0.260    18.314     5.778
     7   6 C        3.711     0.068    19.564     6.321
     8   6 C        3.328     0.485    17.411     6.625
     9   9 F        0.791    -0.187    11.099     3.935
    10   9 F        0.791    -0.199    11.227     3.958
    11   9 F        0.791    -0.187    11.099     3.935
    12   1 H        0.925     0.071     2.073     2.251
    13   1 H        0.925     0.058     2.224     2.332
    14   1 H        0.925     0.068     2.103     2.268
    15   1 H        0.926     0.072     2.066     2.248
    16   1 H        0.926     0.067     2.121     2.277
    17   1 H        0.924     0.091     1.867     2.137
    18   1 H        0.924     0.089     1.884     2.147

 Mol. C6AA /au·bohr⁶  :       3286.670192
 Mol. C8AA /au·bohr⁸  :      72525.865892
 Mol. α(0) /au        :         84.401433


Wiberg/Mayer (AO) data.
largest (>0.10) Wiberg bond orders for each atom

 ---------------------------------------------------------------------------
     #   Z sym  total        # sym  WBO       # sym  WBO       # sym  WBO
 ---------------------------------------------------------------------------
     1   6 C    3.992 --     2 C    1.029    13 H    0.984    12 H    0.967
                            14 H    0.964
     2   6 C    3.985 --     3 C    1.864     1 C    1.029     4 C    1.007
     3   6 C    3.985 --     2 C    1.864    16 H    0.973    15 H    0.971
     4   6 C    3.906 --     5 O    1.755     6 O    1.065     2 C    1.007
     5   8 O    2.053 --     4 C    1.755     6 O    0.159
     6   8 O    2.275 --     4 C    1.065     7 C    0.978     5 O    0.159
     7   6 C    3.942 --     6 O    0.978    18 H    0.958    17 H    0.957
                             8 C    0.952
     8   6 C    3.850 --    11 F    0.962     9 F    0.962     7 C    0.952
                            10 F    0.950
     9   9 F    1.089 --     8 C    0.962
    10   9 F    1.074 --     8 C    0.950
    11   9 F    1.089 --     8 C    0.962
    12   1 H    0.995 --     1 C    0.967
    13   1 H    0.996 --     1 C    0.984
    14   1 H    0.995 --     1 C    0.964
    15   1 H    0.995 --     3 C    0.971
    16   1 H    0.995 --     3 C    0.973
    17   1 H    0.992 --     7 C    0.957
    18   1 H    0.992 --     7 C    0.958
 ---------------------------------------------------------------------------

Topologies differ in total number of bonds
Writing topology from bond orders to xtbtopo.mol

molecular dipole:
                 x           y           z       tot (Debye)
 q only:       -1.073       0.155      -0.100
   full:       -1.027       0.141      -0.080       2.642
molecular quadrupole (traceless):
                xx          xy          yy          xz          yz          zz
 q only:       -0.211      -6.411      -1.105       0.799       0.379       1.317
  q+dip:       -1.629      -7.031      -0.790       0.832       0.431       2.419
   full:       -1.668      -7.295      -1.655       0.849       1.181       3.323

           -------------------------------------------------
          |                Geometry Summary                 |
           -------------------------------------------------

      molecular mass/u    :      168.1140200
   center of mass at/Å    :        1.0218482       0.0619173       0.5429341
  moments of inertia/u·Å² :        0.1988315E+03   0.9587485E+03   0.1063423E+04
rotational constants/cm⁻¹ :        0.8478353E-01   0.1758296E-01   0.1585223E-01

 * 15 selected distances

     #   Z          #   Z                                           value/Å
     2   6 C        3   6 C                                       1.3299808
     4   6 C        5   8 O                                       1.2033736
     4   6 C        6   8 O                                       1.3582445
     6   8 O        7   6 C                                       1.4104366
     7   6 C        8   6 C                                       1.5224978 (max)
     8   6 C        9   9 F                                       1.3351155
     8   6 C       10   9 F                                       1.3410866
     8   6 C       11   9 F                                       1.3349896
     1   6 C       12   1 H                                       1.0883987
     1   6 C       13   1 H                                       1.0856541
     1   6 C       14   1 H                                       1.0889895
     3   6 C       15   1 H                                       1.0753830 (min)
     3   6 C       16   1 H                                       1.0771237
     7   6 C       17   1 H                                       1.0971950
     7   6 C       18   1 H                                       1.0971353

 * 4 distinct bonds (by element types)

   Z      Z             #   av. dist./Å        max./Å        min./Å
   1 H    6 C           7     1.0871256     1.0971950     1.0753830
   6 C    6 C           2     1.4262393     1.5224978     1.3299808
   6 C    8 O           3     1.3240182     1.4104366     1.2033736
   6 C    9 F           3     1.3370639     1.3410866     1.3349896


optimized geometry written to: xtbopt.xyz


           -------------------------------------------------
          | TOTAL ENERGY              -38.735110064656 Eh   |
          | GRADIENT NORM               0.000596901932 Eh/α |
          | HOMO-LUMO GAP               3.855283354330 eV   |
           -------------------------------------------------

------------------------------------------------------------------------
 * finished run on 2025/12/01 at 14:22:53.578     
------------------------------------------------------------------------
 total:
 * wall-time:     0 d,  0 h,  0 min,  0.195 sec
 *  cpu-time:     0 d,  0 h,  0 min,  4.425 sec
 * ratio c/w:    22.657 speedup
 SCF:
 * wall-time:     0 d,  0 h,  0 min,  0.037 sec
 *  cpu-time:     0 d,  0 h,  0 min,  0.852 sec
 * ratio c/w:    23.126 speedup
 ANC optimizer:
 * wall-time:     0 d,  0 h,  0 min,  0.151 sec
 *  cpu-time:     0 d,  0 h,  0 min,  3.448 sec
 * ratio c/w:    22.796 speedup

normal termination of xtb
