      -----------------------------------------------------------      
     |                   =====================                   |     
     |                           x T B                           |     
     |                   =====================                   |     
     |                         S. Grimme                         |     
     |          Mulliken Center for Theoretical Chemistry        |     
     |                    University of Bonn                     |     
      -----------------------------------------------------------      

   * xtb version 6.7.1 (edcfbbe) compiled by 'albert@albert-system' on 2024-07-22

   xtb is free software: you can redistribute it and/or modify it under
   the terms of the GNU Lesser General Public License as published by
   the Free Software Foundation, either version 3 of the License, or
   (at your option) any later version.
   
   xtb is distributed in the hope that it will be useful,
   but WITHOUT ANY WARRANTY; without even the implied warranty of
   MERCHANTABILITY or FITNESS FOR A PARTICULAR PURPOSE.  See the
   GNU Lesser General Public License for more details.
   
   Cite this work as:
   * C. Bannwarth, E. Caldeweyher, S. Ehlert, A. Hansen, P. Pracht,
     J. Seibert, S. Spicher, S. Grimme, WIREs Comput. Mol. Sci., 2020, 11,
     e01493. DOI: 10.1002/wcms.1493
   
   for GFN2-xTB:
   * C. Bannwarth, S. Ehlert and S. Grimme., J. Chem. Theory Comput., 2019,
     15, 1652-1671. DOI: 10.1021/acs.jctc.8b01176
   for GFN1-xTB:
   * S. Grimme, C. Bannwarth, P. Shushkov, J. Chem. Theory Comput., 2017,
     13, 1989-2009. DOI: 10.1021/acs.jctc.7b00118
   for GFN0-xTB:
   * P. Pracht, E. Caldeweyher, S. Ehlert, S. Grimme, ChemRxiv, 2019, preprint.
     DOI: 10.26434/chemrxiv.8326202.v1
   for GFN-FF:
   * S. Spicher and S. Grimme, Angew. Chem. Int. Ed., 2020, 59, 15665-15673.
     DOI: 10.1002/anie.202004239
   
   for ALPB and GBSA implicit solvation:
   * S. Ehlert, M. Stahn, S. Spicher, S. Grimme, J. Chem. Theory Comput.,
     2021, 17, 4250-4261. DOI: 10.1021/acs.jctc.1c00471
   
   for ddCOSMO and CPCM-X implicit solvation:
   * M. Stahn, S. Ehlert, S. Grimme, J. Phys. Chem. A,
     2023, XX, XXXX-XXXX. DOI: 10.1021/acs.jpca.3c04382
   
   for DFT-D4:
   * E. Caldeweyher, C. Bannwarth and S. Grimme, J. Chem. Phys., 2017,
     147, 034112. DOI: 10.1063/1.4993215
   * E. Caldeweyher, S. Ehlert, A. Hansen, H. Neugebauer, S. Spicher,
     C. Bannwarth and S. Grimme, J. Chem. Phys., 2019, 150, 154122.
     DOI: 10.1063/1.5090222
   * E. Caldeweyher, J.-M. Mewes, S. Ehlert and S. Grimme, Phys. Chem. Chem. Phys.
     2020, 22, 8499-8512. DOI: 10.1039/D0CP00502A
   
   for sTDA-xTB:
   * S. Grimme and C. Bannwarth, J. Chem. Phys., 2016, 145, 054103.
     DOI: 10.1063/1.4959605
   
   in the mass-spec context:
   * V. Asgeirsson, C. Bauer and S. Grimme, Chem. Sci., 2017, 8, 4879.
     DOI: 10.1039/c7sc00601b
   * J. Koopman and S. Grimme, ACS Omega 2019, 4, 12, 15120-15133.
     DOI: 10.1021/acsomega.9b02011
   
   for metadynamics refer to:
   * S. Grimme, J. Chem. Theory Comput., 2019, 155, 2847-2862
     DOI: 10.1021/acs.jctc.9b00143
   
   for SPH calculations refer to:
   * S. Spicher and S. Grimme, J. Chem. Theory Comput., 2021, 17, 1701-1714
     DOI: 10.1021/acs.jctc.0c01306
   
   for ONIOM refer to:
   * C. Plett, A. Katbashev, S. Ehlert, S. Grimme, M. Bursch,
     Phys. Chem. Chem. Phys., 2023, 25, 17860-17868. DOI: 10.1039/D3CP02178E
   
   for DIPRO refer to:
   * J. Kohn, N. Gildemeister, S. Grimme, D. Fazzi, A. Hansen,
     J. Chem. Phys., 2023, just accepted.
   
   for PTB refer to:
   * S. Grimme, M. Mueller, A. Hansen, J. Chem. Phys., 2023, 158, 124111.
     DOI: 10.1063/5.0137838
   
   with help from (in alphabetical order)
   P. Atkinson, C. Bannwarth, F. Bohle, G. Brandenburg, E. Caldeweyher
   M. Checinski, S. Dohm, S. Ehlert, S. Ehrlich, I. Gerasimov, C. Hölzer
   A. Katbashev, J. Kohn, J. Koopman, C. Lavigne, S. Lehtola, F. März, M. Müller,
   F. Musil, H. Neugebauer, J. Pisarek, C. Plett, P. Pracht, F. Pultar,
   J. Seibert, P. Shushkov, S. Spicher, M. Stahn, M. Steiner, T. Strunk,
   J. Stückrath, T. Rose, and J. Unsleber
   
 * started run on 2025/12/01 at 14:22:58.878     
   ID    Z sym.   atoms
    1    8 O      1, 4, 6, 15
    2    6 C      2, 3, 5, 7-11, 13, 14, 16-25
    3   16 S      12
    4    1 H      26-47

           -------------------------------------------------
          |                Calculation Setup                |
           -------------------------------------------------

          program call               : xtb pipeline_data/3_conformer_xyz/acrylates/rdkit/QXLXSQHHHGJQDK-MDWZMJQESA-N_conf238.xyz --opt --gfn 2-xTB --iterations 250
          coordinate file            : pipeline_data/3_conformer_xyz/acrylates/rdkit/QXLXSQHHHGJQDK-MDWZMJQESA-N_conf238.xyz
          omp threads                :                    24

########################################################################
[WARNING] Please study the warnings concerning your input carefully
-1- readin_getIntValue: could not parse '2-xTB'
########################################################################

           -------------------------------------------------
          |                 G F N 2 - x T B                 |
           -------------------------------------------------

        Reference                      10.1021/acs.jctc.8b01176
      * Hamiltonian:
        H0-scaling (s, p, d)           1.850000    2.230000    2.230000
        zeta-weighting                 0.500000
      * Dispersion:
        s8                             2.700000
        a1                             0.520000
        a2                             5.000000
        s9                             5.000000
      * Repulsion:
        kExp                           1.500000    1.000000
        rExp                           1.000000
      * Coulomb:
        alpha                          2.000000
        third order                    shell-resolved
        anisotropic                    true
        a3                             3.000000
        a5                             4.000000
        cn-shift                       1.200000
        cn-exp                         4.000000
        max-rad                        5.000000

q/qsh data taken from xtbrestart
CAMM data taken from xtbrestart

          ...................................................
          :                      SETUP                      :
          :.................................................:
          :  # basis functions                 128          :
          :  # atomic orbitals                 127          :
          :  # shells                           73          :
          :  # electrons                       132          :
          :  max. iterations                   250          :
          :  Hamiltonian                  GFN2-xTB          :
          :  restarted?                       true          :
          :  GBSA solvation                  false          :
          :  PC potential                    false          :
          :  electronic temp.          300.0000000     K    :
          :  accuracy                    1.0000000          :
          :  -> integral cutoff          0.2500000E+02      :
          :  -> integral neglect         0.1000000E-07      :
          :  -> SCF convergence          0.1000000E-05 Eh   :
          :  -> wf. convergence          0.1000000E-03 e    :
          :  Broyden damping             0.4000000          :
          :  net charge                          0          :
          :  unpaired electrons                  0          :
          ...................................................

 iter      E             dE          RMSdq      gap      omega  full diag
   1    -74.4507227 -0.744507E+02  0.485E+00    1.61       0.0  T
   2    -74.4602858 -0.956309E-02  0.284E+00    1.62       1.0  T
   3    -74.4589719  0.131389E-02  0.418E-01    1.52       1.0  T
   4    -74.4624222 -0.345027E-02  0.190E-01    1.58       1.0  T
   5    -74.4627356 -0.313404E-03  0.852E-02    1.57       1.0  T
   6    -74.4628385 -0.102883E-03  0.356E-02    1.58       1.0  T
   7    -74.4628455 -0.698250E-05  0.162E-02    1.59       1.0  T
   8    -74.4628473 -0.179828E-05  0.525E-03    1.59       2.8  T
   9    -74.4628475 -0.258085E-06  0.244E-03    1.59       6.0  T
  10    -74.4628476 -0.426754E-07  0.114E-03    1.59      12.8  T
  11    -74.4628476 -0.131403E-07  0.604E-04    1.59      24.2  T
  12    -74.4628476 -0.549770E-08  0.240E-04    1.59      60.8  T

   *** convergence criteria satisfied after 12 iterations ***

         #    Occupation            Energy/Eh            Energy/eV
      -------------------------------------------------------------
         1        2.0000           -0.7291024             -19.8399
       ...           ...                  ...                  ...
        60        2.0000           -0.4223403             -11.4925
        61        2.0000           -0.4179308             -11.3725
        62        2.0000           -0.4160015             -11.3200
        63        2.0000           -0.4102784             -11.1642
        64        2.0000           -0.4066859             -11.0665
        65        2.0000           -0.3909776             -10.6390
        66        2.0000           -0.3605011              -9.8097 (HOMO)
        67                         -0.3022143              -8.2237 (LUMO)
        68                         -0.2574976              -7.0069
        69                         -0.2438686              -6.6360
        70                         -0.2342263              -6.3736
        71                         -0.2319835              -6.3126
       ...                                ...                  ...
       127                          0.7301852              19.8694
      -------------------------------------------------------------
                  HL-Gap            0.0582868 Eh            1.5861 eV
             Fermi-level           -0.3313577 Eh           -9.0167 eV

 SCC (total)                   0 d,  0 h,  0 min,  0.061 sec
 SCC setup                      ...        0 min,  0.000 sec (  0.416%)
 Dispersion                     ...        0 min,  0.001 sec (  1.175%)
 classical contributions        ...        0 min,  0.000 sec (  0.159%)
 integral evaluation            ...        0 min,  0.010 sec ( 16.554%)
 iterations                     ...        0 min,  0.043 sec ( 70.914%)
 molecular gradient             ...        0 min,  0.006 sec ( 10.278%)
 printout                       ...        0 min,  0.000 sec (  0.458%)

         :::::::::::::::::::::::::::::::::::::::::::::::::::::
         ::                     SUMMARY                     ::
         :::::::::::::::::::::::::::::::::::::::::::::::::::::
         :: total energy             -73.449928530788 Eh    ::
         :: gradient norm              0.169605912399 Eh/a0 ::
         :: HOMO-LUMO gap              1.586064608028 eV    ::
         ::.................................................::
         :: SCC energy               -74.462536772517 Eh    ::
         :: -> isotropic ES            0.091306784540 Eh    ::
         :: -> anisotropic ES          0.003037806510 Eh    ::
         :: -> anisotropic XC          0.026037992535 Eh    ::
         :: -> dispersion             -0.050167163797 Eh    ::
         :: repulsion energy           1.012608241729 Eh    ::
         :: add. restraining           0.000000000000 Eh    ::
         :: total charge              -0.000000000000 e     ::
         :::::::::::::::::::::::::::::::::::::::::::::::::::::

      ----------------------------------------------------------- 
     |                   =====================                   |
     |                        A N C O P T                        |
     |                   =====================                   |
     |               Approximate Normal Coordinate               |
     |                Rational Function Optimizer                |
      ----------------------------------------------------------- 
      ----------------------------------------------------------- 
     |                   =====================                   |
     |                        A N C O P T                        |
     |                   =====================                   |
     |               Approximate Normal Coordinate               |
     |                Rational Function Optimizer                |
      ----------------------------------------------------------- 

          ...................................................
          :                      SETUP                      :
          :.................................................:
          :   optimization level            normal          :
          :   max. optcycles                   200          :
          :   ANC micro-cycles                  20          :
          :   degrees of freedom               135          :
          :.................................................:
          :   RF solver                   davidson          :
          :   write xtbopt.log                true          :
          :   linear?                        false          :
          :   energy convergence         0.5000000E-05 Eh   :
          :   grad. convergence          0.1000000E-02 Eh/α :
          :   maxmium RF displ.          1.0000000          :
          :   Hlow (freq-cutoff)         0.1000000E-01      :
          :   Hmax (freq-cutoff)         5.0000000          :
          :   S6 in model hess.         20.0000000          :
          ...................................................

generating ANC from exact Hessian ...
Using Lindh-Hessian (1995)
 Shifting diagonal of input Hessian by   9.893748907933883E-003
 Lowest  eigenvalues of input Hessian
    0.000000    0.000000    0.000000    0.000000    0.000000    0.000000
    0.010000    0.010226    0.010377    0.010578    0.010741    0.011016
    0.011737    0.012180    0.012687    0.012752    0.013295    0.014860
 Highest eigenvalues
    1.980419    1.989002    2.012866    2.052265    2.095184    2.169940
 

........................................................................
.............................. CYCLE    1 ..............................
........................................................................

 iter      E             dE          RMSdq      gap      omega  full diag
   1    -74.4628476 -0.744628E+02  0.995E-05    1.59       0.0  T
   2    -74.4628476 -0.547686E-10  0.678E-05    1.59     215.2  T
   3    -74.4628476 -0.233484E-10  0.489E-05    1.59     298.6  T
     SCC iter.                  ...        0 min,  0.009 sec
     gradient                   ...        0 min,  0.006 sec
 * total energy  :   -73.4499285 Eh     change       -0.1104155E-08 Eh
   gradient norm :     0.1696073 Eh/α   predicted     0.0000000E+00 (-100.00%)
   displ. norm   :     0.3647861 α      lambda       -0.3165514E-01
   maximum displ.:     0.1129425 α      in ANC's #39, #27, #30, ...

........................................................................
.............................. CYCLE    2 ..............................
........................................................................

 iter      E             dE          RMSdq      gap      omega  full diag
   1    -74.4802555 -0.744803E+02  0.272E-01    1.65       0.0  T
   2    -74.4807310 -0.475581E-03  0.166E-01    1.64       1.0  T
   3    -74.4807134  0.176899E-04  0.764E-02    1.62       1.0  T
   4    -74.4807721 -0.587003E-04  0.292E-02    1.63       1.0  T
   5    -74.4808047 -0.326764E-04  0.858E-03    1.62       1.7  T
   6    -74.4808063 -0.154609E-05  0.404E-03    1.62       3.6  T
   7    -74.4808066 -0.363959E-06  0.196E-03    1.62       7.5  T
   8    -74.4808067 -0.328299E-07  0.837E-04    1.62      17.4  T
   9    -74.4808067 -0.723368E-08  0.339E-04    1.62      43.0  T
     SCC iter.                  ...        0 min,  0.027 sec
     gradient                   ...        0 min,  0.006 sec
 * total energy  :   -73.4718660 Eh     change       -0.2193750E-01 Eh
   gradient norm :     0.0663014 Eh/α   predicted    -0.1795287E-01 ( -18.16%)
   displ. norm   :     0.3299706 α      lambda       -0.9867854E-02
   maximum displ.:     0.1191100 α      in ANC's #27, #39, #13, ...

........................................................................
.............................. CYCLE    3 ..............................
........................................................................

 iter      E             dE          RMSdq      gap      omega  full diag
   1    -74.4881504 -0.744882E+02  0.186E-01    1.64       0.0  T
   2    -74.4883804 -0.229972E-03  0.112E-01    1.64       1.0  T
   3    -74.4883694  0.109507E-04  0.528E-02    1.62       1.0  T
   4    -74.4884020 -0.325949E-04  0.216E-02    1.63       1.0  T
   5    -74.4884192 -0.172077E-04  0.651E-03    1.63       2.2  T
   6    -74.4884203 -0.103459E-05  0.281E-03    1.63       5.2  T
   7    -74.4884205 -0.198630E-06  0.136E-03    1.63      10.7  T
   8    -74.4884205 -0.160453E-07  0.624E-04    1.63      23.4  T
   9    -74.4884205 -0.411626E-08  0.252E-04    1.63      57.9  T
     SCC iter.                  ...        0 min,  0.024 sec
     gradient                   ...        0 min,  0.006 sec
 * total energy  :   -73.4777459 Eh     change       -0.5879875E-02 Eh
   gradient norm :     0.0162170 Eh/α   predicted    -0.5474773E-02 (  -6.89%)
   displ. norm   :     0.2431620 α      lambda       -0.1511137E-02
   maximum displ.:     0.0861871 α      in ANC's #13, #12, #27, ...

........................................................................
.............................. CYCLE    4 ..............................
........................................................................

 iter      E             dE          RMSdq      gap      omega  full diag
   1    -74.4863119 -0.744863E+02  0.833E-02    1.62       0.0  T
   2    -74.4863233 -0.113542E-04  0.492E-02    1.62       1.0  T
   3    -74.4863117  0.115990E-04  0.200E-02    1.62       1.0  T
   4    -74.4863257 -0.140004E-04  0.619E-03    1.62       2.4  T
   5    -74.4863269 -0.117034E-05  0.259E-03    1.62       5.6  T
   6    -74.4863270 -0.162117E-06  0.997E-04    1.62      14.6  T
   7    -74.4863270 -0.682003E-08  0.518E-04    1.62      28.2  T
     SCC iter.                  ...        0 min,  0.019 sec
     gradient                   ...        0 min,  0.005 sec
 * total energy  :   -73.4788222 Eh     change       -0.1076316E-02 Eh
   gradient norm :     0.0095822 Eh/α   predicted    -0.8002567E-03 ( -25.65%)
   displ. norm   :     0.3016939 α      lambda       -0.9229016E-03
   maximum displ.:     0.1124582 α      in ANC's #8, #13, #12, ...

........................................................................
.............................. CYCLE    5 ..............................
........................................................................

 iter      E             dE          RMSdq      gap      omega  full diag
   1    -74.4850772 -0.744851E+02  0.889E-02    1.62       0.0  T
   2    -74.4850822 -0.493816E-05  0.523E-02    1.63       1.0  T
   3    -74.4850791  0.303593E-05  0.115E-02    1.63       1.3  T
   4    -74.4850835 -0.435560E-05  0.297E-03    1.63       4.9  T
   5    -74.4850836 -0.799727E-07  0.148E-03    1.63       9.8  T
   6    -74.4850836 -0.277742E-07  0.712E-04    1.63      20.5  T
   7    -74.4850836 -0.227749E-08  0.328E-04    1.63      44.4  T
     SCC iter.                  ...        0 min,  0.019 sec
     gradient                   ...        0 min,  0.006 sec
 * total energy  :   -73.4794732 Eh     change       -0.6509611E-03 Eh
   gradient norm :     0.0090813 Eh/α   predicted    -0.5034539E-03 ( -22.66%)
   displ. norm   :     0.3236240 α      lambda       -0.6243053E-03
   maximum displ.:     0.1321616 α      in ANC's #8, #12, #5, ...

........................................................................
.............................. CYCLE    6 ..............................
........................................................................

 iter      E             dE          RMSdq      gap      omega  full diag
   1    -74.4851071 -0.744851E+02  0.874E-02    1.63       0.0  T
   2    -74.4851100 -0.291016E-05  0.517E-02    1.64       1.0  T
   3    -74.4851046  0.541667E-05  0.122E-02    1.64       1.2  T
   4    -74.4851109 -0.629147E-05  0.369E-03    1.64       4.0  T
   5    -74.4851113 -0.376125E-06  0.180E-03    1.64       8.1  T
   6    -74.4851113 -0.504416E-07  0.665E-04    1.64      21.9  T
   7    -74.4851113 -0.416276E-08  0.331E-04    1.64      44.0  T
     SCC iter.                  ...        0 min,  0.018 sec
     gradient                   ...        0 min,  0.006 sec
 * total energy  :   -73.4799545 Eh     change       -0.4813623E-03 Eh
   gradient norm :     0.0131936 Eh/α   predicted    -0.3448495E-03 ( -28.36%)
   displ. norm   :     0.4293534 α      lambda       -0.7747512E-03
   maximum displ.:     0.1808622 α      in ANC's #8, #5, #2, ...

........................................................................
.............................. CYCLE    7 ..............................
........................................................................

 iter      E             dE          RMSdq      gap      omega  full diag
   1    -74.4859881 -0.744860E+02  0.113E-01    1.65       0.0  T
   2    -74.4859923 -0.423163E-05  0.672E-02    1.65       1.0  T
   3    -74.4859807  0.116449E-04  0.167E-02    1.66       1.0  T
   4    -74.4859938 -0.131437E-04  0.454E-03    1.66       3.2  T
   5    -74.4859945 -0.632206E-06  0.203E-03    1.66       7.2  T
   6    -74.4859945 -0.333744E-07  0.756E-04    1.66      19.3  T
   7    -74.4859945 -0.871211E-08  0.380E-04    1.66      38.4  T
     SCC iter.                  ...        0 min,  0.020 sec
     gradient                   ...        0 min,  0.006 sec
 * total energy  :   -73.4805677 Eh     change       -0.6131197E-03 Eh
   gradient norm :     0.0161740 Eh/α   predicted    -0.4587869E-03 ( -25.17%)
   displ. norm   :     0.4815371 α      lambda       -0.9427426E-03
   maximum displ.:     0.2002491 α      in ANC's #8, #5, #2, ...

........................................................................
.............................. CYCLE    8 ..............................
........................................................................

 iter      E             dE          RMSdq      gap      omega  full diag
   1    -74.4880139 -0.744880E+02  0.130E-01    1.67       0.0  T
   2    -74.4880194 -0.548659E-05  0.768E-02    1.67       1.0  T
   3    -74.4880078  0.115548E-04  0.169E-02    1.68       1.0  T
   4    -74.4880209 -0.130382E-04  0.489E-03    1.67       3.0  T
   5    -74.4880217 -0.791935E-06  0.212E-03    1.67       6.9  T
   6    -74.4880217 -0.446335E-07  0.808E-04    1.67      18.0  T
   7    -74.4880217 -0.737522E-08  0.411E-04    1.67      35.5  T
     SCC iter.                  ...        0 min,  0.019 sec
     gradient                   ...        0 min,  0.008 sec
 * total energy  :   -73.4813185 Eh     change       -0.7508830E-03 Eh
   gradient norm :     0.0142338 Eh/α   predicted    -0.5806732E-03 ( -22.67%)
   displ. norm   :     0.5134922 α      lambda       -0.9991834E-03
   maximum displ.:     0.2225468 α      in ANC's #5, #8, #2, ...

........................................................................
.............................. CYCLE    9 ..............................
........................................................................

 iter      E             dE          RMSdq      gap      omega  full diag
   1    -74.4888036 -0.744888E+02  0.147E-01    1.68       0.0  T
   2    -74.4888123 -0.872439E-05  0.867E-02    1.68       1.0  T
   3    -74.4888091  0.321487E-05  0.131E-02    1.69       1.1  T
   4    -74.4888142 -0.510788E-05  0.386E-03    1.69       3.8  T
   5    -74.4888143 -0.108063E-06  0.256E-03    1.69       5.7  T
   6    -74.4888145 -0.196573E-06  0.968E-04    1.69      15.1  T
   7    -74.4888145 -0.451192E-08  0.503E-04    1.69      29.0  T
     SCC iter.                  ...        0 min,  0.028 sec
     gradient                   ...        0 min,  0.008 sec
 * total energy  :   -73.4820841 Eh     change       -0.7655851E-03 Eh
   gradient norm :     0.0166700 Eh/α   predicted    -0.6313226E-03 ( -17.54%)
   displ. norm   :     0.4922911 α      lambda       -0.1326059E-02
   maximum displ.:     0.2210508 α      in ANC's #5, #6, #8, ...

........................................................................
.............................. CYCLE   10 ..............................
........................................................................

 iter      E             dE          RMSdq      gap      omega  full diag
   1    -74.4961755 -0.744962E+02  0.152E-01    1.69       0.0  T
   2    -74.4961850 -0.945651E-05  0.891E-02    1.69       1.0  T
   3    -74.4961800  0.495099E-05  0.149E-02    1.70       1.0  T
   4    -74.4961871 -0.703832E-05  0.449E-03    1.69       3.2  T
   5    -74.4961874 -0.323864E-06  0.261E-03    1.69       5.6  T
   6    -74.4961876 -0.204427E-06  0.108E-03    1.69      13.5  T
   7    -74.4961876 -0.936650E-08  0.440E-04    1.69      33.1  T
   8    -74.4961876 -0.292216E-08  0.146E-04    1.69      99.8  T
     SCC iter.                  ...        0 min,  0.024 sec
     gradient                   ...        0 min,  0.007 sec
 * total energy  :   -73.4823776 Eh     change       -0.2934295E-03 Eh
   gradient norm :     0.0257070 Eh/α   predicted    -0.8237174E-03 ( 180.72%)
   displ. norm   :     0.4045008 α      lambda       -0.1467676E-02
   maximum displ.:     0.1683989 α      in ANC's #5, #8, #15, ...

........................................................................
.............................. CYCLE   11 ..............................
........................................................................

 iter      E             dE          RMSdq      gap      omega  full diag
   1    -74.4882150 -0.744882E+02  0.127E-01    1.69       0.0  T
   2    -74.4882273 -0.122817E-04  0.744E-02    1.69       1.0  T
   3    -74.4882208  0.653551E-05  0.172E-02    1.70       1.0  T
   4    -74.4882295 -0.871480E-05  0.725E-03    1.70       2.0  T
   5    -74.4882309 -0.142570E-05  0.327E-03    1.69       4.5  T
   6    -74.4882311 -0.171570E-06  0.130E-03    1.69      11.2  T
   7    -74.4882311 -0.173522E-08  0.621E-04    1.69      23.5  T
   8    -74.4882311 -0.105697E-07  0.208E-04    1.69      70.2  T
     SCC iter.                  ...        0 min,  0.022 sec
     gradient                   ...        0 min,  0.006 sec
 * total energy  :   -73.4830799 Eh     change       -0.7023636E-03 Eh
   gradient norm :     0.0179718 Eh/α   predicted    -0.8539090E-03 (  21.58%)
   displ. norm   :     0.0962491 α      lambda       -0.3784814E-03
   maximum displ.:     0.0460834 α      in ANC's #5, #8, #27, ...

........................................................................
.............................. CYCLE   12 ..............................
........................................................................

 iter      E             dE          RMSdq      gap      omega  full diag
   1    -74.4906928 -0.744907E+02  0.295E-02    1.70       0.0  T
   2    -74.4906941 -0.130418E-05  0.171E-02    1.69       1.0  T
   3    -74.4906940  0.936537E-07  0.361E-03    1.69       4.0  T
   4    -74.4906942 -0.213053E-06  0.174E-03    1.69       8.4  T
   5    -74.4906943 -0.830045E-07  0.802E-04    1.69      18.2  T
   6    -74.4906943 -0.178592E-07  0.347E-04    1.69      42.0  T
     SCC iter.                  ...        0 min,  0.017 sec
     gradient                   ...        0 min,  0.006 sec
 * total energy  :   -73.4833786 Eh     change       -0.2986991E-03 Eh
   gradient norm :     0.0094980 Eh/α   predicted    -0.1910055E-03 ( -36.05%)
   displ. norm   :     0.4651015 α      lambda       -0.6190583E-03
   maximum displ.:     0.2265889 α      in ANC's #5, #8, #6, ...

........................................................................
.............................. CYCLE   13 ..............................
........................................................................

 iter      E             dE          RMSdq      gap      omega  full diag
   1    -74.4914814 -0.744915E+02  0.127E-01    1.70       0.0  T
   2    -74.4914849 -0.342868E-05  0.742E-02    1.69       1.0  T
   3    -74.4914835  0.135178E-05  0.836E-03    1.70       1.7  T
   4    -74.4914854 -0.184261E-05  0.406E-03    1.69       3.6  T
   5    -74.4914858 -0.425350E-06  0.177E-03    1.69       8.3  T
   6    -74.4914859 -0.732722E-07  0.711E-04    1.69      20.5  T
   7    -74.4914859 -0.502449E-08  0.351E-04    1.69      41.5  T
     SCC iter.                  ...        0 min,  0.018 sec
     gradient                   ...        0 min,  0.006 sec
 * total energy  :   -73.4838115 Eh     change       -0.4329045E-03 Eh
   gradient norm :     0.0046160 Eh/α   predicted    -0.3764919E-03 ( -13.03%)
   displ. norm   :     0.3659559 α      lambda       -0.2960881E-03
   maximum displ.:     0.1744790 α      in ANC's #5, #8, #2, ...

........................................................................
.............................. CYCLE   14 ..............................
........................................................................

 iter      E             dE          RMSdq      gap      omega  full diag
   1    -74.4937000 -0.744937E+02  0.104E-01    1.70       0.0  T
   2    -74.4937021 -0.206657E-05  0.606E-02    1.70       1.0  T
   3    -74.4937021  0.403659E-07  0.575E-03    1.70       2.5  T
   4    -74.4937026 -0.535743E-06  0.262E-03    1.70       5.6  T
   5    -74.4937027 -0.689798E-07  0.110E-03    1.70      13.2  T
   6    -74.4937027 -0.239284E-07  0.465E-04    1.70      31.4  T
   7    -74.4937027 -0.185011E-08  0.236E-04    1.70      61.8  T
     SCC iter.                  ...        0 min,  0.019 sec
     gradient                   ...        0 min,  0.005 sec
 * total energy  :   -73.4840204 Eh     change       -0.2088887E-03 Eh
   gradient norm :     0.0050478 Eh/α   predicted    -0.1678787E-03 ( -19.63%)
   displ. norm   :     0.4283875 α      lambda       -0.2322540E-03
   maximum displ.:     0.2018141 α      in ANC's #5, #8, #6, ...

........................................................................
.............................. CYCLE   15 ..............................
........................................................................

 iter      E             dE          RMSdq      gap      omega  full diag
   1    -74.4890598 -0.744891E+02  0.122E-01    1.69       0.0  T
   2    -74.4890628 -0.294772E-05  0.714E-02    1.70       1.0  T
   3    -74.4890618  0.925623E-06  0.738E-03    1.70       2.0  T
   4    -74.4890635 -0.168983E-05  0.278E-03    1.70       5.3  T
   5    -74.4890636 -0.601661E-07  0.127E-03    1.70      11.5  T
   6    -74.4890636 -0.396453E-07  0.488E-04    1.70      29.9  T
   7    -74.4890636 -0.212030E-08  0.250E-04    1.70      58.3  T
     SCC iter.                  ...        0 min,  0.018 sec
     gradient                   ...        0 min,  0.006 sec
 * total energy  :   -73.4841235 Eh     change       -0.1030857E-03 Eh
   gradient norm :     0.0057155 Eh/α   predicted    -0.1374400E-03 (  33.33%)
   displ. norm   :     0.1990542 α      lambda       -0.2321405E-03
   maximum displ.:     0.0934506 α      in ANC's #7, #5, #8, ...

........................................................................
.............................. CYCLE   16 ..............................
........................................................................

 iter      E             dE          RMSdq      gap      omega  full diag
   1    -74.4968316 -0.744968E+02  0.668E-02    1.71       0.0  T
   2    -74.4968351 -0.349412E-05  0.386E-02    1.71       1.0  T
   3    -74.4968319  0.316183E-05  0.101E-02    1.71       1.4  T
   4    -74.4968353 -0.340266E-05  0.416E-03    1.71       3.5  T
   5    -74.4968358 -0.474341E-06  0.141E-03    1.71      10.4  T
   6    -74.4968358 -0.194743E-07  0.638E-04    1.71      22.9  T
   7    -74.4968358 -0.116739E-07  0.255E-04    1.71      57.2  T
     SCC iter.                  ...        0 min,  0.019 sec
     gradient                   ...        0 min,  0.006 sec
 * total energy  :   -73.4842285 Eh     change       -0.1049699E-03 Eh
   gradient norm :     0.0073662 Eh/α   predicted    -0.1206699E-03 (  14.96%)
   displ. norm   :     0.1949743 α      lambda       -0.1275589E-03
   maximum displ.:     0.1097429 α      in ANC's #8, #5, #3, ...

........................................................................
.............................. CYCLE   17 ..............................
........................................................................

 iter      E             dE          RMSdq      gap      omega  full diag
   1    -74.4952921 -0.744953E+02  0.606E-02    1.71       0.0  T
   2    -74.4952932 -0.112009E-05  0.350E-02    1.71       1.0  T
   3    -74.4952925  0.751174E-06  0.580E-03    1.72       2.5  T
   4    -74.4952934 -0.922792E-06  0.257E-03    1.72       5.7  T
   5    -74.4952935 -0.129147E-06  0.111E-03    1.72      13.2  T
   6    -74.4952936 -0.283439E-07  0.420E-04    1.72      34.7  T
   7    -74.4952936 -0.351680E-08  0.206E-04    1.72      70.9  T
     SCC iter.                  ...        0 min,  0.019 sec
     gradient                   ...        0 min,  0.006 sec
 * total energy  :   -73.4842962 Eh     change       -0.6776585E-04 Eh
   gradient norm :     0.0058094 Eh/α   predicted    -0.6620661E-04 (  -2.30%)
   displ. norm   :     0.1545549 α      lambda       -0.1542200E-03
   maximum displ.:     0.0895406 α      in ANC's #8, #7, #12, ...

........................................................................
.............................. CYCLE   18 ..............................
........................................................................

 iter      E             dE          RMSdq      gap      omega  full diag
   1    -74.4950711 -0.744951E+02  0.478E-02    1.71       0.0  T
   2    -74.4950721 -0.106175E-05  0.273E-02    1.71       1.0  T
   3    -74.4950705  0.159609E-05  0.717E-03    1.72       2.0  T
   4    -74.4950724 -0.185512E-05  0.264E-03    1.72       5.5  T
   5    -74.4950725 -0.103735E-06  0.112E-03    1.72      13.0  T
   6    -74.4950725 -0.265233E-07  0.452E-04    1.72      32.2  T
   7    -74.4950725 -0.513651E-08  0.174E-04    1.72      83.9  T
     SCC iter.                  ...        0 min,  0.019 sec
     gradient                   ...        0 min,  0.006 sec
 * total energy  :   -73.4844109 Eh     change       -0.1146395E-03 Eh
   gradient norm :     0.0048764 Eh/α   predicted    -0.7895505E-04 ( -31.13%)
   displ. norm   :     0.3378773 α      lambda       -0.2430773E-03
   maximum displ.:     0.2035717 α      in ANC's #8, #7, #5, ...

........................................................................
.............................. CYCLE   19 ..............................
........................................................................

 iter      E             dE          RMSdq      gap      omega  full diag
   1    -74.4930105 -0.744930E+02  0.106E-01    1.71       0.0  T
   2    -74.4930142 -0.372456E-05  0.608E-02    1.71       1.0  T
   3    -74.4930090  0.513911E-05  0.128E-02    1.72       1.1  T
   4    -74.4930151 -0.608541E-05  0.508E-03    1.72       2.9  T
   5    -74.4930155 -0.361965E-06  0.197E-03    1.72       7.4  T
   6    -74.4930156 -0.753109E-07  0.910E-04    1.72      16.0  T
   7    -74.4930156 -0.243186E-07  0.341E-04    1.72      42.8  T
     SCC iter.                  ...        0 min,  0.020 sec
     gradient                   ...        0 min,  0.006 sec
 * total energy  :   -73.4845568 Eh     change       -0.1459422E-03 Eh
   gradient norm :     0.0064547 Eh/α   predicted    -0.1354191E-03 (  -7.21%)
   displ. norm   :     0.2667249 α      lambda       -0.1679976E-03
   maximum displ.:     0.1380570 α      in ANC's #8, #7, #3, ...

........................................................................
.............................. CYCLE   20 ..............................
........................................................................

 iter      E             dE          RMSdq      gap      omega  full diag
   1    -74.4940288 -0.744940E+02  0.832E-02    1.72       0.0  T
   2    -74.4940307 -0.188979E-05  0.475E-02    1.72       1.0  T
   3    -74.4940285  0.219362E-05  0.911E-03    1.72       1.6  T
   4    -74.4940311 -0.267286E-05  0.425E-03    1.72       3.4  T
   5    -74.4940314 -0.257385E-06  0.125E-03    1.72      11.7  T
   6    -74.4940314 -0.415203E-07  0.566E-04    1.72      25.8  T
   7    -74.4940314 -0.896500E-08  0.283E-04    1.72      51.6  T
     SCC iter.                  ...        0 min,  0.020 sec
     gradient                   ...        0 min,  0.006 sec
 * total energy  :   -73.4846799 Eh     change       -0.1230439E-03 Eh
   gradient norm :     0.0059629 Eh/α   predicted    -0.8998000E-04 ( -26.87%)
   displ. norm   :     0.3738249 α      lambda       -0.2125558E-03
   maximum displ.:     0.1953610 α      in ANC's #8, #7, #3, ...
 * RMSD in coord.:     0.7351028 α      energy gain  -0.3475133E-01 Eh

generating ANC from exact Hessian ...
Using Lindh-Hessian (1995)
 Shifting diagonal of input Hessian by   9.911371159259278E-003
 Lowest  eigenvalues of input Hessian
    0.000000    0.000000    0.000000    0.000000    0.000000    0.000000
    0.010000    0.010205    0.010408    0.010542    0.010777    0.011107
    0.011518    0.012029    0.012256    0.012417    0.012807    0.014604
 Highest eigenvalues
    1.936174    1.977645    2.010272    2.019236    2.084707    2.205009
 

........................................................................
.............................. CYCLE   21 ..............................
........................................................................

 iter      E             dE          RMSdq      gap      omega  full diag
   1    -74.4931528 -0.744932E+02  0.117E-01    1.71       0.0  T
   2    -74.4931558 -0.295467E-05  0.665E-02    1.72       1.0  T
   3    -74.4931543  0.147863E-05  0.106E-02    1.72       1.4  T
   4    -74.4931560 -0.167984E-05  0.612E-03    1.72       2.4  T
   5    -74.4931567 -0.776055E-06  0.170E-03    1.72       8.6  T
   6    -74.4931568 -0.969956E-07  0.682E-04    1.72      21.4  T
   7    -74.4931568 -0.940361E-08  0.337E-04    1.72      43.3  T
     SCC iter.                  ...        0 min,  0.020 sec
     gradient                   ...        0 min,  0.006 sec
 * total energy  :   -73.4848323 Eh     change       -0.1524348E-03 Eh
   gradient norm :     0.0069222 Eh/α   predicted     0.0000000E+00 (-100.00%)
   displ. norm   :     0.0579582 α      lambda       -0.7449526E-04
   maximum displ.:     0.0248936 α      in ANC's #13, #12, #21, ...

........................................................................
.............................. CYCLE   22 ..............................
........................................................................

 iter      E             dE          RMSdq      gap      omega  full diag
   1    -74.4950106 -0.744950E+02  0.223E-02    1.73       0.0  T
   2    -74.4950113 -0.716340E-06  0.132E-02    1.72       1.1  T
   3    -74.4950097  0.164401E-05  0.622E-03    1.72       2.3  T
   4    -74.4950116 -0.186600E-05  0.141E-03    1.72      10.4  T
   5    -74.4950116 -0.538581E-07  0.510E-04    1.72      28.6  T
   6    -74.4950116 -0.323398E-08  0.263E-04    1.72      55.6  T
     SCC iter.                  ...        0 min,  0.016 sec
     gradient                   ...        0 min,  0.006 sec
 * total energy  :   -73.4849142 Eh     change       -0.8192432E-04 Eh
   gradient norm :     0.0029075 Eh/α   predicted    -0.5214974E-04 ( -36.34%)
   displ. norm   :     0.1451414 α      lambda       -0.1398441E-03
   maximum displ.:     0.0580759 α      in ANC's #13, #12, #8, ...

........................................................................
.............................. CYCLE   23 ..............................
........................................................................

 iter      E             dE          RMSdq      gap      omega  full diag
   1    -74.4965979 -0.744966E+02  0.506E-02    1.73       0.0  T
   2    -74.4965991 -0.118118E-05  0.295E-02    1.73       1.0  T
   3    -74.4965961  0.295096E-05  0.820E-03    1.73       1.8  T
   4    -74.4965994 -0.326990E-05  0.232E-03    1.73       6.3  T
   5    -74.4965995 -0.130147E-06  0.902E-04    1.73      16.2  T
   6    -74.4965995 -0.135194E-07  0.379E-04    1.73      38.5  T
     SCC iter.                  ...        0 min,  0.016 sec
     gradient                   ...        0 min,  0.006 sec
 * total energy  :   -73.4850080 Eh     change       -0.9376929E-04 Eh
   gradient norm :     0.0031051 Eh/α   predicted    -0.7139663E-04 ( -23.86%)
   displ. norm   :     0.1379557 α      lambda       -0.6970588E-04
   maximum displ.:     0.0520926 α      in ANC's #2, #8, #7, ...

........................................................................
.............................. CYCLE   24 ..............................
........................................................................

 iter      E             dE          RMSdq      gap      omega  full diag
   1    -74.4963904 -0.744964E+02  0.468E-02    1.72       0.0  T
   2    -74.4963908 -0.476382E-06  0.272E-02    1.73       1.0  T
   3    -74.4963907  0.133469E-06  0.331E-03    1.73       4.4  T
   4    -74.4963909 -0.243385E-06  0.156E-03    1.73       9.3  T
   5    -74.4963910 -0.327477E-07  0.682E-04    1.73      21.4  T
   6    -74.4963910 -0.158350E-07  0.271E-04    1.73      53.8  T
     SCC iter.                  ...        0 min,  0.016 sec
     gradient                   ...        0 min,  0.006 sec
 * total energy  :   -73.4850620 Eh     change       -0.5399262E-04 Eh
   gradient norm :     0.0039013 Eh/α   predicted    -0.3551643E-04 ( -34.22%)
   displ. norm   :     0.2160335 α      lambda       -0.8918434E-04
   maximum displ.:     0.0911015 α      in ANC's #2, #8, #7, ...

........................................................................
.............................. CYCLE   25 ..............................
........................................................................

 iter      E             dE          RMSdq      gap      omega  full diag
   1    -74.4952232 -0.744952E+02  0.722E-02    1.72       0.0  T
   2    -74.4952246 -0.142333E-05  0.420E-02    1.72       1.0  T
   3    -74.4952241  0.548922E-06  0.589E-03    1.73       2.5  T
   4    -74.4952249 -0.800252E-06  0.283E-03    1.73       5.2  T
   5    -74.4952250 -0.119673E-06  0.116E-03    1.73      12.5  T
   6    -74.4952250 -0.374681E-07  0.474E-04    1.73      30.8  T
   7    -74.4952250 -0.498765E-08  0.237E-04    1.73      61.7  T
     SCC iter.                  ...        0 min,  0.018 sec
     gradient                   ...        0 min,  0.006 sec
 * total energy  :   -73.4851268 Eh     change       -0.6482975E-04 Eh
   gradient norm :     0.0034807 Eh/α   predicted    -0.4673584E-04 ( -27.91%)
   displ. norm   :     0.2080155 α      lambda       -0.7244351E-04
   maximum displ.:     0.0987216 α      in ANC's #2, #8, #7, ...

........................................................................
.............................. CYCLE   26 ..............................
........................................................................

 iter      E             dE          RMSdq      gap      omega  full diag
   1    -74.4942739 -0.744943E+02  0.678E-02    1.72       0.0  T
   2    -74.4942752 -0.132596E-05  0.392E-02    1.72       1.0  T
   3    -74.4942742  0.977261E-06  0.670E-03    1.73       2.2  T
   4    -74.4942755 -0.123243E-05  0.288E-03    1.73       5.1  T
   5    -74.4942756 -0.120771E-06  0.114E-03    1.73      12.8  T
   6    -74.4942756 -0.336066E-07  0.485E-04    1.73      30.0  T
   7    -74.4942756 -0.651407E-08  0.212E-04    1.73      68.9  T
     SCC iter.                  ...        0 min,  0.019 sec
     gradient                   ...        0 min,  0.006 sec
 * total energy  :   -73.4851820 Eh     change       -0.5516842E-04 Eh
   gradient norm :     0.0030768 Eh/α   predicted    -0.3779076E-04 ( -31.50%)
   displ. norm   :     0.2128482 α      lambda       -0.8055581E-04
   maximum displ.:     0.1109078 α      in ANC's #2, #8, #7, ...

........................................................................
.............................. CYCLE   27 ..............................
........................................................................

 iter      E             dE          RMSdq      gap      omega  full diag
   1    -74.4941604 -0.744942E+02  0.673E-02    1.72       0.0  T
   2    -74.4941616 -0.125540E-05  0.388E-02    1.73       1.0  T
   3    -74.4941604  0.119228E-05  0.723E-03    1.73       2.0  T
   4    -74.4941620 -0.152306E-05  0.272E-03    1.73       5.4  T
   5    -74.4941620 -0.704994E-07  0.999E-04    1.73      14.6  T
   6    -74.4941621 -0.248117E-07  0.469E-04    1.73      31.1  T
     SCC iter.                  ...        0 min,  0.016 sec
     gradient                   ...        0 min,  0.006 sec
 * total energy  :   -73.4852444 Eh     change       -0.6246455E-04 Eh
   gradient norm :     0.0033366 Eh/α   predicted    -0.4210799E-04 ( -32.59%)
   displ. norm   :     0.2210984 α      lambda       -0.8572031E-04
   maximum displ.:     0.1238626 α      in ANC's #2, #8, #7, ...

........................................................................
.............................. CYCLE   28 ..............................
........................................................................

 iter      E             dE          RMSdq      gap      omega  full diag
   1    -74.4948375 -0.744948E+02  0.686E-02    1.73       0.0  T
   2    -74.4948387 -0.117582E-05  0.396E-02    1.73       1.0  T
   3    -74.4948376  0.105352E-05  0.695E-03    1.74       2.1  T
   4    -74.4948390 -0.139294E-05  0.243E-03    1.74       6.0  T
   5    -74.4948391 -0.484264E-07  0.729E-04    1.73      20.0  T
   6    -74.4948391 -0.808465E-08  0.330E-04    1.73      44.2  T
     SCC iter.                  ...        0 min,  0.016 sec
     gradient                   ...        0 min,  0.005 sec
 * total energy  :   -73.4853111 Eh     change       -0.6661643E-04 Eh
   gradient norm :     0.0040040 Eh/α   predicted    -0.4495598E-04 ( -32.52%)
   displ. norm   :     0.2346923 α      lambda       -0.8293805E-04
   maximum displ.:     0.1384309 α      in ANC's #2, #8, #7, ...

........................................................................
.............................. CYCLE   29 ..............................
........................................................................

 iter      E             dE          RMSdq      gap      omega  full diag
   1    -74.4954941 -0.744955E+02  0.721E-02    1.73       0.0  T
   2    -74.4954952 -0.103757E-05  0.420E-02    1.74       1.0  T
   3    -74.4954942  0.985588E-06  0.649E-03    1.74       2.2  T
   4    -74.4954955 -0.129398E-05  0.224E-03    1.74       6.5  T
   5    -74.4954955 -0.367569E-07  0.924E-04    1.74      15.8  T
   6    -74.4954955 -0.207312E-07  0.426E-04    1.74      34.3  T
     SCC iter.                  ...        0 min,  0.017 sec
     gradient                   ...        0 min,  0.005 sec
 * total energy  :   -73.4853773 Eh     change       -0.6627852E-04 Eh
   gradient norm :     0.0038780 Eh/α   predicted    -0.4375596E-04 ( -33.98%)
   displ. norm   :     0.2614463 α      lambda       -0.8283110E-04
   maximum displ.:     0.1599893 α      in ANC's #2, #8, #7, ...

........................................................................
.............................. CYCLE   30 ..............................
........................................................................

 iter      E             dE          RMSdq      gap      omega  full diag
   1    -74.4957697 -0.744958E+02  0.797E-02    1.74       0.0  T
   2    -74.4957708 -0.107177E-05  0.466E-02    1.74       1.0  T
   3    -74.4957694  0.143508E-05  0.690E-03    1.75       2.1  T
   4    -74.4957711 -0.176013E-05  0.233E-03    1.75       6.3  T
   5    -74.4957712 -0.662886E-07  0.119E-03    1.75      12.2  T
   6    -74.4957712 -0.410743E-07  0.414E-04    1.75      35.2  T
   7    -74.4957712 -0.264225E-08  0.192E-04    1.75      76.0  T
     SCC iter.                  ...        0 min,  0.019 sec
     gradient                   ...        0 min,  0.006 sec
 * total energy  :   -73.4854436 Eh     change       -0.6625014E-04 Eh
   gradient norm :     0.0029577 Eh/α   predicted    -0.4424736E-04 ( -33.21%)
   displ. norm   :     0.2586514 α      lambda       -0.7057321E-04
   maximum displ.:     0.1637384 α      in ANC's #2, #8, #7, ...

........................................................................
.............................. CYCLE   31 ..............................
........................................................................

 iter      E             dE          RMSdq      gap      omega  full diag
   1    -74.4957569 -0.744958E+02  0.781E-02    1.75       0.0  T
   2    -74.4957577 -0.853010E-06  0.457E-02    1.75       1.0  T
   3    -74.4957567  0.105600E-05  0.598E-03    1.75       2.4  T
   4    -74.4957580 -0.134423E-05  0.199E-03    1.75       7.3  T
   5    -74.4957581 -0.468867E-07  0.105E-03    1.75      13.9  T
   6    -74.4957581 -0.299519E-07  0.377E-04    1.75      38.7  T
   7    -74.4957581 -0.205748E-08  0.182E-04    1.75      80.1  T
     SCC iter.                  ...        0 min,  0.019 sec
     gradient                   ...        0 min,  0.008 sec
 * total energy  :   -73.4854992 Eh     change       -0.5560236E-04 Eh
   gradient norm :     0.0022153 Eh/α   predicted    -0.3764929E-04 ( -32.29%)
   displ. norm   :     0.2186876 α      lambda       -0.5076268E-04
   maximum displ.:     0.1437234 α      in ANC's #2, #8, #7, ...

........................................................................
.............................. CYCLE   32 ..............................
........................................................................

 iter      E             dE          RMSdq      gap      omega  full diag
   1    -74.4958699 -0.744959E+02  0.655E-02    1.75       0.0  T
   2    -74.4958704 -0.482458E-06  0.384E-02    1.75       1.0  T
   3    -74.4958700  0.386847E-06  0.408E-03    1.76       3.6  T
   4    -74.4958706 -0.568174E-06  0.142E-03    1.76      10.3  T
   5    -74.4958706 -0.148476E-07  0.740E-04    1.76      19.7  T
   6    -74.4958706 -0.144702E-07  0.301E-04    1.76      48.5  T
     SCC iter.                  ...        0 min,  0.017 sec
     gradient                   ...        0 min,  0.006 sec
 * total energy  :   -73.4855400 Eh     change       -0.4082582E-04 Eh
   gradient norm :     0.0019491 Eh/α   predicted    -0.2659743E-04 ( -34.85%)
   displ. norm   :     0.2737792 α      lambda       -0.3802084E-04
   maximum displ.:     0.1838546 α      in ANC's #2, #8, #4, ...

........................................................................
.............................. CYCLE   33 ..............................
........................................................................

 iter      E             dE          RMSdq      gap      omega  full diag
   1    -74.4958161 -0.744958E+02  0.820E-02    1.75       0.0  T
   2    -74.4958168 -0.701597E-06  0.481E-02    1.75       1.0  T
   3    -74.4958165  0.276143E-06  0.430E-03    1.76       3.4  T
   4    -74.4958171 -0.541837E-06  0.158E-03    1.76       9.2  T
   5    -74.4958171 -0.201768E-07  0.591E-04    1.76      24.7  T
   6    -74.4958171 -0.358087E-08  0.274E-04    1.76      53.2  T
     SCC iter.                  ...        0 min,  0.017 sec
     gradient                   ...        0 min,  0.006 sec
 * total energy  :   -73.4855833 Eh     change       -0.4324567E-04 Eh
   gradient norm :     0.0019175 Eh/α   predicted    -0.1964688E-04 ( -54.57%)
   displ. norm   :     0.1788789 α      lambda       -0.2528434E-04
   maximum displ.:     0.1286777 α      in ANC's #2, #8, #4, ...

........................................................................
.............................. CYCLE   34 ..............................
........................................................................

 iter      E             dE          RMSdq      gap      omega  full diag
   1    -74.4968241 -0.744968E+02  0.533E-02    1.76       0.0  T
   2    -74.4968245 -0.325933E-06  0.312E-02    1.76       1.0  T
   3    -74.4968241  0.316061E-06  0.343E-03    1.76       4.2  T
   4    -74.4968246 -0.430695E-06  0.107E-03    1.76      13.6  T
   5    -74.4968246 -0.125536E-07  0.487E-04    1.76      29.9  T
   6    -74.4968246 -0.393401E-08  0.240E-04    1.76      60.7  T
     SCC iter.                  ...        0 min,  0.016 sec
     gradient                   ...        0 min,  0.004 sec
 * total energy  :   -73.4856145 Eh     change       -0.3122158E-04 Eh
   gradient norm :     0.0020380 Eh/α   predicted    -0.1282457E-04 ( -58.92%)
   displ. norm   :     0.1619597 α      lambda       -0.3307289E-04
   maximum displ.:     0.1068915 α      in ANC's #2, #8, #4, ...

........................................................................
.............................. CYCLE   35 ..............................
........................................................................

 iter      E             dE          RMSdq      gap      omega  full diag
   1    -74.4956836 -0.744957E+02  0.493E-02    1.75       0.0  T
   2    -74.4956842 -0.646750E-06  0.288E-02    1.75       1.0  T
   3    -74.4956835  0.671910E-06  0.462E-03    1.76       3.2  T
   4    -74.4956843 -0.760594E-06  0.164E-03    1.76       8.9  T
   5    -74.4956844 -0.694696E-07  0.688E-04    1.76      21.2  T
   6    -74.4956844 -0.958046E-08  0.281E-04    1.75      51.8  T
     SCC iter.                  ...        0 min,  0.020 sec
     gradient                   ...        0 min,  0.004 sec
 * total energy  :   -73.4856397 Eh     change       -0.2518160E-04 Eh
   gradient norm :     0.0017263 Eh/α   predicted    -0.1697157E-04 ( -32.60%)
   displ. norm   :     0.2431918 α      lambda       -0.3375094E-04
   maximum displ.:     0.1727240 α      in ANC's #2, #4, #8, ...

........................................................................
.............................. CYCLE   36 ..............................
........................................................................

 iter      E             dE          RMSdq      gap      omega  full diag
   1    -74.4965136 -0.744965E+02  0.713E-02    1.75       0.0  T
   2    -74.4965142 -0.646517E-06  0.417E-02    1.75       1.0  T
   3    -74.4965137  0.497802E-06  0.468E-03    1.75       3.1  T
   4    -74.4965144 -0.667913E-06  0.160E-03    1.75       9.1  T
   5    -74.4965144 -0.330797E-07  0.611E-04    1.75      23.9  T
   6    -74.4965144 -0.750326E-08  0.275E-04    1.75      53.0  T
     SCC iter.                  ...        0 min,  0.017 sec
     gradient                   ...        0 min,  0.019 sec
 * total energy  :   -73.4856801 Eh     change       -0.4038998E-04 Eh
   gradient norm :     0.0019293 Eh/α   predicted    -0.1731973E-04 ( -57.12%)
   displ. norm   :     0.2868060 α      lambda       -0.3354203E-04
   maximum displ.:     0.2020477 α      in ANC's #2, #4, #6, ...

........................................................................
.............................. CYCLE   37 ..............................
........................................................................

 iter      E             dE          RMSdq      gap      omega  full diag
   1    -74.4963568 -0.744964E+02  0.820E-02    1.75       0.0  T
   2    -74.4963577 -0.927884E-06  0.479E-02    1.76       1.0  T
   3    -74.4963571  0.591353E-06  0.521E-03    1.76       2.8  T
   4    -74.4963579 -0.770739E-06  0.212E-03    1.76       6.9  T
   5    -74.4963580 -0.778376E-07  0.801E-04    1.76      18.2  T
   6    -74.4963580 -0.133387E-07  0.363E-04    1.76      40.2  T
     SCC iter.                  ...        0 min,  0.038 sec
     gradient                   ...        0 min,  0.005 sec
 * total energy  :   -73.4857207 Eh     change       -0.4065059E-04 Eh
   gradient norm :     0.0019673 Eh/α   predicted    -0.1738924E-04 ( -57.22%)
   displ. norm   :     0.4138708 α      lambda       -0.4775113E-04
   maximum displ.:     0.2906476 α      in ANC's #2, #4, #6, ...

........................................................................
.............................. CYCLE   38 ..............................
........................................................................

 iter      E             dE          RMSdq      gap      omega  full diag
   1    -74.4960904 -0.744961E+02  0.116E-01    1.75       0.0  T
   2    -74.4960921 -0.169759E-05  0.675E-02    1.76       1.0  T
   3    -74.4960912  0.906607E-06  0.707E-03    1.76       2.1  T
   4    -74.4960926 -0.132895E-05  0.282E-03    1.76       5.2  T
   5    -74.4960927 -0.940555E-07  0.103E-03    1.76      14.2  T
   6    -74.4960927 -0.301103E-07  0.438E-04    1.76      33.3  T
   7    -74.4960927 -0.374588E-08  0.223E-04    1.76      65.5  T
     SCC iter.                  ...        0 min,  0.019 sec
     gradient                   ...        0 min,  0.005 sec
 * total energy  :   -73.4857759 Eh     change       -0.5515892E-04 Eh
   gradient norm :     0.0021780 Eh/α   predicted    -0.2569400E-04 ( -53.42%)
   displ. norm   :     0.3842514 α      lambda       -0.5601381E-04
   maximum displ.:     0.2675823 α      in ANC's #2, #4, #6, ...

........................................................................
.............................. CYCLE   39 ..............................
........................................................................

 iter      E             dE          RMSdq      gap      omega  full diag
   1    -74.4949004 -0.744949E+02  0.104E-01    1.75       0.0  T
   2    -74.4949018 -0.137205E-05  0.604E-02    1.76       1.0  T
   3    -74.4949010  0.865532E-06  0.686E-03    1.76       2.1  T
   4    -74.4949021 -0.114097E-05  0.304E-03    1.76       4.8  T
   5    -74.4949022 -0.144536E-06  0.120E-03    1.76      12.1  T
   6    -74.4949023 -0.486608E-07  0.430E-04    1.76      33.9  T
   7    -74.4949023 -0.387104E-08  0.203E-04    1.76      71.9  T
     SCC iter.                  ...        0 min,  0.020 sec
     gradient                   ...        0 min,  0.005 sec
 * total energy  :   -73.4858206 Eh     change       -0.4473475E-04 Eh
   gradient norm :     0.0027223 Eh/α   predicted    -0.3214560E-04 ( -28.14%)
   displ. norm   :     0.4546406 α      lambda       -0.6850220E-04
   maximum displ.:     0.3171593 α      in ANC's #2, #4, #6, ...

........................................................................
.............................. CYCLE   40 ..............................
........................................................................

 iter      E             dE          RMSdq      gap      omega  full diag
   1    -74.4945687 -0.744946E+02  0.117E-01    1.76       0.0  T
   2    -74.4945705 -0.176315E-05  0.680E-02    1.77       1.0  T
   3    -74.4945693  0.113296E-05  0.802E-03    1.77       1.8  T
   4    -74.4945707 -0.138944E-05  0.396E-03    1.77       3.7  T
   5    -74.4945710 -0.303203E-06  0.148E-03    1.77       9.9  T
   6    -74.4945711 -0.783440E-07  0.490E-04    1.77      29.8  T
   7    -74.4945711 -0.354625E-08  0.253E-04    1.77      57.8  T
     SCC iter.                  ...        0 min,  0.022 sec
     gradient                   ...        0 min,  0.005 sec
 * total energy  :   -73.4858694 Eh     change       -0.4877638E-04 Eh
   gradient norm :     0.0033952 Eh/α   predicted    -0.4133236E-04 ( -15.26%)
   displ. norm   :     0.2748527 α      lambda       -0.5367590E-04
   maximum displ.:     0.1847286 α      in ANC's #2, #6, #4, ...

........................................................................
.............................. CYCLE   41 ..............................
........................................................................

 iter      E             dE          RMSdq      gap      omega  full diag
   1    -74.4961249 -0.744961E+02  0.675E-02    1.77       0.0  T
   2    -74.4961257 -0.766889E-06  0.388E-02    1.77       1.0  T
   3    -74.4961251  0.549274E-06  0.571E-03    1.77       2.6  T
   4    -74.4961257 -0.566005E-06  0.309E-03    1.77       4.7  T
   5    -74.4961259 -0.223747E-06  0.100E-03    1.77      14.6  T
   6    -74.4961259 -0.355485E-07  0.303E-04    1.77      48.2  T
   7    -74.4961259 -0.125526E-08  0.159E-04    1.77      92.0  T
     SCC iter.                  ...        0 min,  0.022 sec
     gradient                   ...        0 min,  0.007 sec
 * total energy  :   -73.4859088 Eh     change       -0.3942200E-04 Eh
   gradient norm :     0.0028556 Eh/α   predicted    -0.2886872E-04 ( -26.77%)
   displ. norm   :     0.4276685 α      lambda       -0.6358566E-04
   maximum displ.:     0.2782878 α      in ANC's #2, #6, #4, ...

........................................................................
.............................. CYCLE   42 ..............................
........................................................................

 iter      E             dE          RMSdq      gap      omega  full diag
   1    -74.4940623 -0.744941E+02  0.113E-01    1.76       0.0  T
   2    -74.4940651 -0.278188E-05  0.646E-02    1.77       1.0  T
   3    -74.4940645  0.641362E-06  0.936E-03    1.77       1.6  T
   4    -74.4940654 -0.980685E-06  0.482E-03    1.77       3.0  T
   5    -74.4940658 -0.372299E-06  0.121E-03    1.77      12.0  T
   6    -74.4940659 -0.379385E-07  0.481E-04    1.77      30.3  T
   7    -74.4940659 -0.325466E-08  0.277E-04    1.77      52.7  T
     SCC iter.                  ...        0 min,  0.023 sec
     gradient                   ...        0 min,  0.007 sec
 * total energy  :   -73.4859467 Eh     change       -0.3794472E-04 Eh
   gradient norm :     0.0037198 Eh/α   predicted    -0.3761080E-04 (  -0.88%)
   displ. norm   :     0.1699432 α      lambda       -0.8426754E-04
   maximum displ.:     0.0716904 α      in ANC's #6, #10, #1, ...
 * RMSD in coord.:     0.6921001 α      energy gain  -0.1266883E-02 Eh

generating ANC from exact Hessian ...
Using Lindh-Hessian (1995)
 Shifting diagonal of input Hessian by   9.918616875406155E-003
 Lowest  eigenvalues of input Hessian
    0.000000    0.000000    0.000000    0.000000    0.000000    0.000000
    0.010000    0.010219    0.010494    0.010581    0.010865    0.011097
    0.011590    0.011942    0.012404    0.012567    0.012891    0.014646
 Highest eigenvalues
    1.940866    1.980304    2.014566    2.025157    2.086338    2.211626
 

........................................................................
.............................. CYCLE   43 ..............................
........................................................................

 iter      E             dE          RMSdq      gap      omega  full diag
   1    -74.4986256 -0.744986E+02  0.564E-02    1.77       0.0  T
   2    -74.4986270 -0.131818E-05  0.299E-02    1.77       1.0  T
   3    -74.4986268  0.183568E-06  0.621E-03    1.77       2.3  T
   4    -74.4986271 -0.274143E-06  0.362E-03    1.77       4.0  T
   5    -74.4986273 -0.255776E-06  0.627E-04    1.77      23.3  T
   6    -74.4986273 -0.112380E-07  0.282E-04    1.77      51.7  T
     SCC iter.                  ...        0 min,  0.019 sec
     gradient                   ...        0 min,  0.007 sec
 * total energy  :   -73.4859815 Eh     change       -0.3478144E-04 Eh
   gradient norm :     0.0035586 Eh/α   predicted     0.0000000E+00 (-100.00%)
   displ. norm   :     0.0457734 α      lambda       -0.4623803E-04
   maximum displ.:     0.0240214 α      in ANC's #6, #3, #4, ...

........................................................................
.............................. CYCLE   44 ..............................
........................................................................

 iter      E             dE          RMSdq      gap      omega  full diag
   1    -74.4974249 -0.744974E+02  0.167E-02    1.77       0.0  T
   2    -74.4974251 -0.208279E-06  0.905E-03    1.77       1.6  T
   3    -74.4974250  0.313192E-07  0.207E-03    1.77       7.0  T
   4    -74.4974251 -0.479498E-07  0.109E-03    1.77      13.4  T
   5    -74.4974251 -0.170546E-07  0.317E-04    1.77      46.0  T
   6    -74.4974251 -0.168065E-08  0.137E-04    1.77     106.5  T
     SCC iter.                  ...        0 min,  0.030 sec
     gradient                   ...        0 min,  0.007 sec
 * total energy  :   -73.4860187 Eh     change       -0.3714681E-04 Eh
   gradient norm :     0.0014854 Eh/α   predicted    -0.2345696E-04 ( -36.85%)
   displ. norm   :     0.1955107 α      lambda       -0.7341673E-04
   maximum displ.:     0.1106729 α      in ANC's #6, #3, #4, ...

........................................................................
.............................. CYCLE   45 ..............................
........................................................................

 iter      E             dE          RMSdq      gap      omega  full diag
   1    -74.4947101 -0.744947E+02  0.652E-02    1.77       0.0  T
   2    -74.4947126 -0.253982E-05  0.338E-02    1.77       1.0  T
   3    -74.4947122  0.442030E-06  0.788E-03    1.77       1.9  T
   4    -74.4947128 -0.662463E-06  0.440E-03    1.78       3.3  T
   5    -74.4947131 -0.303888E-06  0.885E-04    1.78      16.5  T
   6    -74.4947131 -0.110380E-07  0.353E-04    1.78      41.3  T
     SCC iter.                  ...        0 min,  0.025 sec
     gradient                   ...        0 min,  0.007 sec
 * total energy  :   -73.4860832 Eh     change       -0.6456619E-04 Eh
   gradient norm :     0.0041369 Eh/α   predicted    -0.3733240E-04 ( -42.18%)
   displ. norm   :     0.1037271 α      lambda       -0.4616609E-04
   maximum displ.:     0.0614426 α      in ANC's #6, #3, #4, ...

........................................................................
.............................. CYCLE   46 ..............................
........................................................................

 iter      E             dE          RMSdq      gap      omega  full diag
   1    -74.4947757 -0.744948E+02  0.345E-02    1.77       0.0  T
   2    -74.4947762 -0.592367E-06  0.176E-02    1.78       1.0  T
   3    -74.4947760  0.217562E-06  0.422E-03    1.78       3.5  T
   4    -74.4947763 -0.263809E-06  0.246E-03    1.78       5.9  T
   5    -74.4947764 -0.103719E-06  0.625E-04    1.78      23.3  T
   6    -74.4947764 -0.106678E-07  0.265E-04    1.78      55.0  T
     SCC iter.                  ...        0 min,  0.019 sec
     gradient                   ...        0 min,  0.006 sec
 * total energy  :   -73.4861272 Eh     change       -0.4394378E-04 Eh
   gradient norm :     0.0041550 Eh/α   predicted    -0.2333175E-04 ( -46.91%)
   displ. norm   :     0.3160225 α      lambda       -0.1569717E-03
   maximum displ.:     0.1816044 α      in ANC's #6, #3, #7, ...

........................................................................
.............................. CYCLE   47 ..............................
........................................................................

 iter      E             dE          RMSdq      gap      omega  full diag
   1    -74.4953209 -0.744953E+02  0.107E-01    1.77       0.0  T
   2    -74.4953264 -0.551270E-05  0.546E-02    1.78       1.0  T
   3    -74.4953247  0.172088E-05  0.128E-02    1.78       1.1  T
   4    -74.4953268 -0.214612E-05  0.751E-03    1.78       1.9  T
   5    -74.4953278 -0.944340E-06  0.192E-03    1.78       7.6  T
   6    -74.4953279 -0.113570E-06  0.750E-04    1.78      19.5  T
   7    -74.4953279 -0.203663E-07  0.250E-04    1.78      58.4  T
     SCC iter.                  ...        0 min,  0.023 sec
     gradient                   ...        0 min,  0.007 sec
 * total energy  :   -73.4862578 Eh     change       -0.1306359E-03 Eh
   gradient norm :     0.0038055 Eh/α   predicted    -0.8633176E-04 ( -33.91%)
   displ. norm   :     0.4119583 α      lambda       -0.1607813E-03
   maximum displ.:     0.2401980 α      in ANC's #6, #3, #7, ...

........................................................................
.............................. CYCLE   48 ..............................
........................................................................

 iter      E             dE          RMSdq      gap      omega  full diag
   1    -74.4946220 -0.744946E+02  0.140E-01    1.78       0.0  T
   2    -74.4946312 -0.916426E-05  0.711E-02    1.79       1.0  T
   3    -74.4946291  0.215454E-05  0.161E-02    1.79       1.0  T
   4    -74.4946319 -0.280349E-05  0.959E-03    1.79       1.5  T
   5    -74.4946334 -0.155751E-05  0.238E-03    1.79       6.1  T
   6    -74.4946336 -0.183386E-06  0.915E-04    1.79      15.9  T
   7    -74.4946336 -0.299275E-07  0.322E-04    1.79      45.4  T
     SCC iter.                  ...        0 min,  0.020 sec
     gradient                   ...        0 min,  0.006 sec
 * total energy  :   -73.4863548 Eh     change       -0.9694114E-04 Eh
   gradient norm :     0.0073727 Eh/α   predicted    -0.9403678E-04 (  -3.00%)
   displ. norm   :     0.1427293 α      lambda       -0.1144823E-03
   maximum displ.:     0.0823002 α      in ANC's #6, #3, #7, ...

........................................................................
.............................. CYCLE   49 ..............................
........................................................................

 iter      E             dE          RMSdq      gap      omega  full diag
   1    -74.4969065 -0.744969E+02  0.471E-02    1.79       0.0  T
   2    -74.4969075 -0.972274E-06  0.239E-02    1.79       1.0  T
   3    -74.4969072  0.254668E-06  0.543E-03    1.79       2.7  T
   4    -74.4969076 -0.334666E-06  0.325E-03    1.79       4.5  T
   5    -74.4969077 -0.190531E-06  0.720E-04    1.79      20.3  T
   6    -74.4969078 -0.174122E-07  0.312E-04    1.79      46.8  T
     SCC iter.                  ...        0 min,  0.017 sec
     gradient                   ...        0 min,  0.007 sec
 * total energy  :   -73.4864452 Eh     change       -0.9043209E-04 Eh
   gradient norm :     0.0052152 Eh/α   predicted    -0.5841287E-04 ( -35.41%)
   displ. norm   :     0.3814390 α      lambda       -0.1804558E-03
   maximum displ.:     0.2375891 α      in ANC's #6, #3, #7, ...

........................................................................
.............................. CYCLE   50 ..............................
........................................................................

 iter      E             dE          RMSdq      gap      omega  full diag
   1    -74.4968018 -0.744968E+02  0.125E-01    1.79       0.0  T
   2    -74.4968083 -0.655564E-05  0.634E-02    1.79       1.0  T
   3    -74.4968077  0.591882E-06  0.134E-02    1.80       1.1  T
   4    -74.4968087 -0.945237E-06  0.804E-03    1.80       1.8  T
   5    -74.4968099 -0.119200E-05  0.165E-03    1.80       8.8  T
   6    -74.4968100 -0.902506E-07  0.720E-04    1.80      20.3  T
   7    -74.4968100 -0.176549E-07  0.293E-04    1.80      49.9  T
     SCC iter.                  ...        0 min,  0.019 sec
     gradient                   ...        0 min,  0.006 sec
 * total energy  :   -73.4865888 Eh     change       -0.1435783E-03 Eh
   gradient norm :     0.0054427 Eh/α   predicted    -0.1034096E-03 ( -27.98%)
   displ. norm   :     0.3709098 α      lambda       -0.3047475E-03
   maximum displ.:     0.2456576 α      in ANC's #6, #3, #7, ...

........................................................................
.............................. CYCLE   51 ..............................
........................................................................

 iter      E             dE          RMSdq      gap      omega  full diag
   1    -74.4984317 -0.744984E+02  0.116E-01    1.79       0.0  T
   2    -74.4984371 -0.539403E-05  0.598E-02    1.80       1.0  T
   3    -74.4984370  0.552236E-07  0.121E-02    1.80       1.2  T
   4    -74.4984375 -0.452634E-06  0.689E-03    1.80       2.1  T
   5    -74.4984384 -0.928026E-06  0.103E-03    1.80      14.2  T
   6    -74.4984384 -0.196429E-07  0.487E-04    1.80      30.0  T
   7    -74.4984384 -0.403682E-08  0.274E-04    1.80      53.2  T
     SCC iter.                  ...        0 min,  0.019 sec
     gradient                   ...        0 min,  0.007 sec
 * total energy  :   -73.4867712 Eh     change       -0.1824658E-03 Eh
   gradient norm :     0.0038025 Eh/α   predicted    -0.1733405E-03 (  -5.00%)
   displ. norm   :     0.6857613 α      lambda       -0.2925106E-03
   maximum displ.:     0.4645208 α      in ANC's #6, #3, #7, ...

........................................................................
.............................. CYCLE   52 ..............................
........................................................................

 iter      E             dE          RMSdq      gap      omega  full diag
   1    -74.4877327 -0.744877E+02  0.225E-01    1.80       0.0  T
   2    -74.4877570 -0.242583E-04  0.115E-01    1.81       1.0  T
   3    -74.4877569  0.112785E-06  0.244E-02    1.81       1.0  T
   4    -74.4877592 -0.230332E-05  0.136E-02    1.81       1.1  T
   5    -74.4877621 -0.294980E-05  0.343E-03    1.81       4.3  T
   6    -74.4877625 -0.394935E-06  0.116E-03    1.81      12.6  T
   7    -74.4877625 -0.290077E-07  0.668E-04    1.81      21.8  T
   8    -74.4877625 -0.670340E-08  0.272E-04    1.81      53.6  T
     SCC iter.                  ...        0 min,  0.022 sec
     gradient                   ...        0 min,  0.006 sec
 * total energy  :   -73.4865202 Eh     change        0.2510042E-03 Eh
   gradient norm :     0.0178507 Eh/α   predicted    -0.2152157E-03 (-185.74%)
   displ. norm   :     0.3393858 α      lambda       -0.9332180E-03
   maximum displ.:     0.2169945 α      in ANC's #6, #3, #7, ...

........................................................................
.............................. CYCLE   53 ..............................
........................................................................

 iter      E             dE          RMSdq      gap      omega  full diag
   1    -74.4969905 -0.744970E+02  0.115E-01    1.81       0.0  T
   2    -74.4969988 -0.839253E-05  0.603E-02    1.80       1.0  T
   3    -74.4969992 -0.364346E-06  0.133E-02    1.80       1.1  T
   4    -74.4970001 -0.855309E-06  0.645E-03    1.80       2.3  T
   5    -74.4970002 -0.103941E-06  0.253E-03    1.80       5.8  T
   6    -74.4970004 -0.229968E-06  0.650E-04    1.80      22.4  T
   7    -74.4970004 -0.390598E-08  0.438E-04    1.80      33.3  T
     SCC iter.                  ...        0 min,  0.020 sec
     gradient                   ...        0 min,  0.009 sec
 * total energy  :   -73.4869201 Eh     change       -0.3999011E-03 Eh
   gradient norm :     0.0031378 Eh/α   predicted    -0.5203721E-03 (  30.13%)
   displ. norm   :     0.1004425 α      lambda       -0.5878237E-04
   maximum displ.:     0.0756019 α      in ANC's #6, #3, #9, ...

........................................................................
.............................. CYCLE   54 ..............................
........................................................................

 iter      E             dE          RMSdq      gap      omega  full diag
   1    -74.4973927 -0.744974E+02  0.322E-02    1.80       0.0  T
   2    -74.4973931 -0.394715E-06  0.170E-02    1.80       1.0  T
   3    -74.4973930  0.105284E-06  0.358E-03    1.80       4.1  T
   4    -74.4973931 -0.840062E-07  0.223E-03    1.80       6.5  T
   5    -74.4973932 -0.120205E-06  0.485E-04    1.80      30.1  T
   6    -74.4973932 -0.746266E-08  0.202E-04    1.80      72.3  T
     SCC iter.                  ...        0 min,  0.028 sec
     gradient                   ...        0 min,  0.009 sec
 * total energy  :   -73.4869747 Eh     change       -0.5459197E-04 Eh
   gradient norm :     0.0024609 Eh/α   predicted    -0.2969381E-04 ( -45.61%)
   displ. norm   :     0.5466860 α      lambda       -0.2768844E-03
   maximum displ.:     0.4171030 α      in ANC's #6, #3, #5, ...

........................................................................
.............................. CYCLE   55 ..............................
........................................................................

 iter      E             dE          RMSdq      gap      omega  full diag
   1    -74.4950012 -0.744950E+02  0.172E-01    1.79       0.0  T
   2    -74.4950135 -0.122697E-04  0.905E-02    1.80       1.0  T
   3    -74.4950118  0.164493E-05  0.191E-02    1.80       1.0  T
   4    -74.4950135 -0.166543E-05  0.115E-02    1.81       1.3  T
   5    -74.4950163 -0.282168E-05  0.258E-03    1.80       5.6  T
   6    -74.4950165 -0.219565E-06  0.105E-03    1.80      13.9  T
   7    -74.4950166 -0.350263E-07  0.451E-04    1.80      32.3  T
   8    -74.4950166 -0.157473E-08  0.203E-04    1.80      71.8  T
     SCC iter.                  ...        0 min,  0.022 sec
     gradient                   ...        0 min,  0.006 sec
 * total energy  :   -73.4870985 Eh     change       -0.1237472E-03 Eh
   gradient norm :     0.0076055 Eh/α   predicted    -0.1798170E-03 (  45.31%)
   displ. norm   :     0.0978148 α      lambda       -0.1278174E-03
   maximum displ.:     0.0590355 α      in ANC's #6, #7, #3, ...

........................................................................
.............................. CYCLE   56 ..............................
........................................................................

 iter      E             dE          RMSdq      gap      omega  full diag
   1    -74.4978813 -0.744979E+02  0.354E-02    1.81       0.0  T
   2    -74.4978822 -0.883563E-06  0.188E-02    1.80       1.0  T
   3    -74.4978821  0.514734E-07  0.428E-03    1.80       3.4  T
   4    -74.4978823 -0.158029E-06  0.215E-03    1.80       6.8  T
   5    -74.4978823 -0.168991E-07  0.103E-03    1.80      14.1  T
   6    -74.4978823 -0.439298E-07  0.257E-04    1.80      56.9  T
   7    -74.4978823 -0.114836E-08  0.151E-04    1.80      96.4  T
     SCC iter.                  ...        0 min,  0.019 sec
     gradient                   ...        0 min,  0.006 sec
 * total energy  :   -73.4871649 Eh     change       -0.6644201E-04 Eh
   gradient norm :     0.0023648 Eh/α   predicted    -0.6452155E-04 (  -2.89%)
   displ. norm   :     0.1726756 α      lambda       -0.6463826E-04
   maximum displ.:     0.1225627 α      in ANC's #6, #2, #3, ...

........................................................................
.............................. CYCLE   57 ..............................
........................................................................

 iter      E             dE          RMSdq      gap      omega  full diag
   1    -74.4982380 -0.744982E+02  0.511E-02    1.80       0.0  T
   2    -74.4982387 -0.700319E-06  0.281E-02    1.80       1.0  T
   3    -74.4982387 -0.240966E-07  0.478E-03    1.81       3.1  T
[...]
C9-C8-C3-O6=172.45            C17-C8-C3-C2=111.05           C17-C8-C3-O4=226.84           C17-C8-C3-O6=351.33           
C10-C9-C8-C3=179.86           C10-C9-C8-C17=  0.95          H32-C9-C8-C3=359.97           H32-C9-C8-C17=181.06          
C11-C10-C9-C8=  0.10          C11-C10-C9-H32=179.99         H33-C10-C9-C8=180.66          H33-C10-C9-H32=  0.55         
           -------------------------------------------------
          |                Final Singlepoint                |
           -------------------------------------------------

          ...................................................
          :                      SETUP                      :
          :.................................................:
          :  # basis functions                 128          :
          :  # atomic orbitals                 127          :
          :  # shells                           73          :
          :  # electrons                       132          :
          :  max. iterations                   250          :
          :  Hamiltonian                  GFN2-xTB          :
          :  restarted?                      false          :
          :  GBSA solvation                  false          :
          :  PC potential                    false          :
          :  electronic temp.          300.0000000     K    :
          :  accuracy                    1.0000000          :
          :  -> integral cutoff          0.2500000E+02      :
          :  -> integral neglect         0.1000000E-07      :
          :  -> SCF convergence          0.1000000E-05 Eh   :
          :  -> wf. convergence          0.1000000E-03 e    :
          :  Broyden damping             0.4000000          :
          :  net charge                          0          :
          :  unpaired electrons                  0          :
          ...................................................

 iter      E             dE          RMSdq      gap      omega  full diag
   1    -74.4985605 -0.744986E+02  0.642E-05    1.81       0.0  T
   2    -74.4985605 -0.204352E-10  0.485E-05    1.81     300.8  T
   3    -74.4985605 -0.724754E-10  0.291E-05    1.81     501.4  T

   *** convergence criteria satisfied after 3 iterations ***

         #    Occupation            Energy/Eh            Energy/eV
      -------------------------------------------------------------
         1        2.0000           -0.7227275             -19.6664
       ...           ...                  ...                  ...
        60        2.0000           -0.4264362             -11.6039
        61        2.0000           -0.4187118             -11.3937
        62        2.0000           -0.4173097             -11.3556
        63        2.0000           -0.4106306             -11.1738
        64        2.0000           -0.4022500             -10.9458
        65        2.0000           -0.3848823             -10.4732
        66        2.0000           -0.3662049              -9.9649 (HOMO)
        67                         -0.2995161              -8.1502 (LUMO)
        68                         -0.2410211              -6.5585
        69                         -0.2356036              -6.4111
        70                         -0.2351907              -6.3999
        71                         -0.2234816              -6.0812
       ...                                ...                  ...
       127                          0.6968578              18.9625
      -------------------------------------------------------------
                  HL-Gap            0.0666887 Eh            1.8147 eV
             Fermi-level           -0.3328605 Eh           -9.0576 eV

 SCC (total)                   0 d,  0 h,  0 min,  0.018 sec
 SCC setup                      ...        0 min,  0.000 sec (  0.567%)
 Dispersion                     ...        0 min,  0.000 sec (  1.237%)
 classical contributions        ...        0 min,  0.000 sec (  0.249%)
 integral evaluation            ...        0 min,  0.002 sec ( 11.050%)
 iterations                     ...        0 min,  0.010 sec ( 57.171%)
 molecular gradient             ...        0 min,  0.005 sec ( 28.554%)
 printout                       ...        0 min,  0.000 sec (  1.032%)

         :::::::::::::::::::::::::::::::::::::::::::::::::::::
         ::                     SUMMARY                     ::
         :::::::::::::::::::::::::::::::::::::::::::::::::::::
         :: total energy             -73.487707400899 Eh    ::
         :: gradient norm              0.000499334860 Eh/a0 ::
         :: HOMO-LUMO gap              1.814692574419 eV    ::
         ::.................................................::
         :: SCC energy               -74.498285913484 Eh    ::
         :: -> isotropic ES            0.089557618039 Eh    ::
         :: -> anisotropic ES          0.002313444827 Eh    ::
         :: -> anisotropic XC          0.026779463051 Eh    ::
         :: -> dispersion             -0.049859562069 Eh    ::
         :: repulsion energy           1.010578512585 Eh    ::
         :: add. restraining           0.000000000000 Eh    ::
         :: total charge               0.000000000000 e     ::
         :::::::::::::::::::::::::::::::::::::::::::::::::::::

           -------------------------------------------------
          |                Property Printout                |
           -------------------------------------------------

    * Orbital Energies and Occupations

         #    Occupation            Energy/Eh            Energy/eV
      -------------------------------------------------------------
         1        2.0000           -0.7227275             -19.6664
       ...           ...                  ...                  ...
        54        2.0000           -0.4411730             -12.0049
        55        2.0000           -0.4395030             -11.9595
        56        2.0000           -0.4354197             -11.8484
        57        2.0000           -0.4315079             -11.7419
        58        2.0000           -0.4295690             -11.6892
        59        2.0000           -0.4275388             -11.6339
        60        2.0000           -0.4264362             -11.6039
        61        2.0000           -0.4187118             -11.3937
        62        2.0000           -0.4173097             -11.3556
        63        2.0000           -0.4106306             -11.1738
        64        2.0000           -0.4022500             -10.9458
        65        2.0000           -0.3848823             -10.4732
        66        2.0000           -0.3662049              -9.9649 (HOMO)
        67                         -0.2995161              -8.1502 (LUMO)
        68                         -0.2410211              -6.5585
        69                         -0.2356036              -6.4111
        70                         -0.2351907              -6.3999
        71                         -0.2234816              -6.0812
        72                         -0.2038114              -5.5460
        73                         -0.1666948              -4.5360
        74                         -0.1513517              -4.1185
        75                         -0.1135929              -3.0910
        76                         -0.0906873              -2.4677
        77                         -0.0204968              -0.5577
       ...                                ...                  ...
       127                          0.6968578              18.9625
      -------------------------------------------------------------
                  HL-Gap            0.0666887 Eh            1.8147 eV
             Fermi-level           -0.3328605 Eh           -9.0576 eV

     #   Z          covCN         q      C6AA      α(0)
     1   8 O        0.857    -0.348    20.661     6.094
     2   6 C        2.833     0.211    23.535     7.950
     3   6 C        3.706     0.251    16.865     5.870
     4   8 O        1.701    -0.317    19.294     5.930
     5   6 C        3.647     0.045    20.135     6.448
     6   8 O        1.700    -0.336    19.625     5.981
     7   6 C        3.646     0.045    20.147     6.450
     8   6 C        2.985    -0.016    28.391     8.740
     9   6 C        2.924    -0.032    28.798     8.800
    10   6 C        2.942    -0.043    29.078     8.844
    11   6 C        2.966     0.053    26.816     8.494
    12  16 S        2.079    -0.168   148.146    20.486
    13   6 C        3.792    -0.018    20.908     6.512
    14   6 C        3.720     0.083    19.308     6.276
    15   8 O        1.656    -0.432    21.470     6.255
    16   6 C        2.984    -0.038    28.938     8.824
    17   6 C        2.920    -0.030    28.742     8.792
    18   6 C        2.893    -0.066    29.637     8.926
    19   6 C        2.908    -0.009    28.245     8.714
    20   6 C        2.970     0.017    27.636     8.623
    21   6 C        2.923    -0.027    28.687     8.783
    22   6 C        2.917    -0.027    28.672     8.781
    23   6 C        2.920    -0.024    28.602     8.770
    24   6 C        2.916    -0.027    28.672     8.781
    25   6 C        2.928    -0.028    28.702     8.786
    26   1 H        0.925     0.060     2.194     2.316
    27   1 H        0.924     0.040     2.445     2.446
    28   1 H        0.924     0.030     2.588     2.516
    29   1 H        0.925     0.058     2.222     2.331
    30   1 H        0.924     0.028     2.614     2.528
    31   1 H        0.924     0.048     2.347     2.396
    32   1 H        0.926     0.058     2.223     2.331
    33   1 H        0.926     0.041     2.442     2.444
    34   1 H        0.925     0.057     2.234     2.338
    35   1 H        0.924     0.046     2.367     2.406
    36   1 H        0.924     0.061     2.185     2.312
    37   1 H        0.923     0.030     2.588     2.516
    38   1 H        0.805     0.290     0.750     1.361
    39   1 H        0.926     0.051     2.313     2.378
    40   1 H        0.926     0.057     2.232     2.336
    41   1 H        0.926     0.056     2.245     2.343
    42   1 H        0.925     0.070     2.084     2.257
    43   1 H        0.926     0.041     2.432     2.439
    44   1 H        0.926     0.038     2.477     2.461
    45   1 H        0.926     0.038     2.471     2.458
    46   1 H        0.926     0.038     2.473     2.459
    47   1 H        0.926     0.042     2.423     2.434

 Mol. C6AA /au·bohr⁶  :      27097.646936
 Mol. C8AA /au·bohr⁸  :     682738.970768
 Mol. α(0) /au        :        258.716475


Wiberg/Mayer (AO) data.
largest (>0.10) Wiberg bond orders for each atom

 ---------------------------------------------------------------------------
     #   Z sym  total        # sym  WBO       # sym  WBO       # sym  WBO
 ---------------------------------------------------------------------------
     1   8 O    2.072 --     2 C    1.810
     2   6 C    3.926 --     1 O    1.810    18 C    1.076     3 C    0.899
     3   6 C    3.924 --     4 O    0.974     6 O    0.961     8 C    0.944
                             2 C    0.899
     4   8 O    2.093 --     5 C    0.983     3 C    0.974
     5   6 C    3.947 --     4 O    0.983    26 H    0.980    27 H    0.979
                            28 H    0.978
     6   8 O    2.079 --     7 C    0.982     3 C    0.961
     7   6 C    3.945 --     6 O    0.982    29 H    0.981    31 H    0.979
                            30 H    0.977
     8   6 C    3.982 --     9 C    1.402    17 C    1.393     3 C    0.944
     9   6 C    3.989 --    10 C    1.448     8 C    1.402    32 H    0.965
                            16 C    0.106
    10   6 C    3.989 --     9 C    1.448    11 C    1.389    33 H    0.965
                            17 C    0.101
    11   6 C    3.959 --    10 C    1.389    16 C    1.375    12 S    1.049
    12  16 S    2.245 --    11 C    1.049    13 C    0.985
    13   6 C    3.978 --    14 C    0.996    12 S    0.985    34 H    0.974
                            35 H    0.974
    14   6 C    3.956 --    15 O    1.005    13 C    0.996    36 H    0.971
                            37 H    0.970
    15   8 O    1.972 --    14 C    1.005    38 H    0.901
    16   6 C    3.987 --    17 C    1.463    11 C    1.375    39 H    0.967
                             9 C    0.106
    17   6 C    3.989 --    16 C    1.463     8 C    1.393    40 H    0.964
                            10 C    0.101
    18   6 C    3.988 --    19 C    1.744     2 C    1.076    41 H    0.960
    19   6 C    3.978 --    18 C    1.744    20 C    1.124    42 H    0.957
    20   6 C    3.990 --    25 C    1.360    21 C    1.358    19 C    1.124
    21   6 C    3.990 --    22 C    1.467    20 C    1.358    43 H    0.966
                            24 C    0.104
    22   6 C    3.992 --    21 C    1.467    23 C    1.424    44 H    0.970
                            25 C    0.103
    23   6 C    3.979 --    24 C    1.429    22 C    1.424    45 H    0.971
    24   6 C    3.992 --    25 C    1.462    23 C    1.429    46 H    0.970
                            21 C    0.104
    25   6 C    3.989 --    24 C    1.462    20 C    1.360    47 H    0.968
                            22 C    0.103
    26   1 H    0.996 --     5 C    0.980
    27   1 H    0.998 --     5 C    0.979
    28   1 H    0.999 --     5 C    0.978
    29   1 H    0.996 --     7 C    0.981
    30   1 H    0.999 --     7 C    0.977
    31   1 H    0.998 --     7 C    0.979
    32   1 H    0.997 --     9 C    0.965
    33   1 H    0.998 --    10 C    0.965
    34   1 H    0.996 --    13 C    0.974
    35   1 H    0.998 --    13 C    0.974
    36   1 H    0.996 --    14 C    0.971
    37   1 H    0.999 --    14 C    0.970
    38   1 H    0.916 --    15 O    0.901
    39   1 H    0.997 --    16 C    0.967
    40   1 H    0.996 --    17 C    0.964
    41   1 H    0.997 --    18 C    0.960
    42   1 H    0.995 --    19 C    0.957
    43   1 H    0.998 --    21 C    0.966
    44   1 H    0.998 --    22 C    0.970
    45   1 H    0.998 --    23 C    0.971
    46   1 H    0.998 --    24 C    0.970
    47   1 H    0.998 --    25 C    0.968
 ---------------------------------------------------------------------------

Topologies differ in total number of bonds
Writing topology from bond orders to xtbtopo.mol

molecular dipole:
                 x           y           z       tot (Debye)
 q only:       -0.407       0.218       0.943
   full:       -0.423      -0.180       0.897       2.562
molecular quadrupole (traceless):
                xx          xy          yy          xz          yz          zz
 q only:       14.530     -18.597      -5.317      -5.403      -2.734      -9.214
  q+dip:       14.324     -26.901      -8.278      -5.291      -1.354      -6.045
   full:       15.468     -25.136      -6.630      -7.324      -3.206      -8.838

           -------------------------------------------------
          |                Geometry Summary                 |
           -------------------------------------------------

      molecular mass/u    :      358.4518216
   center of mass at/Å    :        0.1399800       0.1089169      -0.1743111
  moments of inertia/u·Å² :        0.1974589E+04   0.5449571E+04   0.6641485E+04
rotational constants/cm⁻¹ :        0.8537287E-02   0.3093387E-02   0.2538232E-02

 * 42 selected distances

     #   Z          #   Z                                           value/Å
     1   8 O        2   6 C                                       1.2091162
     3   6 C        4   8 O                                       1.4029850
     4   8 O        5   6 C                                       1.4126507
     3   6 C        6   8 O                                       1.4109930
     6   8 O        7   6 C                                       1.4141809
     8   6 C        9   6 C                                       1.3890531
     9   6 C       10   6 C                                       1.3819529
    10   6 C       11   6 C                                       1.3888306
    13   6 C       14   6 C                                       1.5276087 (max)
    14   6 C       15   8 O                                       1.4033967
    11   6 C       16   6 C                                       1.3929573
     8   6 C       17   6 C                                       1.3890653
    16   6 C       17   6 C                                       1.3792193
    18   6 C       19   6 C                                       1.3426375
    20   6 C       21   6 C                                       1.3983955
    21   6 C       22   6 C                                       1.3804826
    22   6 C       23   6 C                                       1.3865921
    23   6 C       24   6 C                                       1.3857105
    20   6 C       25   6 C                                       1.3987911
    24   6 C       25   6 C                                       1.3808846
     5   6 C       26   1 H                                       1.0879285
     5   6 C       27   1 H                                       1.0941867
     5   6 C       28   1 H                                       1.0950464
     7   6 C       29   1 H                                       1.0882664
     7   6 C       30   1 H                                       1.0955909
     7   6 C       31   1 H                                       1.0928799
     9   6 C       32   1 H                                       1.0799755
    10   6 C       33   1 H                                       1.0780652
    13   6 C       34   1 H                                       1.0902685
    13   6 C       35   1 H                                       1.0918829
    14   6 C       36   1 H                                       1.0921486
    14   6 C       37   1 H                                       1.0987127
    15   8 O       38   1 H                                       0.9639694 (min)
    16   6 C       39   1 H                                       1.0791767
    17   6 C       40   1 H                                       1.0779777
    18   6 C       41   1 H                                       1.0785807
    19   6 C       42   1 H                                       1.0844711
    21   6 C       43   1 H                                       1.0787979
    22   6 C       44   1 H                                       1.0801376
    23   6 C       45   1 H                                       1.0797803
    24   6 C       46   1 H                                       1.0800417
    25   6 C       47   1 H                                       1.0804813

 * 4 distinct bonds (by element types)

   Z      Z             #   av. dist./Å        max./Å        min./Å
   1 H    6 C          21     1.0859237     1.0987127     1.0779777
   6 C    6 C          14     1.3944415     1.5276087     1.3426375
   1 H    8 O           1     0.9639694     0.9639694     0.9639694
   6 C    8 O           6     1.3755538     1.4141809     1.2091162


optimized geometry written to: xtbopt.xyz


           -------------------------------------------------
          | TOTAL ENERGY              -73.487707400899 Eh   |
          | GRADIENT NORM               0.000499334860 Eh/α |
          | HOMO-LUMO GAP               1.814692574419 eV   |
           -------------------------------------------------

------------------------------------------------------------------------
 * finished run on 2025/12/01 at 14:23:01.507     
------------------------------------------------------------------------
 total:
 * wall-time:     0 d,  0 h,  0 min,  2.629 sec
 *  cpu-time:     0 d,  0 h,  0 min, 59.935 sec
 * ratio c/w:    22.801 speedup
 SCF:
 * wall-time:     0 d,  0 h,  0 min,  0.061 sec
 *  cpu-time:     0 d,  0 h,  0 min,  1.382 sec
 * ratio c/w:    22.656 speedup
 ANC optimizer:
 * wall-time:     0 d,  0 h,  0 min,  2.551 sec
 *  cpu-time:     0 d,  0 h,  0 min, 58.371 sec
 * ratio c/w:    22.883 speedup

normal termination of xtb
