      -----------------------------------------------------------      
     |                   =====================                   |     
     |                           x T B                           |     
     |                   =====================                   |     
     |                         S. Grimme                         |     
     |          Mulliken Center for Theoretical Chemistry        |     
     |                    University of Bonn                     |     
      -----------------------------------------------------------      

   * xtb version 6.7.1 (edcfbbe) compiled by 'albert@albert-system' on 2024-07-22

   xtb is free software: you can redistribute it and/or modify it under
   the terms of the GNU Lesser General Public License as published by
   the Free Software Foundation, either version 3 of the License, or
   (at your option) any later version.
   
   xtb is distributed in the hope that it will be useful,
   but WITHOUT ANY WARRANTY; without even the implied warranty of
   MERCHANTABILITY or FITNESS FOR A PARTICULAR PURPOSE.  See the
   GNU Lesser General Public License for more details.
   
   Cite this work as:
   * C. Bannwarth, E. Caldeweyher, S. Ehlert, A. Hansen, P. Pracht,
     J. Seibert, S. Spicher, S. Grimme, WIREs Comput. Mol. Sci., 2020, 11,
     e01493. DOI: 10.1002/wcms.1493
   
   for GFN2-xTB:
   * C. Bannwarth, S. Ehlert and S. Grimme., J. Chem. Theory Comput., 2019,
     15, 1652-1671. DOI: 10.1021/acs.jctc.8b01176
   for GFN1-xTB:
   * S. Grimme, C. Bannwarth, P. Shushkov, J. Chem. Theory Comput., 2017,
     13, 1989-2009. DOI: 10.1021/acs.jctc.7b00118
   for GFN0-xTB:
   * P. Pracht, E. Caldeweyher, S. Ehlert, S. Grimme, ChemRxiv, 2019, preprint.
     DOI: 10.26434/chemrxiv.8326202.v1
   for GFN-FF:
   * S. Spicher and S. Grimme, Angew. Chem. Int. Ed., 2020, 59, 15665-15673.
     DOI: 10.1002/anie.202004239
   
   for ALPB and GBSA implicit solvation:
   * S. Ehlert, M. Stahn, S. Spicher, S. Grimme, J. Chem. Theory Comput.,
     2021, 17, 4250-4261. DOI: 10.1021/acs.jctc.1c00471
   
   for ddCOSMO and CPCM-X implicit solvation:
   * M. Stahn, S. Ehlert, S. Grimme, J. Phys. Chem. A,
     2023, XX, XXXX-XXXX. DOI: 10.1021/acs.jpca.3c04382
   
   for DFT-D4:
   * E. Caldeweyher, C. Bannwarth and S. Grimme, J. Chem. Phys., 2017,
     147, 034112. DOI: 10.1063/1.4993215
   * E. Caldeweyher, S. Ehlert, A. Hansen, H. Neugebauer, S. Spicher,
     C. Bannwarth and S. Grimme, J. Chem. Phys., 2019, 150, 154122.
     DOI: 10.1063/1.5090222
   * E. Caldeweyher, J.-M. Mewes, S. Ehlert and S. Grimme, Phys. Chem. Chem. Phys.
     2020, 22, 8499-8512. DOI: 10.1039/D0CP00502A
   
   for sTDA-xTB:
   * S. Grimme and C. Bannwarth, J. Chem. Phys., 2016, 145, 054103.
     DOI: 10.1063/1.4959605
   
   in the mass-spec context:
   * V. Asgeirsson, C. Bauer and S. Grimme, Chem. Sci., 2017, 8, 4879.
     DOI: 10.1039/c7sc00601b
   * J. Koopman and S. Grimme, ACS Omega 2019, 4, 12, 15120-15133.
     DOI: 10.1021/acsomega.9b02011
   
   for metadynamics refer to:
   * S. Grimme, J. Chem. Theory Comput., 2019, 155, 2847-2862
     DOI: 10.1021/acs.jctc.9b00143
   
   for SPH calculations refer to:
   * S. Spicher and S. Grimme, J. Chem. Theory Comput., 2021, 17, 1701-1714
     DOI: 10.1021/acs.jctc.0c01306
   
   for ONIOM refer to:
   * C. Plett, A. Katbashev, S. Ehlert, S. Grimme, M. Bursch,
     Phys. Chem. Chem. Phys., 2023, 25, 17860-17868. DOI: 10.1039/D3CP02178E
   
   for DIPRO refer to:
   * J. Kohn, N. Gildemeister, S. Grimme, D. Fazzi, A. Hansen,
     J. Chem. Phys., 2023, just accepted.
   
   for PTB refer to:
   * S. Grimme, M. Mueller, A. Hansen, J. Chem. Phys., 2023, 158, 124111.
     DOI: 10.1063/5.0137838
   
   with help from (in alphabetical order)
   P. Atkinson, C. Bannwarth, F. Bohle, G. Brandenburg, E. Caldeweyher
   M. Checinski, S. Dohm, S. Ehlert, S. Ehrlich, I. Gerasimov, C. Hölzer
   A. Katbashev, J. Kohn, J. Koopman, C. Lavigne, S. Lehtola, F. März, M. Müller,
   F. Musil, H. Neugebauer, J. Pisarek, C. Plett, P. Pracht, F. Pultar,
   J. Seibert, P. Shushkov, S. Spicher, M. Stahn, M. Steiner, T. Strunk,
   J. Stückrath, T. Rose, and J. Unsleber
   
 * started run on 2025/12/01 at 14:22:56.151     
   ID    Z sym.   atoms
    1    8 O      1, 4, 6, 15
    2    6 C      2, 3, 5, 7-11, 13, 14, 16-25
    3   16 S      12
    4    1 H      26-47

           -------------------------------------------------
          |                Calculation Setup                |
           -------------------------------------------------

          program call               : xtb pipeline_data/3_conformer_xyz/acrylates/rdkit/QXLXSQHHHGJQDK-MDWZMJQESA-N_conf85.xyz --opt --gfn 2-xTB --iterations 250
          coordinate file            : pipeline_data/3_conformer_xyz/acrylates/rdkit/QXLXSQHHHGJQDK-MDWZMJQESA-N_conf85.xyz
          omp threads                :                    24

########################################################################
[WARNING] Please study the warnings concerning your input carefully
-1- readin_getIntValue: could not parse '2-xTB'
########################################################################

           -------------------------------------------------
          |                 G F N 2 - x T B                 |
           -------------------------------------------------

        Reference                      10.1021/acs.jctc.8b01176
      * Hamiltonian:
        H0-scaling (s, p, d)           1.850000    2.230000    2.230000
        zeta-weighting                 0.500000
      * Dispersion:
        s8                             2.700000
        a1                             0.520000
        a2                             5.000000
        s9                             5.000000
      * Repulsion:
        kExp                           1.500000    1.000000
        rExp                           1.000000
      * Coulomb:
        alpha                          2.000000
        third order                    shell-resolved
        anisotropic                    true
        a3                             3.000000
        a5                             4.000000
        cn-shift                       1.200000
        cn-exp                         4.000000
        max-rad                        5.000000

q/qsh data taken from xtbrestart
CAMM data taken from xtbrestart

          ...................................................
          :                      SETUP                      :
          :.................................................:
          :  # basis functions                 128          :
          :  # atomic orbitals                 127          :
          :  # shells                           73          :
          :  # electrons                       132          :
          :  max. iterations                   250          :
          :  Hamiltonian                  GFN2-xTB          :
          :  restarted?                       true          :
          :  GBSA solvation                  false          :
          :  PC potential                    false          :
          :  electronic temp.          300.0000000     K    :
          :  accuracy                    1.0000000          :
          :  -> integral cutoff          0.2500000E+02      :
          :  -> integral neglect         0.1000000E-07      :
          :  -> SCF convergence          0.1000000E-05 Eh   :
          :  -> wf. convergence          0.1000000E-03 e    :
          :  Broyden damping             0.4000000          :
          :  net charge                          0          :
          :  unpaired electrons                  0          :
          ...................................................

 iter      E             dE          RMSdq      gap      omega  full diag
   1    -74.4409743 -0.744410E+02  0.575E+00    1.51       0.0  T
   2    -74.4545121 -0.135378E-01  0.332E+00    1.53       1.0  T
   3    -74.4409773  0.135348E-01  0.720E-01    1.34       1.0  T
   4    -74.4581348 -0.171575E-01  0.315E-01    1.39       1.0  T
   5    -74.4593959 -0.126105E-02  0.122E-01    1.40       1.0  T
   6    -74.4597043 -0.308403E-03  0.494E-02    1.40       1.0  T
   7    -74.4597422 -0.379474E-04  0.236E-02    1.42       1.0  T
   8    -74.4597455 -0.327896E-05  0.936E-03    1.42       1.6  T
   9    -74.4597470 -0.151604E-05  0.308E-03    1.42       4.7  T
  10    -74.4597471 -0.132165E-06  0.138E-03    1.42      10.6  T
  11    -74.4597472 -0.303225E-07  0.614E-04    1.42      23.7  T
  12    -74.4597472 -0.564856E-08  0.247E-04    1.42      59.1  T

   *** convergence criteria satisfied after 12 iterations ***

         #    Occupation            Energy/Eh            Energy/eV
      -------------------------------------------------------------
         1        2.0000           -0.7316929             -19.9104
       ...           ...                  ...                  ...
        60        2.0000           -0.4243471             -11.5471
        61        2.0000           -0.4239079             -11.5351
        62        2.0000           -0.4163783             -11.3302
        63        2.0000           -0.4140534             -11.2670
        64        2.0000           -0.4093823             -11.1399
        65        2.0000           -0.3919427             -10.6653
        66        2.0000           -0.3646768              -9.9234 (HOMO)
        67                         -0.3125472              -8.5048 (LUMO)
        68                         -0.2574352              -7.0052
        69                         -0.2451283              -6.6703
        70                         -0.2431083              -6.6153
        71                         -0.2375538              -6.4642
       ...                                ...                  ...
       127                          0.6977847              18.9877
      -------------------------------------------------------------
                  HL-Gap            0.0521296 Eh            1.4185 eV
             Fermi-level           -0.3386120 Eh           -9.2141 eV

 SCC (total)                   0 d,  0 h,  0 min,  0.080 sec
 SCC setup                      ...        0 min,  0.000 sec (  0.397%)
 Dispersion                     ...        0 min,  0.001 sec (  0.734%)
 classical contributions        ...        0 min,  0.000 sec (  0.090%)
 integral evaluation            ...        0 min,  0.005 sec (  6.085%)
 iterations                     ...        0 min,  0.066 sec ( 82.539%)
 molecular gradient             ...        0 min,  0.008 sec (  9.437%)
 printout                       ...        0 min,  0.001 sec (  0.672%)

         :::::::::::::::::::::::::::::::::::::::::::::::::::::
         ::                     SUMMARY                     ::
         :::::::::::::::::::::::::::::::::::::::::::::::::::::
         :: total energy             -73.448941543369 Eh    ::
         :: gradient norm              0.171390048106 Eh/a0 ::
         :: HOMO-LUMO gap              1.418518153404 eV    ::
         ::.................................................::
         :: SCC energy               -74.458683262557 Eh    ::
         :: -> isotropic ES            0.092694383210 Eh    ::
         :: -> anisotropic ES          0.003136108262 Eh    ::
         :: -> anisotropic XC          0.025570036080 Eh    ::
         :: -> dispersion             -0.052807904798 Eh    ::
         :: repulsion energy           1.009741719188 Eh    ::
         :: add. restraining           0.000000000000 Eh    ::
         :: total charge              -0.000000000000 e     ::
         :::::::::::::::::::::::::::::::::::::::::::::::::::::

      ----------------------------------------------------------- 
     |                   =====================                   |
     |                        A N C O P T                        |
     |                   =====================                   |
     |               Approximate Normal Coordinate               |
     |                Rational Function Optimizer                |
      ----------------------------------------------------------- 
      ----------------------------------------------------------- 
     |                   =====================                   |
     |                        A N C O P T                        |
     |                   =====================                   |
     |               Approximate Normal Coordinate               |
     |                Rational Function Optimizer                |
      ----------------------------------------------------------- 

          ...................................................
          :                      SETUP                      :
          :.................................................:
          :   optimization level            normal          :
          :   max. optcycles                   200          :
          :   ANC micro-cycles                  20          :
          :   degrees of freedom               135          :
          :.................................................:
          :   RF solver                   davidson          :
          :   write xtbopt.log                true          :
          :   linear?                        false          :
          :   energy convergence         0.5000000E-05 Eh   :
          :   grad. convergence          0.1000000E-02 Eh/α :
          :   maxmium RF displ.          1.0000000          :
          :   Hlow (freq-cutoff)         0.1000000E-01      :
          :   Hmax (freq-cutoff)         5.0000000          :
          :   S6 in model hess.         20.0000000          :
          ...................................................

generating ANC from exact Hessian ...
Using Lindh-Hessian (1995)
 Shifting diagonal of input Hessian by   9.907040830347694E-003
 Lowest  eigenvalues of input Hessian
    0.000000    0.000000    0.000000    0.000000    0.000000    0.000000
    0.010000    0.010275    0.010310    0.010590    0.010800    0.010970
    0.011608    0.012409    0.012581    0.012789    0.013300    0.014972
 Highest eigenvalues
    1.940721    2.013446    2.023957    2.061774    2.073141    2.167529
 

........................................................................
.............................. CYCLE    1 ..............................
........................................................................

 iter      E             dE          RMSdq      gap      omega  full diag
   1    -74.4597472 -0.744597E+02  0.993E-05    1.42       0.0  T
   2    -74.4597472 -0.634230E-10  0.645E-05    1.42     226.0  T
   3    -74.4597472 -0.425757E-10  0.419E-05    1.42     347.9  T
     SCC iter.                  ...        0 min,  0.020 sec
     gradient                   ...        0 min,  0.006 sec
 * total energy  :   -73.4489415 Eh     change       -0.8700027E-09 Eh
   gradient norm :     0.1713874 Eh/α   predicted     0.0000000E+00 (-100.00%)
   displ. norm   :     0.3956916 α      lambda       -0.3562308E-01
   maximum displ.:     0.1476516 α      in ANC's #38, #28, #48, ...

........................................................................
.............................. CYCLE    2 ..............................
........................................................................

 iter      E             dE          RMSdq      gap      omega  full diag
   1    -74.4772862 -0.744773E+02  0.301E-01    1.57       0.0  T
   2    -74.4778356 -0.549429E-03  0.186E-01    1.56       1.0  T
   3    -74.4777341  0.101492E-03  0.894E-02    1.53       1.0  T
   4    -74.4778826 -0.148454E-03  0.428E-02    1.54       1.0  T
   5    -74.4779488 -0.662160E-04  0.113E-02    1.54       1.3  T
   6    -74.4779505 -0.173382E-05  0.512E-03    1.54       2.8  T
   7    -74.4779510 -0.461161E-06  0.223E-03    1.54       6.5  T
   8    -74.4779510 -0.592610E-07  0.102E-03    1.54      14.3  T
   9    -74.4779511 -0.111148E-07  0.454E-04    1.54      32.1  T
  10    -74.4779511 -0.383339E-08  0.143E-04    1.54     101.9  T
     SCC iter.                  ...        0 min,  0.060 sec
     gradient                   ...        0 min,  0.008 sec
 * total energy  :   -73.4736287 Eh     change       -0.2468716E-01 Eh
   gradient norm :     0.0698876 Eh/α   predicted    -0.2062056E-01 ( -16.47%)
   displ. norm   :     0.3388571 α      lambda       -0.1098443E-01
   maximum displ.:     0.1276844 α      in ANC's #19, #28, #38, ...

........................................................................
.............................. CYCLE    3 ..............................
........................................................................

 iter      E             dE          RMSdq      gap      omega  full diag
   1    -74.4876211 -0.744876E+02  0.207E-01    1.64       0.0  T
   2    -74.4879573 -0.336190E-03  0.128E-01    1.63       1.0  T
   3    -74.4879268  0.304744E-04  0.646E-02    1.61       1.0  T
   4    -74.4879878 -0.610213E-04  0.304E-02    1.61       1.0  T
   5    -74.4880232 -0.353273E-04  0.770E-03    1.61       1.9  T
   6    -74.4880243 -0.115668E-05  0.342E-03    1.61       4.3  T
   7    -74.4880246 -0.315828E-06  0.151E-03    1.61       9.7  T
   8    -74.4880247 -0.348375E-07  0.645E-04    1.61      22.6  T
   9    -74.4880247 -0.351532E-08  0.293E-04    1.61      49.9  T
     SCC iter.                  ...        0 min,  0.057 sec
     gradient                   ...        0 min,  0.009 sec
 * total energy  :   -73.4800383 Eh     change       -0.6409612E-02 Eh
   gradient norm :     0.0202971 Eh/α   predicted    -0.6122857E-02 (  -4.47%)
   displ. norm   :     0.2489422 α      lambda       -0.1735625E-02
   maximum displ.:     0.1136778 α      in ANC's #19, #10, #25, ...

........................................................................
.............................. CYCLE    4 ..............................
........................................................................

 iter      E             dE          RMSdq      gap      omega  full diag
   1    -74.4873550 -0.744874E+02  0.812E-02    1.61       0.0  T
   2    -74.4873618 -0.674411E-05  0.488E-02    1.61       1.0  T
   3    -74.4873429  0.188459E-04  0.212E-02    1.61       1.0  T
   4    -74.4873652 -0.222470E-04  0.499E-03    1.61       2.9  T
   5    -74.4873656 -0.438686E-06  0.248E-03    1.61       5.9  T
   6    -74.4873657 -0.140831E-06  0.922E-04    1.61      15.8  T
   7    -74.4873658 -0.128003E-07  0.520E-04    1.61      28.0  T
     SCC iter.                  ...        0 min,  0.038 sec
     gradient                   ...        0 min,  0.008 sec
 * total energy  :   -73.4812343 Eh     change       -0.1195936E-02 Eh
   gradient norm :     0.0094646 Eh/α   predicted    -0.9216496E-03 ( -22.93%)
   displ. norm   :     0.2756897 α      lambda       -0.8379637E-03
   maximum displ.:     0.1175069 α      in ANC's #10, #19, #7, ...

........................................................................
.............................. CYCLE    5 ..............................
........................................................................

 iter      E             dE          RMSdq      gap      omega  full diag
   1    -74.4883253 -0.744883E+02  0.719E-02    1.61       0.0  T
   2    -74.4883281 -0.281562E-05  0.423E-02    1.61       1.0  T
   3    -74.4883221  0.606019E-05  0.126E-02    1.61       1.2  T
   4    -74.4883294 -0.730884E-05  0.294E-03    1.61       5.0  T
   5    -74.4883295 -0.705312E-07  0.145E-03    1.61      10.0  T
   6    -74.4883295 -0.515100E-07  0.654E-04    1.61      22.3  T
   7    -74.4883295 -0.531082E-08  0.368E-04    1.61      39.7  T
     SCC iter.                  ...        0 min,  0.022 sec
     gradient                   ...        0 min,  0.005 sec
 * total energy  :   -73.4818223 Eh     change       -0.5880515E-03 Eh
   gradient norm :     0.0067487 Eh/α   predicted    -0.4508468E-03 ( -23.33%)
   displ. norm   :     0.2865710 α      lambda       -0.5072042E-03
   maximum displ.:     0.1387342 α      in ANC's #10, #7, #9, ...

........................................................................
.............................. CYCLE    6 ..............................
........................................................................

 iter      E             dE          RMSdq      gap      omega  full diag
   1    -74.4893770 -0.744894E+02  0.672E-02    1.60       0.0  T
   2    -74.4893792 -0.214730E-05  0.399E-02    1.60       1.0  T
   3    -74.4893747  0.447185E-05  0.114E-02    1.60       1.3  T
   4    -74.4893801 -0.536364E-05  0.309E-03    1.60       4.7  T
   5    -74.4893802 -0.108466E-06  0.180E-03    1.60       8.1  T
   6    -74.4893802 -0.647467E-07  0.695E-04    1.60      21.0  T
   7    -74.4893803 -0.722298E-08  0.342E-04    1.60      42.6  T
     SCC iter.                  ...        0 min,  0.028 sec
     gradient                   ...        0 min,  0.006 sec
 * total energy  :   -73.4821984 Eh     change       -0.3760993E-03 Eh
   gradient norm :     0.0084912 Eh/α   predicted    -0.2744293E-03 ( -27.03%)
   displ. norm   :     0.3240122 α      lambda       -0.4455017E-03
   maximum displ.:     0.1623204 α      in ANC's #10, #7, #9, ...

........................................................................
.............................. CYCLE    7 ..............................
........................................................................

 iter      E             dE          RMSdq      gap      omega  full diag
   1    -74.4903322 -0.744903E+02  0.728E-02    1.59       0.0  T
   2    -74.4903348 -0.257828E-05  0.433E-02    1.59       1.0  T
   3    -74.4903299  0.491161E-05  0.119E-02    1.59       1.2  T
   4    -74.4903358 -0.588062E-05  0.367E-03    1.59       4.0  T
   5    -74.4903360 -0.202675E-06  0.197E-03    1.59       7.4  T
   6    -74.4903361 -0.689667E-07  0.806E-04    1.59      18.1  T
   7    -74.4903361 -0.857500E-08  0.373E-04    1.59      39.1  T
     SCC iter.                  ...        0 min,  0.019 sec
     gradient                   ...        0 min,  0.005 sec
 * total energy  :   -73.4825212 Eh     change       -0.3227618E-03 Eh
   gradient norm :     0.0089287 Eh/α   predicted    -0.2461378E-03 ( -23.74%)
   displ. norm   :     0.2840648 α      lambda       -0.3305722E-03
   maximum displ.:     0.1356544 α      in ANC's #10, #7, #3, ...

........................................................................
.............................. CYCLE    8 ..............................
........................................................................

 iter      E             dE          RMSdq      gap      omega  full diag
   1    -74.4915587 -0.744916E+02  0.645E-02    1.58       0.0  T
   2    -74.4915602 -0.149409E-05  0.381E-02    1.59       1.0  T
   3    -74.4915577  0.249736E-05  0.859E-03    1.58       1.7  T
   4    -74.4915607 -0.304047E-05  0.307E-03    1.59       4.8  T
   5    -74.4915609 -0.143545E-06  0.158E-03    1.59       9.3  T
   6    -74.4915609 -0.522723E-07  0.642E-04    1.59      22.7  T
   7    -74.4915609 -0.512135E-08  0.290E-04    1.59      50.2  T
     SCC iter.                  ...        0 min,  0.019 sec
     gradient                   ...        0 min,  0.008 sec
 * total energy  :   -73.4827569 Eh     change       -0.2357571E-03 Eh
   gradient norm :     0.0054645 Eh/α   predicted    -0.1786240E-03 ( -24.23%)
   displ. norm   :     0.2416012 α      lambda       -0.2065449E-03
   maximum displ.:     0.1036146 α      in ANC's #7, #3, #10, ...

........................................................................
.............................. CYCLE    9 ..............................
........................................................................

 iter      E             dE          RMSdq      gap      omega  full diag
   1    -74.4919879 -0.744920E+02  0.611E-02    1.58       0.0  T
   2    -74.4919890 -0.109739E-05  0.360E-02    1.58       1.0  T
   3    -74.4919871  0.188247E-05  0.723E-03    1.57       2.0  T
   4    -74.4919895 -0.236537E-05  0.253E-03    1.58       5.8  T
   5    -74.4919895 -0.371112E-07  0.144E-03    1.58      10.1  T
   6    -74.4919896 -0.597645E-07  0.543E-04    1.58      26.8  T
   7    -74.4919896 -0.226919E-08  0.282E-04    1.58      51.7  T
     SCC iter.                  ...        0 min,  0.019 sec
     gradient                   ...        0 min,  0.005 sec
 * total energy  :   -73.4829046 Eh     change       -0.1476655E-03 Eh
   gradient norm :     0.0038215 Eh/α   predicted    -0.1093015E-03 ( -25.98%)
   displ. norm   :     0.2017786 α      lambda       -0.1381453E-03
   maximum displ.:     0.0929734 α      in ANC's #3, #15, #7, ...

........................................................................
.............................. CYCLE   10 ..............................
........................................................................

 iter      E             dE          RMSdq      gap      omega  full diag
   1    -74.4925104 -0.744925E+02  0.550E-02    1.57       0.0  T
   2    -74.4925112 -0.787331E-06  0.323E-02    1.57       1.0  T
   3    -74.4925100  0.118783E-05  0.553E-03    1.57       2.6  T
   4    -74.4925115 -0.149438E-05  0.175E-03    1.57       8.3  T
   5    -74.4925115 -0.258250E-07  0.995E-04    1.57      14.7  T
   6    -74.4925116 -0.252812E-07  0.397E-04    1.57      36.8  T
     SCC iter.                  ...        0 min,  0.016 sec
     gradient                   ...        0 min,  0.006 sec
 * total energy  :   -73.4830015 Eh     change       -0.9686572E-04 Eh
   gradient norm :     0.0035018 Eh/α   predicted    -0.7189028E-04 ( -25.78%)
   displ. norm   :     0.2357202 α      lambda       -0.1146130E-03
   maximum displ.:     0.1194597 α      in ANC's #3, #15, #6, ...

........................................................................
.............................. CYCLE   11 ..............................
........................................................................

 iter      E             dE          RMSdq      gap      omega  full diag
   1    -74.4912871 -0.744913E+02  0.644E-02    1.56       0.0  T
   2    -74.4912881 -0.979947E-06  0.379E-02    1.56       1.0  T
   3    -74.4912853  0.274888E-05  0.779E-03    1.56       1.9  T
   4    -74.4912886 -0.324480E-05  0.211E-03    1.56       6.9  T
   5    -74.4912886 -0.303107E-07  0.132E-03    1.56      11.0  T
   6    -74.4912886 -0.452388E-07  0.493E-04    1.56      29.6  T
   7    -74.4912886 -0.218182E-08  0.229E-04    1.56      63.6  T
     SCC iter.                  ...        0 min,  0.019 sec
     gradient                   ...        0 min,  0.006 sec
 * total energy  :   -73.4830727 Eh     change       -0.7123214E-04 Eh
   gradient norm :     0.0047847 Eh/α   predicted    -0.6049207E-04 ( -15.08%)
   displ. norm   :     0.2103150 α      lambda       -0.1270700E-03
   maximum displ.:     0.1104184 α      in ANC's #3, #15, #11, ...

........................................................................
.............................. CYCLE   12 ..............................
........................................................................

 iter      E             dE          RMSdq      gap      omega  full diag
   1    -74.4926403 -0.744926E+02  0.580E-02    1.56       0.0  T
   2    -74.4926413 -0.963729E-06  0.341E-02    1.56       1.0  T
   3    -74.4926400  0.126000E-05  0.558E-03    1.56       2.6  T
   4    -74.4926415 -0.148659E-05  0.185E-03    1.56       7.9  T
   5    -74.4926416 -0.979960E-07  0.901E-04    1.56      16.2  T
   6    -74.4926416 -0.101047E-07  0.437E-04    1.56      33.3  T
     SCC iter.                  ...        0 min,  0.017 sec
     gradient                   ...        0 min,  0.006 sec
 * total energy  :   -73.4831543 Eh     change       -0.8164622E-04 Eh
   gradient norm :     0.0040546 Eh/α   predicted    -0.6634591E-04 ( -18.74%)
   displ. norm   :     0.2333408 α      lambda       -0.1026662E-03
   maximum displ.:     0.1273042 α      in ANC's #3, #15, #11, ...

........................................................................
.............................. CYCLE   13 ..............................
........................................................................

 iter      E             dE          RMSdq      gap      omega  full diag
   1    -74.4920945 -0.744921E+02  0.613E-02    1.56       0.0  T
   2    -74.4920952 -0.626230E-06  0.360E-02    1.56       1.0  T
   3    -74.4920915  0.363830E-05  0.880E-03    1.56       1.7  T
   4    -74.4920956 -0.408479E-05  0.157E-03    1.56       9.3  T
   5    -74.4920957 -0.440006E-07  0.855E-04    1.56      17.1  T
   6    -74.4920957 -0.122177E-07  0.345E-04    1.56      42.3  T
     SCC iter.                  ...        0 min,  0.016 sec
     gradient                   ...        0 min,  0.006 sec
 * total energy  :   -73.4832368 Eh     change       -0.8248495E-04 Eh
   gradient norm :     0.0037488 Eh/α   predicted    -0.5414139E-04 ( -34.36%)
   displ. norm   :     0.2929443 α      lambda       -0.1457768E-03
   maximum displ.:     0.1574703 α      in ANC's #3, #11, #5, ...

........................................................................
.............................. CYCLE   14 ..............................
........................................................................

 iter      E             dE          RMSdq      gap      omega  full diag
   1    -74.4933742 -0.744934E+02  0.746E-02    1.57       0.0  T
   2    -74.4933757 -0.145901E-05  0.438E-02    1.56       1.0  T
   3    -74.4933684  0.734373E-05  0.125E-02    1.57       1.2  T
   4    -74.4933766 -0.820357E-05  0.257E-03    1.57       5.7  T
   5    -74.4933767 -0.137816E-06  0.122E-03    1.57      11.9  T
   6    -74.4933767 -0.237781E-07  0.464E-04    1.57      31.4  T
   7    -74.4933767 -0.295383E-08  0.246E-04    1.57      59.3  T
     SCC iter.                  ...        0 min,  0.019 sec
     gradient                   ...        0 min,  0.006 sec
 * total energy  :   -73.4833292 Eh     change       -0.9234314E-04 Eh
   gradient norm :     0.0035996 Eh/α   predicted    -0.7914755E-04 ( -14.29%)
   displ. norm   :     0.2524903 α      lambda       -0.7727578E-04
   maximum displ.:     0.1408044 α      in ANC's #3, #15, #8, ...

........................................................................
.............................. CYCLE   15 ..............................
........................................................................

 iter      E             dE          RMSdq      gap      omega  full diag
   1    -74.4914452 -0.744914E+02  0.655E-02    1.57       0.0  T
   2    -74.4914461 -0.905706E-06  0.385E-02    1.57       1.0  T
   3    -74.4914416  0.452078E-05  0.968E-03    1.57       1.5  T
   4    -74.4914466 -0.504850E-05  0.190E-03    1.57       7.7  T
   5    -74.4914467 -0.741355E-07  0.919E-04    1.57      15.9  T
   6    -74.4914467 -0.128701E-07  0.383E-04    1.57      38.1  T
     SCC iter.                  ...        0 min,  0.016 sec
     gradient                   ...        0 min,  0.005 sec
 * total energy  :   -73.4833640 Eh     change       -0.3481300E-04 Eh
   gradient norm :     0.0041057 Eh/α   predicted    -0.4110172E-04 (  18.06%)
   displ. norm   :     0.0785031 α      lambda       -0.4694763E-04
   maximum displ.:     0.0447459 α      in ANC's #3, #9, #8, ...

........................................................................
.............................. CYCLE   16 ..............................
........................................................................

 iter      E             dE          RMSdq      gap      omega  full diag
   1    -74.4930962 -0.744931E+02  0.192E-02    1.57       0.0  T
   2    -74.4930964 -0.192006E-06  0.112E-02    1.57       1.3  T
   3    -74.4930963  0.130115E-06  0.199E-03    1.57       7.3  T
   4    -74.4930964 -0.146009E-06  0.861E-04    1.57      16.9  T
   5    -74.4930964 -0.241408E-07  0.381E-04    1.57      38.3  T
     SCC iter.                  ...        0 min,  0.013 sec
     gradient                   ...        0 min,  0.005 sec
 * total energy  :   -73.4833981 Eh     change       -0.3414308E-04 Eh
   gradient norm :     0.0021614 Eh/α   predicted    -0.2361984E-04 ( -30.82%)
   displ. norm   :     0.1405447 α      lambda       -0.4596109E-04
   maximum displ.:     0.0903181 α      in ANC's #3, #8, #1, ...

........................................................................
.............................. CYCLE   17 ..............................
........................................................................

 iter      E             dE          RMSdq      gap      omega  full diag
   1    -74.4936937 -0.744937E+02  0.367E-02    1.57       0.0  T
   2    -74.4936940 -0.241050E-06  0.215E-02    1.57       1.0  T
   3    -74.4936936  0.389262E-06  0.300E-03    1.57       4.9  T
   4    -74.4936941 -0.473881E-06  0.902E-04    1.57      16.2  T
   5    -74.4936941 -0.100256E-07  0.438E-04    1.57      33.3  T
     SCC iter.                  ...        0 min,  0.014 sec
     gradient                   ...        0 min,  0.005 sec
 * total energy  :   -73.4834320 Eh     change       -0.3393483E-04 Eh
   gradient norm :     0.0019468 Eh/α   predicted    -0.2343710E-04 ( -30.93%)
   displ. norm   :     0.2440360 α      lambda       -0.4242131E-04
   maximum displ.:     0.1566772 α      in ANC's #3, #8, #1, ...

........................................................................
.............................. CYCLE   18 ..............................
........................................................................

 iter      E             dE          RMSdq      gap      omega  full diag
   1    -74.4945656 -0.744946E+02  0.630E-02    1.57       0.0  T
   2    -74.4945663 -0.651601E-06  0.369E-02    1.57       1.0  T
   3    -74.4945650  0.128830E-05  0.533E-03    1.57       2.7  T
   4    -74.4945665 -0.154371E-05  0.160E-03    1.57       9.1  T
   5    -74.4945666 -0.325071E-07  0.721E-04    1.57      20.2  T
   6    -74.4945666 -0.156719E-07  0.301E-04    1.57      48.5  T
     SCC iter.                  ...        0 min,  0.016 sec
     gradient                   ...        0 min,  0.005 sec
 * total energy  :   -73.4834695 Eh     change       -0.3744022E-04 Eh
   gradient norm :     0.0034517 Eh/α   predicted    -0.2177271E-04 ( -41.85%)
   displ. norm   :     0.1594936 α      lambda       -0.3747256E-04
   maximum displ.:     0.1008714 α      in ANC's #3, #8, #1, ...

........................................................................
.............................. CYCLE   19 ..............................
........................................................................

 iter      E             dE          RMSdq      gap      omega  full diag
   1    -74.4934545 -0.744935E+02  0.428E-02    1.56       0.0  T
   2    -74.4934548 -0.321330E-06  0.250E-02    1.56       1.0  T
   3    -74.4934536  0.114238E-05  0.497E-03    1.56       2.9  T
   4    -74.4934549 -0.129292E-05  0.119E-03    1.56      12.3  T
   5    -74.4934549 -0.261537E-07  0.624E-04    1.56      23.4  T
   6    -74.4934550 -0.114924E-07  0.208E-04    1.56      70.0  T
     SCC iter.                  ...        0 min,  0.016 sec
     gradient                   ...        0 min,  0.005 sec
 * total energy  :   -73.4834941 Eh     change       -0.2465320E-04 Eh
   gradient norm :     0.0033200 Eh/α   predicted    -0.1921772E-04 ( -22.05%)
   displ. norm   :     0.1343863 α      lambda       -0.3488897E-04
   maximum displ.:     0.0864653 α      in ANC's #3, #8, #1, ...

........................................................................
.............................. CYCLE   20 ..............................
........................................................................

 iter      E             dE          RMSdq      gap      omega  full diag
   1    -74.4932184 -0.744932E+02  0.362E-02    1.56       0.0  T
   2    -74.4932187 -0.281218E-06  0.211E-02    1.56       1.0  T
   3    -74.4932177  0.992769E-06  0.490E-03    1.56       3.0  T
   4    -74.4932188 -0.110820E-05  0.121E-03    1.56      12.1  T
   5    -74.4932188 -0.325065E-07  0.592E-04    1.56      24.6  T
   6    -74.4932188 -0.938157E-08  0.193E-04    1.56      75.7  T
     SCC iter.                  ...        0 min,  0.019 sec
     gradient                   ...        0 min,  0.006 sec
 * total energy  :   -73.4835218 Eh     change       -0.2769140E-04 Eh
   gradient norm :     0.0020789 Eh/α   predicted    -0.1776079E-04 ( -35.86%)
   displ. norm   :     0.1795495 α      lambda       -0.3750252E-04
   maximum displ.:     0.1133224 α      in ANC's #3, #8, #1, ...
 * RMSD in coord.:     0.4888516 α      energy gain  -0.3458029E-01 Eh

generating ANC from exact Hessian ...
Using Lindh-Hessian (1995)
 Shifting diagonal of input Hessian by   9.909091892871855E-003
 Lowest  eigenvalues of input Hessian
    0.000000    0.000000    0.000000    0.000000    0.000000    0.000000
    0.010000    0.010227    0.010271    0.010547    0.010720    0.010973
    0.011591    0.012126    0.012300    0.012442    0.012858    0.014685
 Highest eigenvalues
    1.910487    1.980934    2.008512    2.017821    2.062304    2.220912
 

........................................................................
.............................. CYCLE   21 ..............................
........................................................................

 iter      E             dE          RMSdq      gap      omega  full diag
   1    -74.4935656 -0.744936E+02  0.492E-02    1.56       0.0  T
   2    -74.4935661 -0.507362E-06  0.285E-02    1.56       1.0  T
   3    -74.4935646  0.152095E-05  0.637E-03    1.56       2.3  T
   4    -74.4935663 -0.168987E-05  0.196E-03    1.56       7.5  T
   5    -74.4935664 -0.759837E-07  0.926E-04    1.56      15.7  T
   6    -74.4935664 -0.232557E-07  0.274E-04    1.56      53.1  T
     SCC iter.                  ...        0 min,  0.016 sec
     gradient                   ...        0 min,  0.006 sec
 * total energy  :   -73.4835476 Eh     change       -0.2578547E-04 Eh
   gradient norm :     0.0014278 Eh/α   predicted     0.0000000E+00 (-100.00%)
   displ. norm   :     0.0350127 α      lambda       -0.1084625E-04
   maximum displ.:     0.0160579 α      in ANC's #16, #11, #15, ...

........................................................................
.............................. CYCLE   22 ..............................
........................................................................

 iter      E             dE          RMSdq      gap      omega  full diag
   1    -74.4937053 -0.744937E+02  0.106E-02    1.56       0.0  T
   2    -74.4937054 -0.796291E-07  0.592E-03    1.57       2.5  T
   3    -74.4937054  0.579342E-07  0.148E-03    1.57       9.9  T
   4    -74.4937054 -0.707972E-07  0.688E-04    1.57      21.2  T
   5    -74.4937054 -0.876854E-08  0.237E-04    1.57      61.6  T
     SCC iter.                  ...        0 min,  0.017 sec
     gradient                   ...        0 min,  0.006 sec
 * total energy  :   -73.4835610 Eh     change       -0.1342504E-04 Eh
   gradient norm :     0.0005134 Eh/α   predicted    -0.5506239E-05 ( -58.99%)
   displ. norm   :     0.1210621 α      lambda       -0.2480457E-04
   maximum displ.:     0.0576150 α      in ANC's #16, #15, #3, ...

........................................................................
.............................. CYCLE   23 ..............................
........................................................................

 iter      E             dE          RMSdq      gap      omega  full diag
   1    -74.4937067 -0.744937E+02  0.349E-02    1.56       0.0  T
   2    -74.4937072 -0.489378E-06  0.191E-02    1.56       1.0  T
   3    -74.4937070  0.172436E-06  0.398E-03    1.57       3.7  T
   4    -74.4937073 -0.223976E-06  0.216E-03    1.57       6.7  T
   5    -74.4937073 -0.672309E-07  0.709E-04    1.57      20.6  T
   6    -74.4937074 -0.201849E-07  0.193E-04    1.57      75.7  T
     SCC iter.                  ...        0 min,  0.025 sec
     gradient                   ...        0 min,  0.009 sec
 * total energy  :   -73.4835858 Eh     change       -0.2472683E-04 Eh
   gradient norm :     0.0015830 Eh/α   predicted    -0.1248577E-04 ( -49.51%)
   displ. norm   :     0.1062445 α      lambda       -0.1297355E-04
   maximum displ.:     0.0499433 α      in ANC's #16, #3, #15, ...

........................................................................
.............................. CYCLE   24 ..............................
........................................................................

 iter      E             dE          RMSdq      gap      omega  full diag
   1    -74.4936357 -0.744936E+02  0.317E-02    1.56       0.0  T
   2    -74.4936360 -0.324120E-06  0.171E-02    1.57       1.0  T
   3    -74.4936360  0.209424E-07  0.324E-03    1.57       4.5  T
   4    -74.4936360 -0.490043E-07  0.175E-03    1.57       8.3  T
   5    -74.4936361 -0.579703E-07  0.247E-04    1.57      59.1  T
   6    -74.4936361 -0.179010E-08  0.104E-04    1.57     139.7  T
     SCC iter.                  ...        0 min,  0.033 sec
     gradient                   ...        0 min,  0.008 sec
 * total energy  :   -73.4835998 Eh     change       -0.1405029E-04 Eh
   gradient norm :     0.0015209 Eh/α   predicted    -0.6519498E-05 ( -53.60%)
   displ. norm   :     0.1321406 α      lambda       -0.1396583E-04
   maximum displ.:     0.0610578 α      in ANC's #3, #16, #8, ...

........................................................................
.............................. CYCLE   25 ..............................
........................................................................

 iter      E             dE          RMSdq      gap      omega  full diag
   1    -74.4936315 -0.744936E+02  0.398E-02    1.56       0.0  T
   2    -74.4936319 -0.480928E-06  0.215E-02    1.57       1.0  T
   3    -74.4936318  0.113831E-06  0.416E-03    1.57       3.5  T
   4    -74.4936319 -0.117785E-06  0.234E-03    1.57       6.2  T
   5    -74.4936321 -0.133375E-06  0.342E-04    1.57      42.7  T
   6    -74.4936321 -0.393105E-08  0.138E-04    1.57     105.6  T
     SCC iter.                  ...        0 min,  0.021 sec
     gradient                   ...        0 min,  0.006 sec
 * total energy  :   -73.4836140 Eh     change       -0.1418728E-04 Eh
   gradient norm :     0.0009287 Eh/α   predicted    -0.7042667E-05 ( -50.36%)
   displ. norm   :     0.1305126 α      lambda       -0.1286503E-04
   maximum displ.:     0.0634492 α      in ANC's #3, #8, #16, ...

........................................................................
.............................. CYCLE   26 ..............................
........................................................................

 iter      E             dE          RMSdq      gap      omega  full diag
   1    -74.4937001 -0.744937E+02  0.405E-02    1.56       0.0  T
   2    -74.4937006 -0.485483E-06  0.221E-02    1.57       1.0  T
   3    -74.4937003  0.307157E-06  0.467E-03    1.57       3.1  T
   4    -74.4937006 -0.330732E-06  0.249E-03    1.57       5.9  T
   5    -74.4937007 -0.121090E-06  0.624E-04    1.57      23.4  T
   6    -74.4937007 -0.159046E-07  0.149E-04    1.57      97.7  T
     SCC iter.                  ...        0 min,  0.016 sec
     gradient                   ...        0 min,  0.006 sec
 * total energy  :   -73.4836273 Eh     change       -0.1331705E-04 Eh
   gradient norm :     0.0009267 Eh/α   predicted    -0.6485416E-05 ( -51.30%)
   displ. norm   :     0.1332198 α      lambda       -0.1238360E-04
   maximum displ.:     0.0727808 α      in ANC's #8, #3, #16, ...

........................................................................
.............................. CYCLE   27 ..............................
........................................................................

 iter      E             dE          RMSdq      gap      omega  full diag
   1    -74.4938319 -0.744938E+02  0.409E-02    1.56       0.0  T
   2    -74.4938323 -0.449698E-06  0.226E-02    1.57       1.0  T
   3    -74.4938319  0.395468E-06  0.480E-03    1.57       3.0  T
   4    -74.4938324 -0.426263E-06  0.249E-03    1.57       5.9  T
   5    -74.4938325 -0.118284E-06  0.660E-04    1.57      22.1  T
   6    -74.4938325 -0.168289E-07  0.181E-04    1.57      80.4  T
     SCC iter.                  ...        0 min,  0.017 sec
     gradient                   ...        0 min,  0.006 sec
 * total energy  :   -73.4836420 Eh     change       -0.1462683E-04 Eh
   gradient norm :     0.0014103 Eh/α   predicted    -0.6245655E-05 ( -57.30%)
   displ. norm   :     0.1304048 α      lambda       -0.1325876E-04
   maximum displ.:     0.0749434 α      in ANC's #8, #3, #5, ...

........................................................................
.............................. CYCLE   28 ..............................
........................................................................

 iter      E             dE          RMSdq      gap      omega  full diag
   1    -74.4939798 -0.744940E+02  0.385E-02    1.57       0.0  T
   2    -74.4939802 -0.375604E-06  0.216E-02    1.57       1.0  T
   3    -74.4939798  0.380606E-06  0.453E-03    1.57       3.2  T
   4    -74.4939802 -0.429211E-06  0.221E-03    1.57       6.6  T
   5    -74.4939803 -0.770802E-07  0.734E-04    1.57      19.9  T
   6    -74.4939803 -0.206722E-07  0.199E-04    1.57      73.2  T
     SCC iter.                  ...        0 min,  0.016 sec
     gradient                   ...        0 min,  0.006 sec
 * total energy  :   -73.4836579 Eh     change       -0.1594467E-04 Eh
   gradient norm :     0.0012702 Eh/α   predicted    -0.6690345E-05 ( -58.04%)
   displ. norm   :     0.1611851 α      lambda       -0.1337793E-04
   maximum displ.:     0.0921323 α      in ANC's #8, #3, #1, ...

........................................................................
.............................. CYCLE   29 ..............................
........................................................................

 iter      E             dE          RMSdq      gap      omega  full diag
   1    -74.4937774 -0.744938E+02  0.480E-02    1.57       0.0  T
   2    -74.4937780 -0.630023E-06  0.267E-02    1.57       1.0  T
   3    -74.4937777  0.314211E-06  0.521E-03    1.57       2.8  T
   4    -74.4937781 -0.356452E-06  0.279E-03    1.57       5.2  T
   5    -74.4937782 -0.138474E-06  0.849E-04    1.57      17.2  T
   6    -74.4937782 -0.275458E-07  0.251E-04    1.57      58.0  T
     SCC iter.                  ...        0 min,  0.017 sec
     gradient                   ...        0 min,  0.005 sec
 * total energy  :   -73.4836731 Eh     change       -0.1517214E-04 Eh
   gradient norm :     0.0007534 Eh/α   predicted    -0.6770482E-05 ( -55.38%)
   displ. norm   :     0.1690796 α      lambda       -0.1103877E-04
   maximum displ.:     0.0950791 α      in ANC's #8, #3, #2, ...

........................................................................
.............................. CYCLE   30 ..............................
........................................................................

 iter      E             dE          RMSdq      gap      omega  full diag
   1    -74.4938154 -0.744938E+02  0.509E-02    1.57       0.0  T
   2    -74.4938162 -0.732036E-06  0.281E-02    1.57       1.0  T
   3    -74.4938158  0.387077E-06  0.567E-03    1.57       2.6  T
   4    -74.4938162 -0.438445E-06  0.304E-03    1.57       4.8  T
   5    -74.4938164 -0.157996E-06  0.935E-04    1.57      15.6  T
   6    -74.4938164 -0.341793E-07  0.247E-04    1.57      59.0  T
     SCC iter.                  ...        0 min,  0.016 sec
     gradient                   ...        0 min,  0.006 sec
 * total energy  :   -73.4836862 Eh     change       -0.1314762E-04 Eh
   gradient norm :     0.0007098 Eh/α   predicted    -0.5592899E-05 ( -57.46%)
   displ. norm   :     0.2413988 α      lambda       -0.1454301E-04
   maximum displ.:     0.1319522 α      in ANC's #8, #3, #2, ...

........................................................................
.............................. CYCLE   31 ..............................
........................................................................

 iter      E             dE          RMSdq      gap      omega  full diag
   1    -74.4936048 -0.744936E+02  0.743E-02    1.57       0.0  T
   2    -74.4936065 -0.170598E-05  0.405E-02    1.58       1.0  T
   3    -74.4936059  0.581459E-06  0.817E-03    1.58       1.8  T
   4    -74.4936066 -0.720955E-06  0.442E-03    1.58       3.3  T
   5    -74.4936070 -0.331818E-06  0.117E-03    1.58      12.4  T
   6    -74.4936070 -0.528549E-07  0.358E-04    1.58      40.7  T
   7    -74.4936070 -0.186962E-08  0.180E-04    1.58      81.2  T
     SCC iter.                  ...        0 min,  0.019 sec
     gradient                   ...        0 min,  0.006 sec
 * total energy  :   -73.4837041 Eh     change       -0.1788157E-04 Eh
   gradient norm :     0.0011962 Eh/α   predicted    -0.7461845E-05 ( -58.27%)
   displ. norm   :     0.3746885 α      lambda       -0.2388432E-04
   maximum displ.:     0.2002123 α      in ANC's #8, #3, #2, ...

........................................................................
.............................. CYCLE   32 ..............................
........................................................................

 iter      E             dE          RMSdq      gap      omega  full diag
   1    -74.4933430 -0.744933E+02  0.116E-01    1.57       0.0  T
   2    -74.4933475 -0.446917E-05  0.628E-02    1.58       1.0  T
   3    -74.4933458  0.176671E-05  0.133E-02    1.59       1.1  T
   4    -74.4933479 -0.217235E-05  0.715E-03    1.59       2.0  T
   5    -74.4933488 -0.828104E-06  0.197E-03    1.59       7.4  T
   6    -74.4933489 -0.148628E-06  0.565E-04    1.59      25.8  T
   7    -74.4933489 -0.520829E-08  0.275E-04    1.59      53.1  T
     SCC iter.                  ...        0 min,  0.019 sec
     gradient                   ...        0 min,  0.006 sec
 * total energy  :   -73.4837308 Eh     change       -0.2670209E-04 Eh
   gradient norm :     0.0019770 Eh/α   predicted    -0.1268742E-04 ( -52.49%)
   displ. norm   :     0.3156266 α      lambda       -0.2672026E-04
   maximum displ.:     0.1578945 α      in ANC's #8, #3, #2, ...

........................................................................
.............................. CYCLE   33 ..............................
........................................................................

 iter      E             dE          RMSdq      gap      omega  full diag
   1    -74.4940244 -0.744940E+02  0.962E-02    1.58       0.0  T
   2    -74.4940278 -0.347159E-05  0.518E-02    1.59       1.0  T
   3    -74.4940263  0.150983E-05  0.116E-02    1.59       1.3  T
   4    -74.4940283 -0.194781E-05  0.607E-03    1.59       2.4  T
   5    -74.4940288 -0.527608E-06  0.171E-03    1.59       8.5  T
   6    -74.4940289 -0.109492E-06  0.513E-04    1.59      28.4  T
   7    -74.4940289 -0.527881E-08  0.240E-04    1.59      60.8  T
     SCC iter.                  ...        0 min,  0.020 sec
     gradient                   ...        0 min,  0.006 sec
 * total energy  :   -73.4837609 Eh     change       -0.3013121E-04 Eh
   gradient norm :     0.0018944 Eh/α   predicted    -0.1395251E-04 ( -53.69%)
   displ. norm   :     0.3013921 α      lambda       -0.2832635E-04
   maximum displ.:     0.1466224 α      in ANC's #2, #3, #8, ...

........................................................................
.............................. CYCLE   34 ..............................
........................................................................

 iter      E             dE          RMSdq      gap      omega  full diag
   1    -74.4939150 -0.744939E+02  0.909E-02    1.58       0.0  T
   2    -74.4939186 -0.363687E-05  0.483E-02    1.59       1.0  T
   3    -74.4939168  0.185924E-05  0.118E-02    1.60       1.2  T
   4    -74.4939191 -0.233283E-05  0.617E-03    1.60       2.4  T
   5    -74.4939196 -0.548946E-06  0.190E-03    1.60       7.7  T
   6    -74.4939198 -0.125057E-06  0.557E-04    1.60      26.2  T
   7    -74.4939198 -0.670137E-08  0.249E-04    1.60      58.6  T
     SCC iter.                  ...        0 min,  0.020 sec
     gradient                   ...        0 min,  0.006 sec
 * total energy  :   -73.4837922 Eh     change       -0.3129234E-04 Eh
   gradient norm :     0.0013702 Eh/α   predicted    -0.1473919E-04 ( -52.90%)
   displ. norm   :     0.2301851 α      lambda       -0.2821649E-04
   maximum displ.:     0.1382555 α      in ANC's #2, #16, #11, ...

........................................................................
.............................. CYCLE   35 ..............................
........................................................................

 iter      E             dE          RMSdq      gap      omega  full diag
   1    -74.4956369 -0.744956E+02  0.590E-02    1.59       0.0  T
   2    -74.4956387 -0.182293E-05  0.313E-02    1.60       1.0  T
   3    -74.4956375  0.123641E-05  0.855E-03    1.60       1.7  T
   4    -74.4956390 -0.153791E-05  0.435E-03    1.60       3.4  T
   5    -74.4956393 -0.247723E-06  0.140E-03    1.60      10.4  T
   6    -74.4956393 -0.609863E-07  0.466E-04    1.60      31.3  T
   7    -74.4956393 -0.543960E-08  0.207E-04    1.60      70.4  T
     SCC iter.                  ...        0 min,  0.020 sec
     gradient                   ...        0 min,  0.006 sec
 * total energy  :   -73.4838146 Eh     change       -0.2235406E-04 Eh
   gradient norm :     0.0022620 Eh/α   predicted    -0.1444280E-04 ( -35.39%)
   displ. norm   :     0.2944094 α      lambda       -0.3294275E-04
   maximum displ.:     0.1596767 α      in ANC's #2, #3, #8, ...

........................................................................
.............................. CYCLE   36 ..............................
........................................................................

 iter      E             dE          RMSdq      gap      omega  full diag
   1    -74.4934022 -0.744934E+02  0.865E-02    1.59       0.0  T
   2    -74.4934061 -0.388152E-05  0.457E-02    1.60       1.0  T
   3    -74.4934044  0.168358E-05  0.116E-02    1.61       1.3  T
   4    -74.4934066 -0.220447E-05  0.605E-03    1.61       2.4  T
   5    -74.4934072 -0.561456E-06  0.169E-03    1.61       8.6  T
   6    -74.4934073 -0.863042E-07  0.631E-04    1.61      23.1  T
   7    -74.4934073 -0.100134E-07  0.251E-04    1.61      58.1  T
     SCC iter.                  ...        0 min,  0.019 sec
     gradient                   ...        0 min,  0.006 sec
 * total energy  :   -73.4838291 Eh     change       -0.1449490E-04 Eh
   gradient norm :     0.0019837 Eh/α   predicted    -0.1790008E-04 (  23.49%)
   displ. norm   :     0.0769341 α      lambda       -0.1948512E-04
   maximum displ.:     0.0422013 α      in ANC's #8, #9, #3, ...

........................................................................
.............................. CYCLE   37 ..............................
........................................................................

 iter      E             dE          RMSdq      gap      omega  full diag
   1    -74.4944614 -0.744945E+02  0.255E-02    1.61       0.0  T
   2    -74.4944616 -0.168066E-06  0.149E-02    1.61       1.0  T
   3    -74.4944614  0.193468E-06  0.244E-03    1.60       6.0  T
   4    -74.4944616 -0.231698E-06  0.954E-04    1.60      15.3  T
   5    -74.4944616 -0.152105E-07  0.452E-04    1.60      32.3  T
     SCC iter.                  ...        0 min,  0.014 sec
     gradient                   ...        0 min,  0.006 sec
 * total energy  :   -73.4838467 Eh     change       -0.1759494E-04 Eh
   gradient norm :     0.0012247 Eh/α   predicted    -0.9769450E-05 ( -44.48%)
   displ. norm   :     0.1044539 α      lambda       -0.1559468E-04
   maximum displ.:     0.0806260 α      in ANC's #2, #9, #16, ...

........................................................................
.............................. CYCLE   38 ..............................
........................................................................

 iter      E             dE          RMSdq      gap      omega  full diag
   1    -74.4948821 -0.744949E+02  0.265E-02    1.60       0.0  T
   2    -74.4948824 -0.259485E-06  0.149E-02    1.60       1.0  T
   3    -74.4948821  0.271416E-06  0.334E-03    1.60       4.4  T
   4    -74.4948824 -0.325664E-06  0.160E-03    1.60       9.1  T
   5    -74.4948825 -0.542929E-07  0.404E-04    1.60      36.1  T
   6    -74.4948825 -0.328669E-08  0.185E-04    1.60      78.7  T
     SCC iter.                  ...        0 min,  0.017 sec
     gradient                   ...        0 min,  0.006 sec
 * total energy  :   -73.4838660 Eh     change       -0.1937068E-04 Eh
   gradient norm :     0.0011706 Eh/α   predicted    -0.7836143E-05 ( -59.55%)
   displ. norm   :     0.1205047 α      lambda       -0.1785076E-04
   maximum displ.:     0.0866912 α      in ANC's #2, #9, #8, ...

........................................................................
.............................. CYCLE   39 ..............................
........................................................................

 iter      E             dE          RMSdq      gap      omega  full diag
   1    -74.4949099 -0.744949E+02  0.334E-02    1.60       0.0  T
   2    -74.4949102 -0.285184E-06  0.192E-02    1.60       1.0  T
   3    -74.4949095  0.670432E-06  0.439E-03    1.60       3.3  T
   4    -74.4949103 -0.760388E-06  0.176E-03    1.60       8.3  T
   5    -74.4949104 -0.515230E-07  0.660E-04    1.60      22.1  T
   6    -74.4949104 -0.146296E-07  0.233E-04    1.60      62.6  T
     SCC iter.                  ...        0 min,  0.017 sec
     gradient                   ...        0 min,  0.006 sec
 * total energy  :   -73.4838874 Eh     change       -0.2138185E-04 Eh
   gradient norm :     0.0008990 Eh/α   predicted    -0.8983842E-05 ( -57.98%)
   displ. norm   :     0.1134702 α      lambda       -0.1483733E-04
   maximum displ.:     0.0837600 α      in ANC's #2, #9, #8, ...

........................................................................
.............................. CYCLE   40 ..............................
........................................................................

 iter      E             dE          RMSdq      gap      omega  full diag
   1    -74.4945875 -0.744946E+02  0.330E-02    1.60       0.0  T
   2    -74.4945878 -0.289878E-06  0.188E-02    1.60       1.0  T
   3    -74.4945875  0.367385E-06  0.381E-03    1.60       3.8  T
   4    -74.4945879 -0.419976E-06  0.191E-03    1.60       7.6  T
   5    -74.4945880 -0.779315E-07  0.619E-04    1.60      23.6  T
   6    -74.4945880 -0.131150E-07  0.244E-04    1.60      59.8  T
     SCC iter.                  ...        0 min,  0.017 sec
     gradient                   ...        0 min,  0.007 sec
 * total energy  :   -73.4839059 Eh     change       -0.1851870E-04 Eh
   gradient norm :     0.0009521 Eh/α   predicted    -0.7463864E-05 ( -59.70%)
   displ. norm   :     0.1213034 α      lambda       -0.1415490E-04
   maximum displ.:     0.0881333 α      in ANC's #2, #8, #9, ...

........................................................................
.............................. CYCLE   41 ..............................
........................................................................

 iter      E             dE          RMSdq      gap      omega  full diag
   1    -74.4942023 -0.744942E+02  0.351E-02    1.60       0.0  T
   2    -74.4942027 -0.353805E-06  0.198E-02    1.60       1.0  T
   3    -74.4942024  0.290530E-06  0.391E-03    1.60       3.7  T
   4    -74.4942027 -0.285662E-06  0.225E-03    1.60       6.5  T
   5    -74.4942028 -0.143158E-06  0.568E-04    1.60      25.7  T
   6    -74.4942028 -0.956690E-08  0.255E-04    1.60      57.3  T
     SCC iter.                  ...        0 min,  0.017 sec
     gradient                   ...        0 min,  0.008 sec
 * total energy  :   -73.4839241 Eh     change       -0.1815422E-04 Eh
   gradient norm :     0.0010376 Eh/α   predicted    -0.7128391E-05 ( -60.73%)
   displ. norm   :     0.1679155 α      lambda       -0.1830369E-04
   maximum displ.:     0.1278264 α      in ANC's #2, #8, #4, ...

........................................................................
.............................. CYCLE   42 ..............................
........................................................................

 iter      E             dE          RMSdq      gap      omega  full diag
   1    -74.4936593 -0.744937E+02  0.471E-02    1.61       0.0  T
   2    -74.4936601 -0.825261E-06  0.259E-02    1.61       1.0  T
   3    -74.4936598  0.308734E-06  0.540E-03    1.61       2.7  T
   4    -74.4936600 -0.229160E-06  0.338E-03    1.61       4.3  T
   5    -74.4936604 -0.363872E-06  0.729E-04    1.61      20.0  T
   6    -74.4936604 -0.152879E-07  0.359E-04    1.61      40.7  T
     SCC iter.                  ...        0 min,  0.017 sec
     gradient                   ...        0 min,  0.005 sec
 * total energy  :   -73.4839466 Eh     change       -0.2250412E-04 Eh
   gradient norm :     0.0014424 Eh/α   predicted    -0.9267729E-05 ( -58.82%)
   displ. norm   :     0.2978509 α      lambda       -0.2759949E-04
   maximum displ.:     0.2362690 α      in ANC's #2, #4, #6, ...
 * RMSD in coord.:     0.4039699 α      energy gain  -0.4247639E-03 Eh

generating ANC from exact Hessian ...
Using Lindh-Hessian (1995)
 Shifting diagonal of input Hessian by   9.894651731862637E-003
 Lowest  eigenvalues of input Hessian
    0.000000    0.000000    0.000000    0.000000    0.000000    0.000000
    0.010000    0.010161    0.010295    0.010530    0.010665    0.011003
    0.011588    0.012075    0.012346    0.012498    0.012802    0.014566
 Highest eigenvalues
    1.910206    1.979725    2.008194    2.019983    2.062115    2.219795
 

........................................................................
.............................. CYCLE   43 ..............................
........................................................................

 iter      E             dE          RMSdq      gap      omega  full diag
   1    -74.4928072 -0.744928E+02  0.809E-02    1.61       0.0  T
   2    -74.4928101 -0.293194E-05  0.438E-02    1.61       1.0  T
   3    -74.4928096  0.529455E-06  0.941E-03    1.61       1.6  T
   4    -74.4928098 -0.164003E-06  0.610E-03    1.62       2.4  T
   5    -74.4928110 -0.128967E-05  0.120E-03    1.62      12.1  T
   6    -74.4928111 -0.317986E-07  0.657E-04    1.62      22.2  T
   7    -74.4928111 -0.748970E-08  0.323E-04    1.62      45.2  T
     SCC iter.                  ...        0 min,  0.036 sec
     gradient                   ...        0 min,  0.005 sec
 * total energy  :   -73.4839744 Eh     change       -0.2782700E-04 Eh
   gradient norm :     0.0026834 Eh/α   predicted     0.0000000E+00 (-100.00%)
   displ. norm   :     0.0235104 α      lambda       -0.2453674E-04
   maximum displ.:     0.0137365 α      in ANC's #2, #9, #7, ...

........................................................................
.............................. CYCLE   44 ..............................
........................................................................

 iter      E             dE          RMSdq      gap      omega  full diag
   1    -74.4942682 -0.744943E+02  0.962E-03    1.61       0.0  T
   2    -74.4942683 -0.630214E-07  0.544E-03    1.61       2.7  T
   3    -74.4942682  0.121947E-07  0.116E-03    1.62      12.5  T
   4    -74.4942683 -0.199590E-07  0.658E-04    1.62      22.2  T
   5    -74.4942683 -0.810036E-08  0.263E-04    1.62      55.4  T
     SCC iter.                  ...        0 min,  0.016 sec
     gradient                   ...        0 min,  0.005 sec
 * total energy  :   -73.4839912 Eh     change       -0.1682443E-04 Eh
   gradient norm :     0.0008941 Eh/α   predicted    -0.1240199E-04 ( -26.29%)
   displ. norm   :     0.0527288 α      lambda       -0.1133968E-04
   maximum displ.:     0.0350662 α      in ANC's #2, #9, #7, ...

........................................................................
.............................. CYCLE   45 ..............................
........................................................................

 iter      E             dE          RMSdq      gap      omega  full diag
   1    -74.4954444 -0.744954E+02  0.154E-02    1.61       0.0  T
   2    -74.4954446 -0.162706E-06  0.836E-03    1.62       1.7  T
   3    -74.4954446  0.156693E-08  0.181E-03    1.62       8.0  T
   4    -74.4954446 -0.186930E-07  0.101E-03    1.62      14.4  T
   5    -74.4954446 -0.165013E-07  0.332E-04    1.62      44.0  T
   6    -74.4954446 -0.119819E-08  0.155E-04    1.62      94.1  T
     SCC iter.                  ...        0 min,  0.020 sec
     gradient                   ...        0 min,  0.004 sec
 * total energy  :   -73.4840011 Eh     change       -0.9855077E-05 Eh
   gradient norm :     0.0011653 Eh/α   predicted    -0.5680352E-05 ( -42.36%)
   displ. norm   :     0.0497231 α      lambda       -0.6915014E-05
   maximum displ.:     0.0341732 α      in ANC's #2, #9, #7, ...

........................................................................
.............................. CYCLE   46 ..............................
........................................................................

 iter      E             dE          RMSdq      gap      omega  full diag
   1    -74.4952109 -0.744952E+02  0.138E-02    1.62       0.0  T
   2    -74.4952110 -0.983562E-07  0.746E-03    1.62       2.0  T
   3    -74.4952110  0.145644E-08  0.154E-03    1.62       9.5  T
   4    -74.4952111 -0.102431E-07  0.870E-04    1.62      16.8  T
   5    -74.4952111 -0.131156E-07  0.257E-04    1.62      56.7  T
     SCC iter.                  ...        0 min,  0.064 sec
     gradient                   ...        0 min,  0.016 sec
 * total energy  :   -73.4840103 Eh     change       -0.9230244E-05 Eh
   gradient norm :     0.0010143 Eh/α   predicted    -0.3462504E-05 ( -62.49%)
   displ. norm   :     0.1050343 α      lambda       -0.1362619E-04
   maximum displ.:     0.0699616 α      in ANC's #2, #9, #3, ...

........................................................................
.............................. CYCLE   47 ..............................
........................................................................

 iter      E             dE          RMSdq      gap      omega  full diag
   1    -74.4944160 -0.744944E+02  0.274E-02    1.62       0.0  T
   2    -74.4944164 -0.374742E-06  0.149E-02    1.62       1.0  T
   3    -74.4944164  0.924881E-08  0.311E-03    1.62       4.7  T
   4    -74.4944164 -0.406936E-07  0.173E-03    1.62       8.4  T
   5    -74.4944165 -0.578289E-07  0.411E-04    1.62      35.5  T
   6    -74.4944165 -0.343316E-08  0.195E-04    1.62      74.8  T
     SCC iter.                  ...        0 min,  0.020 sec
     gradient                   ...        0 min,  0.008 sec
 * total energy  :   -73.4840263 Eh     change       -0.1592852E-04 Eh
   gradient norm :     0.0006225 Eh/α   predicted    -0.6847589E-05 ( -57.01%)
   displ. norm   :     0.1201719 α      lambda       -0.1113280E-04
   maximum displ.:     0.0811819 α      in ANC's #2, #3, #1, ...

........................................................................
.............................. CYCLE   48 ..............................
........................................................................

 iter      E             dE          RMSdq      gap      omega  full diag
   1    -74.4939311 -0.744939E+02  0.306E-02    1.62       0.0  T
   2    -74.4939315 -0.452745E-06  0.165E-02    1.62       1.0  T
   3    -74.4939315  0.417512E-07  0.352E-03    1.62       4.1  T
   4    -74.4939316 -0.842725E-07  0.200E-03    1.62       7.3  T
   5    -74.4939316 -0.700473E-07  0.548E-04    1.62      26.6  T
   6    -74.4939317 -0.813884E-08  0.215E-04    1.62      67.8  T
     SCC iter.                  ...        0 min,  0.022 sec
     gradient                   ...        0 min,  0.008 sec
 * total energy  :   -73.4840395 Eh     change       -0.1328680E-04 Eh
   gradient norm :     0.0010094 Eh/α   predicted    -0.5603899E-05 ( -57.82%)
   displ. norm   :     0.1061885 α      lambda       -0.9491839E-05
   maximum displ.:     0.0727777 α      in ANC's #2, #3, #1, ...

........................................................................
.............................. CYCLE   49 ..............................
........................................................................

 iter      E             dE          RMSdq      gap      omega  full diag
   1    -74.4938355 -0.744938E+02  0.262E-02    1.62       0.0  T
   2    -74.4938359 -0.354407E-06  0.140E-02    1.62       1.0  T
   3    -74.4938358  0.801526E-07  0.327E-03    1.62       4.5  T
   4    -74.4938359 -0.110246E-06  0.184E-03    1.62       7.9  T
   5    -74.4938360 -0.577016E-07  0.504E-04    1.62      28.9  T
   6    -74.4938360 -0.750644E-08  0.192E-04    1.62      75.9  T
     SCC iter.                  ...        0 min,  0.021 sec
     gradient                   ...        0 min,  0.006 sec
 * total energy  :   -73.4840524 Eh     change       -0.1283612E-04 Eh
   gradient norm :     0.0010746 Eh/α   predicted    -0.4770325E-05 ( -62.84%)
   displ. norm   :     0.1395234 α      lambda       -0.1451516E-04
   maximum displ.:     0.0949782 α      in ANC's #2, #3, #1, ...

........................................................................
.............................. CYCLE   50 ..............................
........................................................................

 iter      E             dE          RMSdq      gap      omega  full diag
   1    -74.4940511 -0.744941E+02  0.343E-02    1.62       0.0  T
   2    -74.4940518 -0.650364E-06  0.182E-02    1.63       1.0  T
   3    -74.4940516  0.188805E-06  0.446E-03    1.63       3.3  T
   4    -74.4940519 -0.268878E-06  0.242E-03    1.63       6.0  T
   5    -74.4940520 -0.903210E-07  0.626E-04    1.63      23.3  T
   6    -74.4940520 -0.104675E-07  0.261E-04    1.63      55.9  T
     SCC iter.                  ...        0 min,  0.020 sec
     gradient                   ...        0 min,  0.007 sec
 * total energy  :   -73.4840722 Eh     change       -0.1976582E-04 Eh
   gradient norm :     0.0008985 Eh/α   predicted    -0.7321988E-05 ( -62.96%)
   displ. norm   :     0.2396954 α      lambda       -0.2458068E-04
   maximum displ.:     0.1620764 α      in ANC's #2, #3, #1, ...

........................................................................
.............................. CYCLE   51 ..............................
........................................................................

 iter      E             dE          RMSdq      gap      omega  full diag
   1    -74.4942348 -0.744942E+02  0.591E-02    1.62       0.0  T
   2    -74.4942369 -0.209060E-05  0.311E-02    1.63       1.0  T
   3    -74.4942362  0.700777E-06  0.807E-03    1.63       1.8  T
   4    -74.4942372 -0.104541E-05  0.420E-03    1.63       3.5  T
   5    -74.4942374 -0.228236E-06  0.110E-03    1.63      13.3  T
   6    -74.4942375 -0.325471E-07  0.461E-04    1.63      31.6  T
   7    -74.4942375 -0.576885E-08  0.191E-04    1.63      76.2  T
     SCC iter.                  ...        0 min,  0.025 sec
     gradient                   ...        0 min,  0.005 sec
 * total energy  :   -73.4841043 Eh     change       -0.3218603E-04 Eh
   gradient norm :     0.0010955 Eh/α   predicted    -0.1260461E-04 ( -60.84%)
   displ. norm   :     0.3437114 α      lambda       -0.3237909E-04
   maximum displ.:     0.2322404 α      in ANC's #2, #3, #1, ...

........................................................................
.............................. CYCLE   52 ..............................
........................................................................

 iter      E             dE          RMSdq      gap      omega  full diag
   1    -74.4939152 -0.744939E+02  0.852E-02    1.63       0.0  T
   2    -74.4939200 -0.479155E-05  0.445E-02    1.64       1.0  T
   3    -74.4939186  0.144560E-05  0.117E-02    1.64       1.2  T
   4    -74.4939208 -0.222805E-05  0.609E-03    1.64       2.4  T
   5    -74.4939213 -0.519203E-06  0.132E-03    1.64      11.0  T
   6    -74.4939214 -0.282720E-07  0.691E-04    1.64      21.1  T
   7    -74.4939214 -0.146701E-07  0.281E-04    1.64      51.9  T
     SCC iter.                  ...        0 min,  0.024 sec
     gradient                   ...        0 min,  0.006 sec
 * total energy  :   -73.4841441 Eh     change       -0.3980639E-04 Eh
   gradient norm :     0.0019117 Eh/α   predicted    -0.1704107E-04 ( -57.19%)
   displ. norm   :     0.3829522 α      lambda       -0.3478788E-04
   maximum displ.:     0.2621699 α      in ANC's #2, #3, #1, ...

........................................................................
.............................. CYCLE   53 ..............................
........................................................................

 iter      E             dE          RMSdq      gap      omega  full diag
   1    -74.4935364 -0.744935E+02  0.946E-02    1.64       0.0  T
   2    -74.4935427 -0.632207E-05  0.490E-02    1.65       1.0  T
   3    -74.4935406  0.213257E-05  0.134E-02    1.65       1.1  T
   4    -74.4935440 -0.337466E-05  0.676E-03    1.65       2.2  T
   5    -74.4935446 -0.564589E-06  0.139E-03    1.65      10.5  T
   6    -74.4935446 -0.269931E-07  0.723E-04    1.65      20.2  T
   7    -74.4935446 -0.158613E-07  0.317E-04    1.65      46.0  T
     SCC iter.                  ...        0 min,  0.027 sec
     gradient                   ...        0 min,  0.008 sec
 * total energy  :   -73.4841842 Eh     change       -0.4009496E-04 Eh
   gradient norm :     0.0027398 Eh/α   predicted    -0.1852857E-04 ( -53.79%)
   displ. norm   :     0.2896260 α      lambda       -0.4367977E-04
   maximum displ.:     0.2043974 α      in ANC's #2, #3, #1, ...

........................................................................
.............................. CYCLE   54 ..............................
........................................................................

 iter      E             dE          RMSdq      gap      omega  full diag
   1    -74.4937219 -0.744937E+02  0.709E-02    1.65       0.0  T
   2    -74.4937258 -0.390846E-05  0.364E-02    1.66       1.0  T
   3    -74.4937244  0.140153E-05  0.103E-02    1.66       1.4  T
   4    -74.4937266 -0.221231E-05  0.509E-03    1.66       2.9  T
   5    -74.4937269 -0.315889E-06  0.974E-04    1.66      15.0  T
   6    -74.4937269 -0.777740E-08  0.425E-04    1.66      34.4  T
     SCC iter.                  ...        0 min,  0.020 sec
     gradient                   ...        0 min,  0.006 sec
 * total energy  :   -73.4842195 Eh     change       -0.3526337E-04 Eh
   gradient norm :     0.0025719 Eh/α   predicted    -0.2367265E-04 ( -32.87%)
   displ. norm   :     0.3487735 α      lambda       -0.5841866E-04
   maximum displ.:     0.2535129 α      in ANC's #2, #3, #1, ...

........................................................................
.............................. CYCLE   55 ..............................
........................................................................

 iter      E             dE          RMSdq      gap      omega  full diag
   1    -74.4943886 -0.744944E+02  0.856E-02    1.65       0.0  T
   2    -74.4943947 -0.604206E-05  0.439E-02    1.66       1.0  T
   3    -74.4943927  0.197048E-05  0.123E-02    1.67       1.2  T
   4    -74.4943959 -0.319660E-05  0.620E-03    1.67       2.4  T
   5    -74.4943964 -0.483062E-06  0.128E-03    1.67      11.4  T
   6    -74.4943964 -0.122994E-07  0.575E-04    1.67      25.4  T
   7    -74.4943964 -0.917763E-08  0.287E-04    1.67      50.8  T
     SCC iter.                  ...        0 min,  0.024 sec
     gradient                   ...        0 min,  0.007 sec
 * total energy  :   -73.4842641 Eh     change       -0.4462969E-04 Eh
   gradient norm :     0.0019104 Eh/α   predicted    -0.3276431E-04 ( -26.59%)
   displ. norm   :     0.5185371 α      lambda       -0.4968153E-04
   maximum displ.:     0.3884332 α      in ANC's #2, #3, #1, ...

........................................................................
.............................. CYCLE   56 ..............................
........................................................................

 iter      E             dE          RMSdq      gap      omega  full diag
   1    -74.4943637 -0.744944E+02  0.127E-01    1.66       0.0  T
   2    -74.4943773 -0.136026E-04  0.653E-02    1.67       1.0  T
   3    -74.4943734  0.382604E-05  0.180E-02    1.68       1.0  T
   4    -74.4943798 -0.635087E-05  0.935E-03    1.68       1.6  T
   5    -74.4943810 -0.118292E-05  0.224E-03    1.68       6.5  T
   6    -74.4943810 -0.509979E-07  0.121E-03    1.68      12.1  T
   7    -74.4943811 -0.465451E-07  0.469E-04    1.68      31.1  T
   8    -74.4943811 -0.121459E-08  0.239E-04    1.68      61.1  T
     SCC iter.                  ...        0 min,  0.039 sec
     gradient                   ...        0 min,  0.010 sec
 * total energy  :   -73.4843146 Eh     change       -0.5043743E-04 Eh
   gradient norm :     0.0024168 Eh/α   predicted    -0.2780984E-04 ( -44.86%)
   displ. norm   :     0.2100306 α      lambda       -0.8315610E-04
   maximum displ.:     0.1606737 α      in ANC's #2, #3, #1, ...

........................................................................
.............................. CYCLE   57 ..............................
........................................................................

 iter      E             dE          RMSdq      gap      omega  full diag
   1    -74.4977673 -0.744978E+02  0.624E-02    1.67       0.0  T
   2    -74.4977701 -0.276209E-05  0.343E-02    1.68       1.0  T
   3    -74.4977678  0.229579E-05  0.961E-03    1.68       1.5  T
   4    -74.4977705 -0.273846E-05  0.466E-03    1.68       3.1  T
   5    -74.4977710 -0.410256E-06  0.175E-03    1.68       8.3  T
   6    -74.4977710 -0.508755E-07  0.706E-04    1.68      20.7  T
   7    -74.4977710 -0.137819E-07  0.306E-04    1.68      47.6  T
     SCC iter.                  ...        0 min,  0.061 sec
     gradient                   ...        0 min,  0.011 sec
 * total energy  :   -73.4843163 Eh     change       -0.1745184E-05 Eh
   gradient norm :     0.0047144 Eh/α   predicted    -0.4341785E-04 (2387.87%)
   displ. norm   :     0.3205453 α      lambda       -0.1014638E-03
   maximum displ.:     0.2442626 α      in ANC's #2, #3, #1, ...

........................................................................
.............................. CYCLE   58 ..............................
........................................................................

 iter      E             dE          RMSdq      gap      omega  full diag
   1    -74.4950621 -0.744951E+02  0.786E-02    1.68       0.0  T
   2    -74.4950673 -0.518539E-05  0.408E-02    1.69       1.0  T
   3    -74.4950664  0.882829E-06  0.107E-02    1.69       1.4  T
   4    -74.4950681 -0.166288E-05  0.593E-03    1.69       2.5  T
   5    -74.4950687 -0.594431E-06  0.150E-03    1.69       9.7  T
   6    -74.4950687 -0.318121E-07  0.826E-04    1.69      17.6  T
   7    -74.4950687 -0.202662E-07  0.321E-04    1.69      45.5  T
     SCC iter.                  ...        0 min,  0.046 sec
[...]
C9-C8-C3-O6=  4.16            C17-C8-C3-C2=305.30           C17-C8-C3-O4= 60.28           C17-C8-C3-O6=183.53           
C10-C9-C8-C3=181.33           C10-C9-C8-C17=  1.96          H32-C9-C8-C3=  2.11           H32-C9-C8-C17=182.74          
C11-C10-C9-C8=  0.38          C11-C10-C9-H32=179.60         H33-C10-C9-C8=180.85          H33-C10-C9-H32=  0.07         
           -------------------------------------------------
          |                Final Singlepoint                |
           -------------------------------------------------

          ...................................................
          :                      SETUP                      :
          :.................................................:
          :  # basis functions                 128          :
          :  # atomic orbitals                 127          :
          :  # shells                           73          :
          :  # electrons                       132          :
          :  max. iterations                   250          :
          :  Hamiltonian                  GFN2-xTB          :
          :  restarted?                      false          :
          :  GBSA solvation                  false          :
          :  PC potential                    false          :
          :  electronic temp.          300.0000000     K    :
          :  accuracy                    1.0000000          :
          :  -> integral cutoff          0.2500000E+02      :
          :  -> integral neglect         0.1000000E-07      :
          :  -> SCF convergence          0.1000000E-05 Eh   :
          :  -> wf. convergence          0.1000000E-03 e    :
          :  Broyden damping             0.4000000          :
          :  net charge                          0          :
          :  unpaired electrons                  0          :
          ...................................................

 iter      E             dE          RMSdq      gap      omega  full diag
   1    -74.4959258 -0.744959E+02  0.885E-05    1.72       0.0  T
   2    -74.4959258 -0.313634E-10  0.713E-05    1.72     204.6  T
   3    -74.4959258 -0.162458E-09  0.316E-05    1.72     461.5  T

   *** convergence criteria satisfied after 3 iterations ***

         #    Occupation            Energy/Eh            Energy/eV
      -------------------------------------------------------------
         1        2.0000           -0.7168927             -19.5076
       ...           ...                  ...                  ...
        60        2.0000           -0.4216427             -11.4735
        61        2.0000           -0.4192876             -11.4094
        62        2.0000           -0.4167273             -11.3397
        63        2.0000           -0.4081126             -11.1053
        64        2.0000           -0.4024822             -10.9521
        65        2.0000           -0.3837315             -10.4419
        66        2.0000           -0.3634404              -9.8897 (HOMO)
        67                         -0.3000850              -8.1657 (LUMO)
        68                         -0.2446664              -6.6577
        69                         -0.2361965              -6.4272
        70                         -0.2359452              -6.4204
        71                         -0.2265088              -6.1636
       ...                                ...                  ...
       127                          0.6976648              18.9844
      -------------------------------------------------------------
                  HL-Gap            0.0633554 Eh            1.7240 eV
             Fermi-level           -0.3317627 Eh           -9.0277 eV

 SCC (total)                   0 d,  0 h,  0 min,  0.021 sec
 SCC setup                      ...        0 min,  0.000 sec (  0.511%)
 Dispersion                     ...        0 min,  0.000 sec (  1.224%)
 classical contributions        ...        0 min,  0.000 sec (  0.210%)
 integral evaluation            ...        0 min,  0.004 sec ( 20.318%)
 iterations                     ...        0 min,  0.010 sec ( 47.022%)
 molecular gradient             ...        0 min,  0.006 sec ( 29.392%)
 printout                       ...        0 min,  0.000 sec (  0.842%)

         :::::::::::::::::::::::::::::::::::::::::::::::::::::
         ::                     SUMMARY                     ::
         :::::::::::::::::::::::::::::::::::::::::::::::::::::
         :: total energy             -73.484817790734 Eh    ::
         :: gradient norm              0.000486427510 Eh/a0 ::
         :: HOMO-LUMO gap              1.723987090215 eV    ::
         ::.................................................::
         :: SCC energy               -74.494707959974 Eh    ::
         :: -> isotropic ES            0.089677415697 Eh    ::
         :: -> anisotropic ES          0.002877660943 Eh    ::
         :: -> anisotropic XC          0.026483666940 Eh    ::
         :: -> dispersion             -0.053237155862 Eh    ::
         :: repulsion energy           1.009890169240 Eh    ::
         :: add. restraining           0.000000000000 Eh    ::
         :: total charge               0.000000000000 e     ::
         :::::::::::::::::::::::::::::::::::::::::::::::::::::

           -------------------------------------------------
          |                Property Printout                |
           -------------------------------------------------

    * Orbital Energies and Occupations

         #    Occupation            Energy/Eh            Energy/eV
      -------------------------------------------------------------
         1        2.0000           -0.7168927             -19.5076
       ...           ...                  ...                  ...
        54        2.0000           -0.4420546             -12.0289
        55        2.0000           -0.4369453             -11.8899
        56        2.0000           -0.4354234             -11.8485
        57        2.0000           -0.4322084             -11.7610
        58        2.0000           -0.4254600             -11.5774
        59        2.0000           -0.4252794             -11.5724
        60        2.0000           -0.4216427             -11.4735
        61        2.0000           -0.4192876             -11.4094
        62        2.0000           -0.4167273             -11.3397
        63        2.0000           -0.4081126             -11.1053
        64        2.0000           -0.4024822             -10.9521
        65        2.0000           -0.3837315             -10.4419
        66        2.0000           -0.3634404              -9.8897 (HOMO)
        67                         -0.3000850              -8.1657 (LUMO)
        68                         -0.2446664              -6.6577
        69                         -0.2361965              -6.4272
        70                         -0.2359452              -6.4204
        71                         -0.2265088              -6.1636
        72                         -0.1982135              -5.3937
        73                         -0.1670893              -4.5467
        74                         -0.1432021              -3.8967
        75                         -0.1127311              -3.0676
        76                         -0.0912599              -2.4833
        77                         -0.0152518              -0.4150
       ...                                ...                  ...
       127                          0.6976648              18.9844
      -------------------------------------------------------------
                  HL-Gap            0.0633554 Eh            1.7240 eV
             Fermi-level           -0.3317627 Eh           -9.0277 eV

     #   Z          covCN         q      C6AA      α(0)
     1   8 O        0.858    -0.337    20.467     6.066
     2   6 C        2.819     0.211    23.535     7.949
     3   6 C        3.702     0.250    16.888     5.876
     4   8 O        1.702    -0.315    19.259     5.925
     5   6 C        3.646     0.046    20.134     6.448
     6   8 O        1.700    -0.336    19.640     5.983
     7   6 C        3.647     0.045    20.148     6.450
     8   6 C        2.977    -0.014    28.352     8.734
     9   6 C        2.922    -0.032    28.806     8.801
    10   6 C        2.949    -0.040    29.000     8.833
    11   6 C        2.967     0.054    26.777     8.488
    12  16 S        2.052    -0.165   148.042    20.478
    13   6 C        3.792    -0.022    20.983     6.523
    14   6 C        3.698     0.087    19.288     6.282
    15   8 O        1.656    -0.429    21.425     6.249
    16   6 C        2.973    -0.032    28.803     8.803
    17   6 C        2.924    -0.031    28.779     8.797
    18   6 C        2.892    -0.063    29.577     8.917
    19   6 C        2.901    -0.018    28.460     8.747
    20   6 C        2.970     0.017    27.617     8.620
    21   6 C        2.923    -0.027    28.668     8.780
    22   6 C        2.917    -0.026    28.654     8.778
    23   6 C        2.920    -0.024    28.600     8.770
    24   6 C        2.916    -0.027    28.681     8.782
    25   6 C        2.929    -0.029    28.715     8.788
    26   1 H        0.925     0.061     2.182     2.310
    27   1 H        0.924     0.030     2.586     2.515
    28   1 H        0.924     0.039     2.462     2.454
    29   1 H        0.924     0.051     2.312     2.378
    30   1 H        0.925     0.057     2.236     2.338
    31   1 H        0.924     0.027     2.624     2.533
    32   1 H        0.926     0.052     2.290     2.366
    33   1 H        0.926     0.038     2.480     2.463
    34   1 H        0.925     0.054     2.265     2.353
    35   1 H        0.925     0.046     2.369     2.407
    36   1 H        0.924     0.051     2.309     2.376
    37   1 H        0.923     0.021     2.719     2.579
    38   1 H        0.805     0.295     0.736     1.348
    39   1 H        0.926     0.055     2.259     2.350
    40   1 H        0.926     0.056     2.251     2.346
    41   1 H        0.925     0.066     2.131     2.283
    42   1 H        0.926     0.065     2.144     2.290
    43   1 H        0.926     0.044     2.394     2.420
    44   1 H        0.926     0.039     2.457     2.451
    45   1 H        0.926     0.038     2.469     2.457
    46   1 H        0.926     0.037     2.495     2.470
    47   1 H        0.926     0.037     2.492     2.469

 Mol. C6AA /au·bohr⁶  :      27117.992931
 Mol. C8AA /au·bohr⁸  :     683013.462755
 Mol. α(0) /au        :        258.825419


Wiberg/Mayer (AO) data.
largest (>0.10) Wiberg bond orders for each atom

 ---------------------------------------------------------------------------
     #   Z sym  total        # sym  WBO       # sym  WBO       # sym  WBO
 ---------------------------------------------------------------------------
     1   8 O    2.065 --     2 C    1.819
     2   6 C    3.926 --     1 O    1.819    18 C    1.081     3 C    0.899
     3   6 C    3.924 --     4 O    0.972     6 O    0.959     8 C    0.949
                             2 C    0.899
     4   8 O    2.094 --     5 C    0.983     3 C    0.972
     5   6 C    3.947 --     4 O    0.983    26 H    0.980    28 H    0.979
                            27 H    0.978
     6   8 O    2.080 --     7 C    0.981     3 C    0.959
     7   6 C    3.945 --     6 O    0.981    30 H    0.981    29 H    0.979
                            31 H    0.978
     8   6 C    3.984 --     9 C    1.407    17 C    1.399     3 C    0.949
     9   6 C    3.990 --    10 C    1.444     8 C    1.407    32 H    0.964
                            16 C    0.105
    10   6 C    3.989 --     9 C    1.444    11 C    1.396    33 H    0.966
                            17 C    0.104
    11   6 C    3.966 --    10 C    1.396    16 C    1.389    12 S    1.031
    12  16 S    2.206 --    11 C    1.031    13 C    0.982
    13   6 C    3.982 --    14 C    1.002    12 S    0.982    35 H    0.972
                            34 H    0.970
    14   6 C    3.962 --    15 O    1.013    13 C    1.002    36 H    0.968
                            37 H    0.960
    15   8 O    1.974 --    14 C    1.013    38 H    0.897
    16   6 C    3.990 --    17 C    1.457    11 C    1.389    39 H    0.967
                             9 C    0.105
    17   6 C    3.989 --    16 C    1.457     8 C    1.399    40 H    0.966
                            10 C    0.104
    18   6 C    3.987 --    19 C    1.749     2 C    1.081    41 H    0.955
    19   6 C    3.982 --    18 C    1.749    20 C    1.121    42 H    0.953
    20   6 C    3.990 --    25 C    1.360    21 C    1.360    19 C    1.121
    21   6 C    3.990 --    22 C    1.466    20 C    1.360    43 H    0.965
                            24 C    0.104
    22   6 C    3.992 --    21 C    1.466    23 C    1.425    44 H    0.970
                            25 C    0.103
    23   6 C    3.979 --    24 C    1.429    22 C    1.425    45 H    0.971
    24   6 C    3.992 --    25 C    1.463    23 C    1.429    46 H    0.970
                            21 C    0.104
    25   6 C    3.981 --    24 C    1.463    20 C    1.360    47 H    0.968
                            22 C    0.103
    26   1 H    0.996 --     5 C    0.980
    27   1 H    0.999 --     5 C    0.978
    28   1 H    0.998 --     5 C    0.979
    29   1 H    0.997 --     7 C    0.979
    30   1 H    0.996 --     7 C    0.981
    31   1 H    0.999 --     7 C    0.978
    32   1 H    0.997 --     9 C    0.964
    33   1 H    0.998 --    10 C    0.966
    34   1 H    0.997 --    13 C    0.970
    35   1 H    0.998 --    13 C    0.972
    36   1 H    0.997 --    14 C    0.968
    37   1 H    0.999 --    14 C    0.960
    38   1 H    0.913 --    15 O    0.897
    39   1 H    0.997 --    16 C    0.967
    40   1 H    0.997 --    17 C    0.966
    41   1 H    0.995 --    18 C    0.955
    42   1 H    0.995 --    19 C    0.953
    43   1 H    0.998 --    21 C    0.965
    44   1 H    0.998 --    22 C    0.970
    45   1 H    0.998 --    23 C    0.971
    46   1 H    0.998 --    24 C    0.970
    47   1 H    0.999 --    25 C    0.968
 ---------------------------------------------------------------------------

Topologies differ in total number of bonds
Writing topology from bond orders to xtbtopo.mol

molecular dipole:
                 x           y           z       tot (Debye)
 q only:       -0.583       1.877       0.887
   full:       -0.860       2.134       1.196       6.591
molecular quadrupole (traceless):
                xx          xy          yy          xz          yz          zz
 q only:        3.912       3.246      -2.025       3.762      -8.824      -1.887
  q+dip:       -3.243       4.583       2.003       3.780      -6.343       1.240
   full:       -0.315       6.129       1.320       3.753      -8.592      -1.005

           -------------------------------------------------
          |                Geometry Summary                 |
           -------------------------------------------------

      molecular mass/u    :      358.4518216
   center of mass at/Å    :        0.2930348      -0.1006437       0.0122469
  moments of inertia/u·Å² :        0.2582117E+04   0.2816515E+04   0.4674964E+04
rotational constants/cm⁻¹ :        0.6528609E-02   0.5985281E-02   0.3605938E-02

 * 42 selected distances

     #   Z          #   Z                                           value/Å
     1   8 O        2   6 C                                       1.2100538
     3   6 C        4   8 O                                       1.4057512
     4   8 O        5   6 C                                       1.4115033
     3   6 C        6   8 O                                       1.4133738
     6   8 O        7   6 C                                       1.4138612
     8   6 C        9   6 C                                       1.3877725
     9   6 C       10   6 C                                       1.3821334
    10   6 C       11   6 C                                       1.3878107
    13   6 C       14   6 C                                       1.5251229 (max)
    14   6 C       15   8 O                                       1.3991394
    11   6 C       16   6 C                                       1.3895894
     8   6 C       17   6 C                                       1.3909027
    16   6 C       17   6 C                                       1.3799342
    18   6 C       19   6 C                                       1.3417106
    20   6 C       21   6 C                                       1.3979885
    21   6 C       22   6 C                                       1.3806190
    22   6 C       23   6 C                                       1.3862766
    23   6 C       24   6 C                                       1.3856586
    20   6 C       25   6 C                                       1.3989554
    24   6 C       25   6 C                                       1.3806319
     5   6 C       26   1 H                                       1.0878208
     5   6 C       27   1 H                                       1.0951576
     5   6 C       28   1 H                                       1.0944294
     7   6 C       29   1 H                                       1.0925477
     7   6 C       30   1 H                                       1.0881928
     7   6 C       31   1 H                                       1.0951431
     9   6 C       32   1 H                                       1.0789859
    10   6 C       33   1 H                                       1.0796132
    13   6 C       34   1 H                                       1.0911074
    13   6 C       35   1 H                                       1.0891710
    14   6 C       36   1 H                                       1.0936793
    14   6 C       37   1 H                                       1.1026981
    15   8 O       38   1 H                                       0.9644818 (min)
    16   6 C       39   1 H                                       1.0787115
    17   6 C       40   1 H                                       1.0795639
    18   6 C       41   1 H                                       1.0822874
    19   6 C       42   1 H                                       1.0803320
    21   6 C       43   1 H                                       1.0784724
    22   6 C       44   1 H                                       1.0800404
    23   6 C       45   1 H                                       1.0797539
    24   6 C       46   1 H                                       1.0801520
    25   6 C       47   1 H                                       1.0808596

 * 4 distinct bonds (by element types)

   Z      Z             #   av. dist./Å        max./Å        min./Å
   1 H    6 C          21     1.0861295     1.1026981     1.0784724
   6 C    6 C          14     1.3939362     1.5251229     1.3417106
   1 H    8 O           1     0.9644818     0.9644818     0.9644818
   6 C    8 O           6     1.3756138     1.4138612     1.2100538


optimized geometry written to: xtbopt.xyz


           -------------------------------------------------
          | TOTAL ENERGY              -73.484817790734 Eh   |
          | GRADIENT NORM               0.000486427510 Eh/α |
          | HOMO-LUMO GAP               1.723987090215 eV   |
           -------------------------------------------------

------------------------------------------------------------------------
 * finished run on 2025/12/01 at 14:22:58.869     
------------------------------------------------------------------------
 total:
 * wall-time:     0 d,  0 h,  0 min,  2.718 sec
 *  cpu-time:     0 d,  0 h,  1 min,  2.240 sec
 * ratio c/w:    22.897 speedup
 SCF:
 * wall-time:     0 d,  0 h,  0 min,  0.081 sec
 *  cpu-time:     0 d,  0 h,  0 min,  1.842 sec
 * ratio c/w:    22.873 speedup
 ANC optimizer:
 * wall-time:     0 d,  0 h,  0 min,  2.625 sec
 *  cpu-time:     0 d,  0 h,  1 min,  0.131 sec
 * ratio c/w:    22.911 speedup

normal termination of xtb
