      -----------------------------------------------------------      
     |                   =====================                   |     
     |                           x T B                           |     
     |                   =====================                   |     
     |                         S. Grimme                         |     
     |          Mulliken Center for Theoretical Chemistry        |     
     |                    University of Bonn                     |     
      -----------------------------------------------------------      

   * xtb version 6.7.1 (edcfbbe) compiled by 'albert@albert-system' on 2024-07-22

   xtb is free software: you can redistribute it and/or modify it under
   the terms of the GNU Lesser General Public License as published by
   the Free Software Foundation, either version 3 of the License, or
   (at your option) any later version.
   
   xtb is distributed in the hope that it will be useful,
   but WITHOUT ANY WARRANTY; without even the implied warranty of
   MERCHANTABILITY or FITNESS FOR A PARTICULAR PURPOSE.  See the
   GNU Lesser General Public License for more details.
   
   Cite this work as:
   * C. Bannwarth, E. Caldeweyher, S. Ehlert, A. Hansen, P. Pracht,
     J. Seibert, S. Spicher, S. Grimme, WIREs Comput. Mol. Sci., 2020, 11,
     e01493. DOI: 10.1002/wcms.1493
   
   for GFN2-xTB:
   * C. Bannwarth, S. Ehlert and S. Grimme., J. Chem. Theory Comput., 2019,
     15, 1652-1671. DOI: 10.1021/acs.jctc.8b01176
   for GFN1-xTB:
   * S. Grimme, C. Bannwarth, P. Shushkov, J. Chem. Theory Comput., 2017,
     13, 1989-2009. DOI: 10.1021/acs.jctc.7b00118
   for GFN0-xTB:
   * P. Pracht, E. Caldeweyher, S. Ehlert, S. Grimme, ChemRxiv, 2019, preprint.
     DOI: 10.26434/chemrxiv.8326202.v1
   for GFN-FF:
   * S. Spicher and S. Grimme, Angew. Chem. Int. Ed., 2020, 59, 15665-15673.
     DOI: 10.1002/anie.202004239
   
   for ALPB and GBSA implicit solvation:
   * S. Ehlert, M. Stahn, S. Spicher, S. Grimme, J. Chem. Theory Comput.,
     2021, 17, 4250-4261. DOI: 10.1021/acs.jctc.1c00471
   
   for ddCOSMO and CPCM-X implicit solvation:
   * M. Stahn, S. Ehlert, S. Grimme, J. Phys. Chem. A,
     2023, XX, XXXX-XXXX. DOI: 10.1021/acs.jpca.3c04382
   
   for DFT-D4:
   * E. Caldeweyher, C. Bannwarth and S. Grimme, J. Chem. Phys., 2017,
     147, 034112. DOI: 10.1063/1.4993215
   * E. Caldeweyher, S. Ehlert, A. Hansen, H. Neugebauer, S. Spicher,
     C. Bannwarth and S. Grimme, J. Chem. Phys., 2019, 150, 154122.
     DOI: 10.1063/1.5090222
   * E. Caldeweyher, J.-M. Mewes, S. Ehlert and S. Grimme, Phys. Chem. Chem. Phys.
     2020, 22, 8499-8512. DOI: 10.1039/D0CP00502A
   
   for sTDA-xTB:
   * S. Grimme and C. Bannwarth, J. Chem. Phys., 2016, 145, 054103.
     DOI: 10.1063/1.4959605
   
   in the mass-spec context:
   * V. Asgeirsson, C. Bauer and S. Grimme, Chem. Sci., 2017, 8, 4879.
     DOI: 10.1039/c7sc00601b
   * J. Koopman and S. Grimme, ACS Omega 2019, 4, 12, 15120-15133.
     DOI: 10.1021/acsomega.9b02011
   
   for metadynamics refer to:
   * S. Grimme, J. Chem. Theory Comput., 2019, 155, 2847-2862
     DOI: 10.1021/acs.jctc.9b00143
   
   for SPH calculations refer to:
   * S. Spicher and S. Grimme, J. Chem. Theory Comput., 2021, 17, 1701-1714
     DOI: 10.1021/acs.jctc.0c01306
   
   for ONIOM refer to:
   * C. Plett, A. Katbashev, S. Ehlert, S. Grimme, M. Bursch,
     Phys. Chem. Chem. Phys., 2023, 25, 17860-17868. DOI: 10.1039/D3CP02178E
   
   for DIPRO refer to:
   * J. Kohn, N. Gildemeister, S. Grimme, D. Fazzi, A. Hansen,
     J. Chem. Phys., 2023, just accepted.
   
   for PTB refer to:
   * S. Grimme, M. Mueller, A. Hansen, J. Chem. Phys., 2023, 158, 124111.
     DOI: 10.1063/5.0137838
   
   with help from (in alphabetical order)
   P. Atkinson, C. Bannwarth, F. Bohle, G. Brandenburg, E. Caldeweyher
   M. Checinski, S. Dohm, S. Ehlert, S. Ehrlich, I. Gerasimov, C. Hölzer
   A. Katbashev, J. Kohn, J. Koopman, C. Lavigne, S. Lehtola, F. März, M. Müller,
   F. Musil, H. Neugebauer, J. Pisarek, C. Plett, P. Pracht, F. Pultar,
   J. Seibert, P. Shushkov, S. Spicher, M. Stahn, M. Steiner, T. Strunk,
   J. Stückrath, T. Rose, and J. Unsleber
   
 * started run on 2025/12/01 at 14:23:01.515     
   ID    Z sym.   atoms
    1    6 C      1, 2, 4, 5, 7, 8, 10, 11, 13, 15-17
    2    8 O      3, 6, 9, 12, 14
    3    1 H      18-39

           -------------------------------------------------
          |                Calculation Setup                |
           -------------------------------------------------

          program call               : xtb pipeline_data/3_conformer_xyz/acrylates/rdkit/RBFPEAGEJJSYCX-UHFFFAOYSA-N_conf234.xyz --opt --gfn 2-xTB --iterations 250
          coordinate file            : pipeline_data/3_conformer_xyz/acrylates/rdkit/RBFPEAGEJJSYCX-UHFFFAOYSA-N_conf234.xyz
          omp threads                :                    24

########################################################################
[WARNING] Please study the warnings concerning your input carefully
-1- readin_getIntValue: could not parse '2-xTB'
########################################################################

           -------------------------------------------------
          |                 G F N 2 - x T B                 |
           -------------------------------------------------

        Reference                      10.1021/acs.jctc.8b01176
      * Hamiltonian:
        H0-scaling (s, p, d)           1.850000    2.230000    2.230000
        zeta-weighting                 0.500000
      * Dispersion:
        s8                             2.700000
        a1                             0.520000
        a2                             5.000000
        s9                             5.000000
      * Repulsion:
        kExp                           1.500000    1.000000
        rExp                           1.000000
      * Coulomb:
        alpha                          2.000000
        third order                    shell-resolved
        anisotropic                    true
        a3                             3.000000
        a5                             4.000000
        cn-shift                       1.200000
        cn-exp                         4.000000
        max-rad                        5.000000


          ...................................................
          :                      SETUP                      :
          :.................................................:
          :  # basis functions                  90          :
          :  # atomic orbitals                  90          :
          :  # shells                           56          :
          :  # electrons                       100          :
          :  max. iterations                   250          :
          :  Hamiltonian                  GFN2-xTB          :
          :  restarted?                      false          :
          :  GBSA solvation                  false          :
          :  PC potential                    false          :
          :  electronic temp.          300.0000000     K    :
          :  accuracy                    1.0000000          :
          :  -> integral cutoff          0.2500000E+02      :
          :  -> integral neglect         0.1000000E-07      :
          :  -> SCF convergence          0.1000000E-05 Eh   :
          :  -> wf. convergence          0.1000000E-03 e    :
          :  Broyden damping             0.4000000          :
          :  net charge                          0          :
          :  unpaired electrons                  0          :
          ...................................................

 iter      E             dE          RMSdq      gap      omega  full diag
   1    -57.6002890 -0.576003E+02  0.464E+00    3.86       0.0  T
   2    -57.7297165 -0.129427E+00  0.246E+00    3.02       1.0  T
   3    -57.7291361  0.580364E-03  0.126E+00    3.26       1.0  T
   4    -57.7383171 -0.918099E-02  0.273E-01    2.94       1.0  T
   5    -57.7400275 -0.171037E-02  0.914E-02    3.05       1.0  T
   6    -57.7400433 -0.158054E-04  0.267E-02    3.08       1.0  T
   7    -57.7400462 -0.290900E-05  0.131E-02    3.08       1.2  T
   8    -57.7400487 -0.254051E-05  0.646E-03    3.08       2.5  T
   9    -57.7400495 -0.817403E-06  0.186E-03    3.08       8.6  T
  10    -57.7400495 -0.180003E-07  0.783E-04    3.08      20.5  T
  11    -57.7400495 -0.182938E-08  0.223E-04    3.08      71.9  T

   *** convergence criteria satisfied after 11 iterations ***

         #    Occupation            Energy/Eh            Energy/eV
      -------------------------------------------------------------
         1        2.0000           -0.7339991             -19.9731
       ...           ...                  ...                  ...
        44        2.0000           -0.4375918             -11.9075
        45        2.0000           -0.4349040             -11.8343
        46        2.0000           -0.4204181             -11.4402
        47        2.0000           -0.4103165             -11.1653
        48        2.0000           -0.4075469             -11.0899
        49        2.0000           -0.3979132             -10.8278
        50        2.0000           -0.3975544             -10.8180 (HOMO)
        51                         -0.2844695              -7.7408 (LUMO)
        52                         -0.1714319              -4.6649
        53                         -0.0490865              -1.3357
        54                          0.0113900               0.3099
        55                          0.0520649               1.4168
       ...                                ...                  ...
        90                          0.6153124              16.7435
      -------------------------------------------------------------
                  HL-Gap            0.1130849 Eh            3.0772 eV
             Fermi-level           -0.3410120 Eh           -9.2794 eV

 SCC (total)                   0 d,  0 h,  0 min,  0.047 sec
 SCC setup                      ...        0 min,  0.000 sec (  0.523%)
 Dispersion                     ...        0 min,  0.000 sec (  0.846%)
 classical contributions        ...        0 min,  0.000 sec (  0.172%)
 integral evaluation            ...        0 min,  0.001 sec (  2.592%)
 iterations                     ...        0 min,  0.041 sec ( 86.791%)
 molecular gradient             ...        0 min,  0.004 sec (  8.608%)
 printout                       ...        0 min,  0.000 sec (  0.395%)

         :::::::::::::::::::::::::::::::::::::::::::::::::::::
         ::                     SUMMARY                     ::
         :::::::::::::::::::::::::::::::::::::::::::::::::::::
         :: total energy             -57.168347957703 Eh    ::
         :: gradient norm              0.170085600555 Eh/a0 ::
         :: HOMO-LUMO gap              3.077198000035 eV    ::
         ::.................................................::
         :: SCC energy               -57.740277207388 Eh    ::
         :: -> isotropic ES            0.097951009785 Eh    ::
         :: -> anisotropic ES          0.007261559491 Eh    ::
         :: -> anisotropic XC          0.007008890901 Eh    ::
         :: -> dispersion             -0.026860551864 Eh    ::
         :: repulsion energy           0.571929249685 Eh    ::
         :: add. restraining           0.000000000000 Eh    ::
         :: total charge               0.000000000000 e     ::
         :::::::::::::::::::::::::::::::::::::::::::::::::::::

      ----------------------------------------------------------- 
     |                   =====================                   |
     |                        A N C O P T                        |
     |                   =====================                   |
     |               Approximate Normal Coordinate               |
     |                Rational Function Optimizer                |
      ----------------------------------------------------------- 
      ----------------------------------------------------------- 
     |                   =====================                   |
     |                        A N C O P T                        |
     |                   =====================                   |
     |               Approximate Normal Coordinate               |
     |                Rational Function Optimizer                |
      ----------------------------------------------------------- 

          ...................................................
          :                      SETUP                      :
          :.................................................:
          :   optimization level            normal          :
          :   max. optcycles                   200          :
          :   ANC micro-cycles                  20          :
          :   degrees of freedom               111          :
          :.................................................:
          :   RF solver                   davidson          :
          :   write xtbopt.log                true          :
          :   linear?                        false          :
          :   energy convergence         0.5000000E-05 Eh   :
          :   grad. convergence          0.1000000E-02 Eh/α :
          :   maxmium RF displ.          1.0000000          :
          :   Hlow (freq-cutoff)         0.1000000E-01      :
          :   Hmax (freq-cutoff)         5.0000000          :
          :   S6 in model hess.         20.0000000          :
          ...................................................

generating ANC from exact Hessian ...
Using Lindh-Hessian (1995)
 Shifting diagonal of input Hessian by   9.896109745394573E-003
 Lowest  eigenvalues of input Hessian
    0.000000    0.000000    0.000000    0.000000    0.000000    0.010000
    0.000000    0.010269    0.010381    0.010711    0.010824    0.011419
    0.012005    0.013145    0.013479    0.014179    0.016913    0.017517
 Highest eigenvalues
    1.648805    1.692238    1.705539    1.792477    1.871152    2.083253
 

........................................................................
.............................. CYCLE    1 ..............................
........................................................................

 iter      E             dE          RMSdq      gap      omega  full diag
   1    -57.7400495 -0.577400E+02  0.891E-05    3.08       0.0  T
   2    -57.7400495 -0.193054E-10  0.567E-05    3.08     282.5  T
   3    -57.7400495 -0.636646E-11  0.177E-05    3.08     903.2  T
     SCC iter.                  ...        0 min,  0.006 sec
     gradient                   ...        0 min,  0.004 sec
 * total energy  :   -57.1683480 Eh     change       -0.2660911E-09 Eh
   gradient norm :     0.1700879 Eh/α   predicted     0.0000000E+00 (-100.00%)
   displ. norm   :     0.3839755 α      lambda       -0.3579725E-01
   maximum displ.:     0.1025359 α      in ANC's #47, #9, #27, ...

........................................................................
.............................. CYCLE    2 ..............................
........................................................................

 iter      E             dE          RMSdq      gap      omega  full diag
   1    -57.7827830 -0.577828E+02  0.317E-01    3.43       0.0  T
   2    -57.7832305 -0.447534E-03  0.192E-01    3.37       1.0  T
   3    -57.7832181  0.124596E-04  0.681E-02    3.34       1.0  T
   4    -57.7832578 -0.397174E-04  0.149E-02    3.33       1.1  T
   5    -57.7832624 -0.465455E-05  0.766E-03    3.33       2.1  T
   6    -57.7832633 -0.850770E-06  0.408E-03    3.33       3.9  T
   7    -57.7832635 -0.231801E-06  0.153E-03    3.34      10.4  T
   8    -57.7832635 -0.152594E-07  0.517E-04    3.34      31.0  T
   9    -57.7832635 -0.124700E-08  0.177E-04    3.34      90.4  T
     SCC iter.                  ...        0 min,  0.015 sec
     gradient                   ...        0 min,  0.004 sec
 * total energy  :   -57.1928649 Eh     change       -0.2451695E-01 Eh
   gradient norm :     0.0673884 Eh/α   predicted    -0.2056415E-01 ( -16.12%)
   displ. norm   :     0.3819758 α      lambda       -0.1016351E-01
   maximum displ.:     0.1549283 α      in ANC's #9, #15, #10, ...

........................................................................
.............................. CYCLE    3 ..............................
........................................................................

 iter      E             dE          RMSdq      gap      omega  full diag
   1    -57.8013806 -0.578014E+02  0.204E-01    3.57       0.0  T
   2    -57.8015854 -0.204785E-03  0.121E-01    3.53       1.0  T
   3    -57.8015863 -0.918355E-06  0.412E-02    3.50       1.0  T
   4    -57.8015929 -0.665350E-05  0.110E-02    3.49       1.5  T
   5    -57.8015951 -0.219903E-05  0.620E-03    3.49       2.6  T
   6    -57.8015961 -0.924704E-06  0.206E-03    3.50       7.8  T
   7    -57.8015961 -0.497358E-07  0.806E-04    3.50      19.9  T
   8    -57.8015961 -0.334700E-08  0.298E-04    3.50      53.7  T
     SCC iter.                  ...        0 min,  0.014 sec
     gradient                   ...        0 min,  0.004 sec
 * total energy  :   -57.1989992 Eh     change       -0.6134302E-02 Eh
   gradient norm :     0.0178633 Eh/α   predicted    -0.5823215E-02 (  -5.07%)
   displ. norm   :     0.3669060 α      lambda       -0.2657393E-02
   maximum displ.:     0.1808613 α      in ANC's #9, #10, #15, ...

........................................................................
.............................. CYCLE    4 ..............................
........................................................................

 iter      E             dE          RMSdq      gap      omega  full diag
   1    -57.8005697 -0.578006E+02  0.101E-01    3.53       0.0  T
   2    -57.8005807 -0.110646E-04  0.609E-02    3.52       1.0  T
   3    -57.8005766  0.411388E-05  0.146E-02    3.51       1.1  T
   4    -57.8005805 -0.390655E-05  0.775E-03    3.51       2.1  T
   5    -57.8005822 -0.162944E-05  0.159E-03    3.51      10.1  T
   6    -57.8005822 -0.115863E-07  0.715E-04    3.51      22.4  T
   7    -57.8005822 -0.181952E-08  0.236E-04    3.51      67.8  T
     SCC iter.                  ...        0 min,  0.012 sec
     gradient                   ...        0 min,  0.005 sec
 * total energy  :   -57.2009515 Eh     change       -0.1952311E-02 Eh
   gradient norm :     0.0122150 Eh/α   predicted    -0.1507607E-02 ( -22.78%)
   displ. norm   :     0.4693341 α      lambda       -0.2101736E-02
   maximum displ.:     0.2471333 α      in ANC's #10, #9, #15, ...

........................................................................
.............................. CYCLE    5 ..............................
........................................................................

 iter      E             dE          RMSdq      gap      omega  full diag
   1    -57.7980433 -0.577980E+02  0.102E-01    3.53       0.0  T
   2    -57.7980527 -0.947010E-05  0.618E-02    3.52       1.0  T
   3    -57.7980534 -0.708034E-06  0.823E-03    3.51       1.9  T
   4    -57.7980538 -0.338610E-06  0.383E-03    3.52       4.2  T
   5    -57.7980539 -0.159800E-06  0.230E-03    3.52       7.0  T
   6    -57.7980540 -0.999162E-07  0.687E-04    3.52      23.3  T
   7    -57.7980540 -0.303309E-08  0.233E-04    3.52      68.7  T
     SCC iter.                  ...        0 min,  0.012 sec
     gradient                   ...        0 min,  0.004 sec
 * total energy  :   -57.2023731 Eh     change       -0.1421544E-02 Eh
   gradient norm :     0.0118385 Eh/α   predicted    -0.1282355E-02 (  -9.79%)
   displ. norm   :     0.3807003 α      lambda       -0.1169656E-02
   maximum displ.:     0.1955023 α      in ANC's #10, #9, #15, ...

........................................................................
.............................. CYCLE    6 ..............................
........................................................................

 iter      E             dE          RMSdq      gap      omega  full diag
   1    -57.7983443 -0.577983E+02  0.830E-02    3.52       0.0  T
   2    -57.7983484 -0.402258E-05  0.505E-02    3.51       1.0  T
   3    -57.7983423  0.610816E-05  0.163E-02    3.51       1.0  T
   4    -57.7983494 -0.718364E-05  0.457E-03    3.51       3.5  T
   5    -57.7983498 -0.383858E-06  0.165E-03    3.51       9.7  T
   6    -57.7983498 -0.115921E-07  0.497E-04    3.51      32.2  T
   7    -57.7983498 -0.170844E-08  0.202E-04    3.51      79.1  T
     SCC iter.                  ...        0 min,  0.012 sec
     gradient                   ...        0 min,  0.004 sec
 * total energy  :   -57.2031697 Eh     change       -0.7966632E-03 Eh
   gradient norm :     0.0115615 Eh/α   predicted    -0.6695917E-03 ( -15.95%)
   displ. norm   :     0.3101399 α      lambda       -0.7830379E-03
   maximum displ.:     0.1571038 α      in ANC's #10, #9, #17, ...

........................................................................
.............................. CYCLE    7 ..............................
........................................................................

 iter      E             dE          RMSdq      gap      omega  full diag
   1    -57.8013654 -0.578014E+02  0.716E-02    3.49       0.0  T
   2    -57.8013676 -0.217031E-05  0.438E-02    3.49       1.0  T
   3    -57.8013643  0.331829E-05  0.120E-02    3.49       1.3  T
   4    -57.8013684 -0.410748E-05  0.319E-03    3.49       5.0  T
   5    -57.8013685 -0.136806E-06  0.122E-03    3.49      13.1  T
   6    -57.8013685 -0.623267E-08  0.342E-04    3.49      46.9  T
   7    -57.8013685 -0.446576E-09  0.140E-04    3.49     114.2  T
     SCC iter.                  ...        0 min,  0.012 sec
     gradient                   ...        0 min,  0.004 sec
 * total energy  :   -57.2037356 Eh     change       -0.5658465E-03 Eh
   gradient norm :     0.0084795 Eh/α   predicted    -0.4291821E-03 ( -24.15%)
   displ. norm   :     0.2807280 α      lambda       -0.5335694E-03
   maximum displ.:     0.1271339 α      in ANC's #10, #12, #22, ...

........................................................................
.............................. CYCLE    8 ..............................
........................................................................

 iter      E             dE          RMSdq      gap      omega  full diag
   1    -57.8043952 -0.578044E+02  0.727E-02    3.47       0.0  T
   2    -57.8043973 -0.209723E-05  0.445E-02    3.47       1.0  T
   3    -57.8043971  0.215651E-06  0.623E-03    3.47       2.6  T
   4    -57.8043977 -0.628138E-06  0.335E-03    3.47       4.8  T
   5    -57.8043979 -0.231560E-06  0.119E-03    3.47      13.5  T
   6    -57.8043979 -0.101108E-07  0.353E-04    3.47      45.3  T
   7    -57.8043979 -0.786450E-09  0.145E-04    3.47     110.5  T
     SCC iter.                  ...        0 min,  0.012 sec
     gradient                   ...        0 min,  0.004 sec
 * total energy  :   -57.2041075 Eh     change       -0.3719323E-03 Eh
   gradient norm :     0.0055428 Eh/α   predicted    -0.2878112E-03 ( -22.62%)
   displ. norm   :     0.2319139 α      lambda       -0.2840991E-03
   maximum displ.:     0.0914209 α      in ANC's #12, #10, #22, ...

........................................................................
.............................. CYCLE    9 ..............................
........................................................................

 iter      E             dE          RMSdq      gap      omega  full diag
   1    -57.8055418 -0.578055E+02  0.646E-02    3.46       0.0  T
   2    -57.8055431 -0.122939E-05  0.394E-02    3.46       1.0  T
   3    -57.8055429  0.198722E-06  0.512E-03    3.46       3.1  T
   4    -57.8055434 -0.528399E-06  0.259E-03    3.46       6.2  T
   5    -57.8055435 -0.119384E-06  0.103E-03    3.46      15.5  T
   6    -57.8055435 -0.989998E-08  0.323E-04    3.46      49.6  T
   7    -57.8055435 -0.729607E-09  0.129E-04    3.46     124.4  T
     SCC iter.                  ...        0 min,  0.012 sec
     gradient                   ...        0 min,  0.004 sec
 * total energy  :   -57.2043008 Eh     change       -0.1932634E-03 Eh
   gradient norm :     0.0035793 Eh/α   predicted    -0.1496901E-03 ( -22.55%)
   displ. norm   :     0.2064562 α      lambda       -0.1741499E-03
   maximum displ.:     0.0836730 α      in ANC's #12, #3, #22, ...

........................................................................
.............................. CYCLE   10 ..............................
........................................................................

 iter      E             dE          RMSdq      gap      omega  full diag
   1    -57.8059321 -0.578059E+02  0.535E-02    3.45       0.0  T
   2    -57.8059329 -0.755346E-06  0.326E-02    3.45       1.0  T
   3    -57.8059317  0.117870E-05  0.716E-03    3.45       2.2  T
   4    -57.8059332 -0.150561E-05  0.193E-03    3.45       8.3  T
   5    -57.8059333 -0.441343E-07  0.801E-04    3.45      20.0  T
   6    -57.8059333 -0.290723E-08  0.253E-04    3.45      63.4  T
     SCC iter.                  ...        0 min,  0.010 sec
     gradient                   ...        0 min,  0.004 sec
 * total energy  :   -57.2044252 Eh     change       -0.1244682E-03 Eh
   gradient norm :     0.0033777 Eh/α   predicted    -0.9078702E-04 ( -27.06%)
   displ. norm   :     0.2420444 α      lambda       -0.1689747E-03
   maximum displ.:     0.1006444 α      in ANC's #3, #12, #7, ...

........................................................................
.............................. CYCLE   11 ..............................
........................................................................

 iter      E             dE          RMSdq      gap      omega  full diag
   1    -57.8060768 -0.578061E+02  0.546E-02    3.44       0.0  T
   2    -57.8060775 -0.665444E-06  0.332E-02    3.44       1.0  T
   3    -57.8060751  0.237256E-05  0.955E-03    3.44       1.7  T
   4    -57.8060779 -0.280687E-05  0.170E-03    3.44       9.4  T
   5    -57.8060779 -0.162887E-07  0.803E-04    3.44      19.9  T
   6    -57.8060779 -0.209807E-08  0.221E-04    3.44      72.3  T
     SCC iter.                  ...        0 min,  0.010 sec
     gradient                   ...        0 min,  0.004 sec
 * total energy  :   -57.2045530 Eh     change       -0.1277120E-03 Eh
   gradient norm :     0.0041742 Eh/α   predicted    -0.8943796E-04 ( -29.97%)
   displ. norm   :     0.3244465 α      lambda       -0.1916188E-03
   maximum displ.:     0.1424487 α      in ANC's #7, #3, #1, ...

........................................................................
.............................. CYCLE   12 ..............................
........................................................................

 iter      E             dE          RMSdq      gap      omega  full diag
   1    -57.8046636 -0.578047E+02  0.628E-02    3.44       0.0  T
   2    -57.8046645 -0.886585E-06  0.380E-02    3.44       1.0  T
   3    -57.8046632  0.131300E-05  0.787E-03    3.43       2.0  T
   4    -57.8046650 -0.174667E-05  0.207E-03    3.43       7.8  T
   5    -57.8046650 -0.359987E-07  0.942E-04    3.43      17.0  T
   6    -57.8046650 -0.343542E-08  0.275E-04    3.43      58.3  T
     SCC iter.                  ...        0 min,  0.010 sec
     gradient                   ...        0 min,  0.004 sec
 * total energy  :   -57.2046890 Eh     change       -0.1360092E-03 Eh
   gradient norm :     0.0052147 Eh/α   predicted    -0.1058970E-03 ( -22.14%)
   displ. norm   :     0.3450840 α      lambda       -0.2269468E-03
   maximum displ.:     0.1833616 α      in ANC's #7, #3, #8, ...

........................................................................
.............................. CYCLE   13 ..............................
........................................................................

 iter      E             dE          RMSdq      gap      omega  full diag
   1    -57.8062266 -0.578062E+02  0.570E-02    3.43       0.0  T
   2    -57.8062279 -0.128841E-05  0.338E-02    3.43       1.0  T
   3    -57.8062274  0.494083E-06  0.581E-03    3.43       2.8  T
   4    -57.8062281 -0.672917E-06  0.242E-03    3.43       6.6  T
   5    -57.8062282 -0.136762E-06  0.101E-03    3.43      15.9  T
   6    -57.8062282 -0.623852E-08  0.330E-04    3.43      48.6  T
   7    -57.8062282 -0.591456E-09  0.124E-04    3.43     128.6  T
     SCC iter.                  ...        0 min,  0.018 sec
     gradient                   ...        0 min,  0.007 sec
 * total energy  :   -57.2047760 Eh     change       -0.8703442E-04 Eh
   gradient norm :     0.0073759 Eh/α   predicted    -0.1269865E-03 (  45.90%)
   displ. norm   :     0.2108844 α      lambda       -0.1830407E-03
   maximum displ.:     0.0985421 α      in ANC's #7, #3, #1, ...

........................................................................
.............................. CYCLE   14 ..............................
........................................................................

 iter      E             dE          RMSdq      gap      omega  full diag
   1    -57.8048634 -0.578049E+02  0.395E-02    3.44       0.0  T
   2    -57.8048642 -0.806178E-06  0.236E-02    3.44       1.0  T
   3    -57.8048638  0.415166E-06  0.504E-03    3.44       3.2  T
   4    -57.8048643 -0.563741E-06  0.213E-03    3.44       7.5  T
   5    -57.8048644 -0.931502E-07  0.829E-04    3.44      19.3  T
   6    -57.8048644 -0.263697E-08  0.249E-04    3.44      64.2  T
     SCC iter.                  ...        0 min,  0.016 sec
     gradient                   ...        0 min,  0.005 sec
 * total energy  :   -57.2048878 Eh     change       -0.1118472E-03 Eh
   gradient norm :     0.0042707 Eh/α   predicted    -0.9559079E-04 ( -14.53%)
   displ. norm   :     0.1175960 α      lambda       -0.8361597E-04
   maximum displ.:     0.0516754 α      in ANC's #3, #7, #1, ...

........................................................................
.............................. CYCLE   15 ..............................
........................................................................

 iter      E             dE          RMSdq      gap      omega  full diag
   1    -57.8057820 -0.578058E+02  0.217E-02    3.44       0.0  T
   2    -57.8057822 -0.229934E-06  0.129E-02    3.44       1.2  T
   3    -57.8057810  0.122427E-05  0.713E-03    3.44       2.2  T
   4    -57.8057824 -0.142735E-05  0.878E-04    3.44      18.2  T
   5    -57.8057824 -0.100862E-07  0.426E-04    3.44      37.6  T
   6    -57.8057824 -0.613660E-09  0.143E-04    3.44     112.3  T
     SCC iter.                  ...        0 min,  0.010 sec
     gradient                   ...        0 min,  0.004 sec
 * total energy  :   -57.2049509 Eh     change       -0.6305351E-04 Eh
   gradient norm :     0.0030851 Eh/α   predicted    -0.4239247E-04 ( -32.77%)
   displ. norm   :     0.2367407 α      lambda       -0.8924733E-04
   maximum displ.:     0.1175771 α      in ANC's #3, #1, #7, ...

........................................................................
.............................. CYCLE   16 ..............................
........................................................................

 iter      E             dE          RMSdq      gap      omega  full diag
   1    -57.8053651 -0.578054E+02  0.391E-02    3.44       0.0  T
   2    -57.8053657 -0.595829E-06  0.233E-02    3.44       1.0  T
   3    -57.8053653  0.417368E-06  0.471E-03    3.44       3.4  T
   4    -57.8053658 -0.538263E-06  0.167E-03    3.44       9.6  T
   5    -57.8053659 -0.534925E-07  0.740E-04    3.44      21.6  T
   6    -57.8053659 -0.316878E-08  0.301E-04    3.44      53.1  T
     SCC iter.                  ...        0 min,  0.010 sec
     gradient                   ...        0 min,  0.004 sec
 * total energy  :   -57.2050093 Eh     change       -0.5837345E-04 Eh
   gradient norm :     0.0028963 Eh/α   predicted    -0.4712807E-04 ( -19.26%)
   displ. norm   :     0.1325118 α      lambda       -0.4492814E-04
   maximum displ.:     0.0681679 α      in ANC's #3, #1, #6, ...

........................................................................
.............................. CYCLE   17 ..............................
........................................................................

 iter      E             dE          RMSdq      gap      omega  full diag
   1    -57.8069057 -0.578069E+02  0.246E-02    3.45       0.0  T
   2    -57.8069059 -0.219495E-06  0.147E-02    3.45       1.1  T
   3    -57.8069060 -0.334049E-07  0.114E-03    3.45      14.1  T
   4    -57.8069060 -0.887969E-08  0.565E-04    3.45      28.3  T
   5    -57.8069060  0.129603E-09  0.338E-04    3.45      47.4  T
     SCC iter.                  ...        0 min,  0.009 sec
     gradient                   ...        0 min,  0.004 sec
 * total energy  :   -57.2050381 Eh     change       -0.2881733E-04 Eh
   gradient norm :     0.0027988 Eh/α   predicted    -0.2286087E-04 ( -20.67%)
   displ. norm   :     0.2125277 α      lambda       -0.4477699E-04
   maximum displ.:     0.1197577 α      in ANC's #3, #1, #8, ...

........................................................................
.............................. CYCLE   18 ..............................
........................................................................

 iter      E             dE          RMSdq      gap      omega  full diag
   1    -57.8058844 -0.578059E+02  0.369E-02    3.45       0.0  T
   2    -57.8058847 -0.277635E-06  0.221E-02    3.45       1.0  T
   3    -57.8058841  0.531153E-06  0.470E-03    3.45       3.4  T
   4    -57.8058848 -0.661242E-06  0.117E-03    3.45      13.6  T
   5    -57.8058848 -0.144129E-07  0.599E-04    3.45      26.7  T
   6    -57.8058848 -0.128896E-08  0.194E-04    3.45      82.3  T
     SCC iter.                  ...        0 min,  0.010 sec
     gradient                   ...        0 min,  0.004 sec
 * total energy  :   -57.2050696 Eh     change       -0.3152877E-04 Eh
   gradient norm :     0.0024439 Eh/α   predicted    -0.2340560E-04 ( -25.76%)
   displ. norm   :     0.1557350 α      lambda       -0.4473788E-04
   maximum displ.:     0.0901475 α      in ANC's #3, #1, #6, ...

........................................................................
.............................. CYCLE   19 ..............................
........................................................................

 iter      E             dE          RMSdq      gap      omega  full diag
   1    -57.8065120 -0.578065E+02  0.283E-02    3.45       0.0  T
   2    -57.8065121 -0.144805E-06  0.170E-02    3.45       1.0  T
   3    -57.8065119  0.266732E-06  0.340E-03    3.45       4.7  T
   4    -57.8065122 -0.333347E-06  0.847E-04    3.45      18.9  T
   5    -57.8065122 -0.782890E-08  0.439E-04    3.45      36.5  T
     SCC iter.                  ...        0 min,  0.009 sec
     gradient                   ...        0 min,  0.004 sec
 * total energy  :   -57.2051050 Eh     change       -0.3540278E-04 Eh
   gradient norm :     0.0024162 Eh/α   predicted    -0.2291363E-04 ( -35.28%)
   displ. norm   :     0.2247944 α      lambda       -0.6042729E-04
   maximum displ.:     0.1284641 α      in ANC's #3, #1, #6, ...

........................................................................
.............................. CYCLE   20 ..............................
........................................................................

 iter      E             dE          RMSdq      gap      omega  full diag
   1    -57.8067772 -0.578068E+02  0.400E-02    3.45       0.0  T
   2    -57.8067775 -0.280015E-06  0.241E-02    3.45       1.0  T
   3    -57.8067775  0.443869E-07  0.271E-03    3.45       5.9  T
   4    -57.8067776 -0.152019E-06  0.123E-03    3.45      13.0  T
   5    -57.8067776 -0.155581E-07  0.667E-04    3.45      24.0  T
   6    -57.8067776 -0.455885E-08  0.158E-04    3.45     101.2  T
     SCC iter.                  ...        0 min,  0.012 sec
     gradient                   ...        0 min,  0.003 sec
 * total energy  :   -57.2051503 Eh     change       -0.4529473E-04 Eh
   gradient norm :     0.0029904 Eh/α   predicted    -0.3174428E-04 ( -29.92%)
   displ. norm   :     0.2433322 α      lambda       -0.5474962E-04
   maximum displ.:     0.1341986 α      in ANC's #3, #1, #6, ...
 * RMSD in coord.:     0.5853717 α      energy gain  -0.3680236E-01 Eh

generating ANC from exact Hessian ...
Using Lindh-Hessian (1995)
 Shifting diagonal of input Hessian by   9.872348892802429E-003
 Lowest  eigenvalues of input Hessian
    0.000000    0.000000    0.000000    0.000000    0.000000    0.010000
    0.000000    0.010279    0.010407    0.010610    0.010939    0.011442
    0.011590    0.013112    0.013936    0.014388    0.016125    0.017849
 Highest eigenvalues
    1.582007    1.587684    1.602961    1.832322    1.922359    2.382872
 

........................................................................
.............................. CYCLE   21 ..............................
........................................................................

 iter      E             dE          RMSdq      gap      omega  full diag
   1    -57.8067687 -0.578068E+02  0.425E-02    3.45       0.0  T
   2    -57.8067690 -0.307949E-06  0.257E-02    3.45       1.0  T
   3    -57.8067691 -0.869719E-07  0.192E-03    3.45       8.4  T
   4    -57.8067692 -0.326958E-07  0.120E-03    3.45      13.3  T
   5    -57.8067692 -0.135325E-07  0.636E-04    3.45      25.2  T
   6    -57.8067692 -0.623866E-08  0.178E-04    3.45      90.2  T
     SCC iter.                  ...        0 min,  0.010 sec
     gradient                   ...        0 min,  0.004 sec
 * total energy  :   -57.2051915 Eh     change       -0.4116799E-04 Eh
   gradient norm :     0.0032077 Eh/α   predicted     0.0000000E+00 (-100.00%)
   displ. norm   :     0.0353808 α      lambda       -0.3218766E-04
   maximum displ.:     0.0149697 α      in ANC's #9, #4, #12, ...

........................................................................
.............................. CYCLE   22 ..............................
........................................................................

 iter      E             dE          RMSdq      gap      omega  full diag
   1    -57.8068506 -0.578069E+02  0.871E-03    3.45       0.0  T
   2    -57.8068506 -0.704881E-07  0.525E-03    3.45       3.0  T
   3    -57.8068505  0.929124E-07  0.211E-03    3.45       7.6  T
   4    -57.8068506 -0.107661E-06  0.562E-04    3.45      28.5  T
   5    -57.8068506 -0.751170E-08  0.194E-04    3.45      82.7  T
     SCC iter.                  ...        0 min,  0.007 sec
     gradient                   ...        0 min,  0.004 sec
 * total energy  :   -57.2052175 Eh     change       -0.2604856E-04 Eh
   gradient norm :     0.0014950 Eh/α   predicted    -0.1636932E-04 ( -37.16%)
   displ. norm   :     0.1399330 α      lambda       -0.4732044E-04
   maximum displ.:     0.0586779 α      in ANC's #4, #9, #1, ...

........................................................................
.............................. CYCLE   23 ..............................
........................................................................

 iter      E             dE          RMSdq      gap      omega  full diag
   1    -57.8066715 -0.578067E+02  0.262E-02    3.45       0.0  T
   2    -57.8066720 -0.467326E-06  0.159E-02    3.45       1.0  T
   3    -57.8066711  0.855754E-06  0.610E-03    3.45       2.6  T
   4    -57.8066721 -0.981947E-06  0.143E-03    3.45      11.2  T
   5    -57.8066721 -0.461372E-07  0.519E-04    3.45      30.9  T
   6    -57.8066721 -0.161180E-08  0.220E-04    3.45      72.7  T
     SCC iter.                  ...        0 min,  0.009 sec
     gradient                   ...        0 min,  0.004 sec
 * total energy  :   -57.2052508 Eh     change       -0.3327946E-04 Eh
   gradient norm :     0.0028923 Eh/α   predicted    -0.2386657E-04 ( -28.28%)
   displ. norm   :     0.0362270 α      lambda       -0.1483669E-04
   maximum displ.:     0.0163106 α      in ANC's #4, #1, #2, ...

........................................................................
.............................. CYCLE   24 ..............................
........................................................................

 iter      E             dE          RMSdq      gap      omega  full diag
   1    -57.8066062 -0.578066E+02  0.651E-03    3.45       0.0  T
   2    -57.8066062 -0.141777E-07  0.389E-03    3.45       4.1  T
   3    -57.8066062  0.177877E-07  0.889E-04    3.45      18.0  T
   4    -57.8066062 -0.207776E-07  0.268E-04    3.45      59.7  T
     SCC iter.                  ...        0 min,  0.006 sec
     gradient                   ...        0 min,  0.011 sec
 * total energy  :   -57.2052641 Eh     change       -0.1328123E-04 Eh
   gradient norm :     0.0022246 Eh/α   predicted    -0.7428517E-05 ( -44.07%)
   displ. norm   :     0.1639704 α      lambda       -0.5473649E-04
   maximum displ.:     0.0732693 α      in ANC's #1, #4, #2, ...

........................................................................
.............................. CYCLE   25 ..............................
........................................................................

 iter      E             dE          RMSdq      gap      omega  full diag
   1    -57.8063311 -0.578063E+02  0.275E-02    3.45       0.0  T
   2    -57.8063313 -0.238555E-06  0.164E-02    3.44       1.0  T
   3    -57.8063309  0.394106E-06  0.409E-03    3.44       3.9  T
   4    -57.8063314 -0.459721E-06  0.107E-03    3.44      14.9  T
   5    -57.8063314 -0.221831E-07  0.442E-04    3.44      36.2  T
   6    -57.8063314 -0.936708E-09  0.188E-04    3.44      85.3  T
     SCC iter.                  ...        0 min,  0.009 sec
     gradient                   ...        0 min,  0.004 sec
 * total energy  :   -57.2052991 Eh     change       -0.3501939E-04 Eh
   gradient norm :     0.0013196 Eh/α   predicted    -0.2820552E-04 ( -19.46%)
   displ. norm   :     0.1888662 α      lambda       -0.2234381E-04
   maximum displ.:     0.0888887 α      in ANC's #1, #4, #2, ...

........................................................................
.............................. CYCLE   26 ..............................
........................................................................

 iter      E             dE          RMSdq      gap      omega  full diag
   1    -57.8061428 -0.578061E+02  0.297E-02    3.44       0.0  T
   2    -57.8061429 -0.159648E-06  0.178E-02    3.44       1.0  T
   3    -57.8061427  0.283089E-06  0.349E-03    3.44       4.6  T
   4    -57.8061430 -0.354248E-06  0.937E-04    3.44      17.1  T
   5    -57.8061430 -0.101211E-07  0.427E-04    3.44      37.5  T
     SCC iter.                  ...        0 min,  0.007 sec
     gradient                   ...        0 min,  0.004 sec
 * total energy  :   -57.2053203 Eh     change       -0.2114931E-04 Eh
   gradient norm :     0.0023952 Eh/α   predicted    -0.1135264E-04 ( -46.32%)
   displ. norm   :     0.1058629 α      lambda       -0.2201998E-04
   maximum displ.:     0.0524511 α      in ANC's #1, #4, #2, ...

........................................................................
.............................. CYCLE   27 ..............................
........................................................................

 iter      E             dE          RMSdq      gap      omega  full diag
   1    -57.8063019 -0.578063E+02  0.171E-02    3.43       0.0  T
   2    -57.8063019 -0.394288E-07  0.102E-02    3.43       1.6  T
   3    -57.8063019 -0.173069E-07  0.591E-04    3.43      27.1  T
   4    -57.8063019 -0.779700E-09  0.341E-04    3.43      47.0  T
     SCC iter.                  ...        0 min,  0.006 sec
     gradient                   ...        0 min,  0.004 sec
 * total energy  :   -57.2053397 Eh     change       -0.1946897E-04 Eh
   gradient norm :     0.0020245 Eh/α   predicted    -0.1113441E-04 ( -42.81%)
   displ. norm   :     0.2346866 α      lambda       -0.5171207E-04
   maximum displ.:     0.1190673 α      in ANC's #1, #2, #4, ...

........................................................................
.............................. CYCLE   28 ..............................
........................................................................

 iter      E             dE          RMSdq      gap      omega  full diag
   1    -57.8066579 -0.578067E+02  0.388E-02    3.43       0.0  T
   2    -57.8066582 -0.227852E-06  0.232E-02    3.43       1.0  T
   3    -57.8066582 -0.781732E-07  0.147E-03    3.43      10.9  T
   4    -57.8066582 -0.155311E-07  0.827E-04    3.43      19.4  T
   5    -57.8066582 -0.198476E-08  0.311E-04    3.43      51.5  T
     SCC iter.                  ...        0 min,  0.008 sec
     gradient                   ...        0 min,  0.004 sec
 * total energy  :   -57.2053787 Eh     change       -0.3897924E-04 Eh
   gradient norm :     0.0012521 Eh/α   predicted    -0.2728511E-04 ( -30.00%)
   displ. norm   :     0.3805548 α      lambda       -0.3650857E-04
   maximum displ.:     0.1975146 α      in ANC's #1, #2, #4, ...

........................................................................
.............................. CYCLE   29 ..............................
........................................................................

 iter      E             dE          RMSdq      gap      omega  full diag
   1    -57.8062291 -0.578062E+02  0.626E-02    3.44       0.0  T
   2    -57.8062297 -0.599095E-06  0.376E-02    3.43       1.0  T
   3    -57.8062299 -0.175741E-06  0.260E-03    3.43       6.2  T
   4    -57.8062299 -0.478173E-07  0.162E-03    3.43       9.9  T
   5    -57.8062299 -0.193191E-07  0.891E-04    3.43      18.0  T
   6    -57.8062300 -0.115674E-07  0.282E-04    3.43      56.8  T
     SCC iter.                  ...        0 min,  0.009 sec
     gradient                   ...        0 min,  0.005 sec
 * total energy  :   -57.2054156 Eh     change       -0.3688205E-04 Eh
   gradient norm :     0.0022882 Eh/α   predicted    -0.1943038E-04 ( -47.32%)
   displ. norm   :     0.1508814 α      lambda       -0.2472674E-04
   maximum displ.:     0.0825814 α      in ANC's #1, #2, #4, ...

........................................................................
.............................. CYCLE   30 ..............................
........................................................................

 iter      E             dE          RMSdq      gap      omega  full diag
   1    -57.8064670 -0.578065E+02  0.243E-02    3.44       0.0  T
   2    -57.8064671 -0.865163E-07  0.146E-02    3.44       1.1  T
   3    -57.8064672 -0.381754E-07  0.867E-04    3.44      18.5  T
   4    -57.8064672 -0.191077E-08  0.368E-04    3.44      43.6  T
     SCC iter.                  ...        0 min,  0.006 sec
     gradient                   ...        0 min,  0.005 sec
 * total energy  :   -57.2054378 Eh     change       -0.2218478E-04 Eh
   gradient norm :     0.0018652 Eh/α   predicted    -0.1264852E-04 ( -42.99%)
   displ. norm   :     0.3968284 α      lambda       -0.5039729E-04
   maximum displ.:     0.2219079 α      in ANC's #1, #2, #4, ...

........................................................................
.............................. CYCLE   31 ..............................
........................................................................

 iter      E             dE          RMSdq      gap      omega  full diag
   1    -57.8067449 -0.578067E+02  0.663E-02    3.44       0.0  T
   2    -57.8067456 -0.702093E-06  0.400E-02    3.44       1.0  T
   3    -57.8067458 -0.190093E-06  0.299E-03    3.44       5.3  T
   4    -57.8067458 -0.515667E-07  0.204E-03    3.44       7.9  T
   5    -57.8067459 -0.702788E-07  0.724E-04    3.44      22.1  T
   6    -57.8067459 -0.364223E-08  0.241E-04    3.44      66.4  T
     SCC iter.                  ...        0 min,  0.009 sec
     gradient                   ...        0 min,  0.004 sec
 * total energy  :   -57.2054907 Eh     change       -0.5296690E-04 Eh
   gradient norm :     0.0014615 Eh/α   predicted    -0.2696273E-04 ( -49.10%)
   displ. norm   :     0.3253499 α      lambda       -0.2651819E-04
   maximum displ.:     0.1858994 α      in ANC's #1, #2, #4, ...

........................................................................
.............................. CYCLE   32 ..............................
........................................................................

 iter      E             dE          RMSdq      gap      omega  full diag
   1    -57.8060073 -0.578060E+02  0.538E-02    3.45       0.0  T
   2    -57.8060078 -0.488352E-06  0.324E-02    3.45       1.0  T
   3    -57.8060076  0.211722E-06  0.416E-03    3.45       3.8  T
   4    -57.8060080 -0.424705E-06  0.167E-03    3.45       9.6  T
   5    -57.8060081 -0.282266E-07  0.590E-04    3.45      27.2  T
   6    -57.8060081 -0.129052E-08  0.206E-04    3.45      77.6  T
     SCC iter.                  ...        0 min,  0.009 sec
     gradient                   ...        0 min,  0.005 sec
 * total energy  :   -57.2055208 Eh     change       -0.3002771E-04 Eh
   gradient norm :     0.0020039 Eh/α   predicted    -0.1388544E-04 ( -53.76%)
   displ. norm   :     0.1968271 α      lambda       -0.3150651E-04
   maximum displ.:     0.1165689 α      in ANC's #1, #2, #4, ...

........................................................................
.............................. CYCLE   33 ..............................
........................................................................

 iter      E             dE          RMSdq      gap      omega  full diag
   1    -57.8065871 -0.578066E+02  0.328E-02    3.45       0.0  T
   2    -57.8065873 -0.194334E-06  0.198E-02    3.45       1.0  T
   3    -57.8065872  0.161299E-06  0.308E-03    3.45       5.2  T
   4    -57.8065874 -0.250470E-06  0.104E-03    3.45      15.4  T
   5    -57.8065874 -0.105899E-07  0.443E-04    3.45      36.1  T
   6    -57.8065874 -0.827740E-09  0.130E-04    3.45     122.9  T
     SCC iter.                  ...        0 min,  0.009 sec
     gradient                   ...        0 min,  0.005 sec
 * total energy  :   -57.2055473 Eh     change       -0.2657140E-04 Eh
   gradient norm :     0.0017061 Eh/α   predicted    -0.1636518E-04 ( -38.41%)
   displ. norm   :     0.4900130 α      lambda       -0.4561745E-04
   maximum displ.:     0.2909208 α      in ANC's #1, #2, #4, ...

........................................................................
.............................. CYCLE   34 ..............................
........................................................................

 iter      E             dE          RMSdq      gap      omega  full diag
   1    -57.8060299 -0.578060E+02  0.803E-02    3.45       0.0  T
   2    -57.8060310 -0.113545E-05  0.484E-02    3.44       1.0  T
   3    -57.8060294  0.160510E-05  0.878E-03    3.44       1.8  T
   4    -57.8060316 -0.221652E-05  0.250E-03    3.44       6.4  T
   5    -57.8060316 -0.424681E-07  0.942E-04    3.44      17.0  T
   6    -57.8060317 -0.319321E-08  0.323E-04    3.44      49.6  T
     SCC iter.                  ...        0 min,  0.009 sec
     gradient                   ...        0 min,  0.005 sec
 * total energy  :   -57.2055964 Eh     change       -0.4905878E-04 Eh
   gradient norm :     0.0017664 Eh/α   predicted    -0.2524377E-04 ( -48.54%)
   displ. norm   :     0.2780218 α      lambda       -0.2804121E-04
   maximum displ.:     0.1710459 α      in ANC's #1, #2, #3, ...

........................................................................
.............................. CYCLE   35 ..............................
........................................................................

 iter      E             dE          RMSdq      gap      omega  full diag
   1    -57.8067862 -0.578068E+02  0.446E-02    3.44       0.0  T
   2    -57.8067866 -0.384990E-06  0.269E-02    3.44       1.0  T
   3    -57.8067863  0.296289E-06  0.422E-03    3.44       3.8  T
   4    -57.8067867 -0.475522E-06  0.151E-03    3.44      10.6  T
   5    -57.8067868 -0.221151E-07  0.658E-04    3.44      24.3  T
   6    -57.8067868 -0.221327E-08  0.202E-04    3.44      79.5  T
     SCC iter.                  ...        0 min,  0.010 sec
     gradient                   ...        0 min,  0.005 sec
 * total energy  :   -57.2056278 Eh     change       -0.3142166E-04 Eh
   gradient norm :     0.0013393 Eh/α   predicted    -0.1450345E-04 ( -53.84%)
   displ. norm   :     0.3905485 α      lambda       -0.2894843E-04
   maximum displ.:     0.2398432 α      in ANC's #1, #2, #3, ...

........................................................................
.............................. CYCLE   36 ..............................
........................................................................

 iter      E             dE          RMSdq      gap      omega  full diag
   1    -57.8053838 -0.578054E+02  0.638E-02    3.44       0.0  T
   2    -57.8053846 -0.793355E-06  0.385E-02    3.43       1.0  T
   3    -57.8053844  0.134812E-06  0.462E-03    3.43       3.5  T
   4    -57.8053849 -0.464856E-06  0.222E-03    3.43       7.2  T
   5    -57.8053850 -0.543845E-07  0.905E-04    3.43      17.7  T
   6    -57.8053850 -0.553883E-08  0.324E-04    3.43      49.5  T
     SCC iter.                  ...        0 min,  0.010 sec
     gradient                   ...        0 min,  0.005 sec
 * total energy  :   -57.2056581 Eh     change       -0.3027851E-04 Eh
   gradient norm :     0.0019807 Eh/α   predicted    -0.1545772E-04 ( -48.95%)
   displ. norm   :     0.2897662 α      lambda       -0.3669937E-04
   maximum displ.:     0.1817876 α      in ANC's #1, #2, #5, ...

........................................................................
.............................. CYCLE   37 ..............................
........................................................................

 iter      E             dE          RMSdq      gap      omega  full diag
   1    -57.8066862 -0.578067E+02  0.478E-02    3.42       0.0  T
   2    -57.8066866 -0.466445E-06  0.289E-02    3.42       1.0  T
   3    -57.8066868 -0.119756E-06  0.252E-03    3.43       6.3  T
   4    -57.8066868 -0.654860E-07  0.153E-03    3.43      10.4  T
   5    -57.8066868 -0.208900E-07  0.862E-04    3.43      18.6  T
   6    -57.8066868 -0.109126E-07  0.219E-04    3.42      73.1  T
     SCC iter.                  ...        0 min,  0.009 sec
     gradient                   ...        0 min,  0.005 sec
 * total energy  :   -57.2056968 Eh     change       -0.3873771E-04 Eh
   gradient norm :     0.0017145 Eh/α   predicted    -0.1903624E-04 ( -50.86%)
   displ. norm   :     0.4649144 α      lambda       -0.3526923E-04
   maximum displ.:     0.2952770 α      in ANC's #1, #2, #5, ...

........................................................................
.............................. CYCLE   38 ..............................
........................................................................

 iter      E             dE          RMSdq      gap      omega  full diag
   1    -57.8050948 -0.578051E+02  0.750E-02    3.42       0.0  T
   2    -57.8050960 -0.116657E-05  0.453E-02    3.42       1.0  T
   3    -57.8050950  0.953842E-06  0.751E-03    3.42       2.1  T
   4    -57.8050966 -0.153019E-05  0.262E-03    3.42       6.1  T
   5    -57.8050966 -0.550768E-07  0.111E-03    3.42      14.5  T
   6    -57.8050966 -0.642341E-08  0.377E-04    3.42      42.5  T
   7    -57.8050966 -0.840451E-09  0.153E-04    3.42     104.8  T
     SCC iter.                  ...        0 min,  0.011 sec
     gradient                   ...        0 min,  0.005 sec
 * total energy  :   -57.2057309 Eh     change       -0.3407134E-04 Eh
   gradient norm :     0.0024337 Eh/α   predicted    -0.1932975E-04 ( -43.27%)
   displ. norm   :     0.1809927 α      lambda       -0.3821067E-04
   maximum displ.:     0.1097917 α      in ANC's #1, #5, #2, ...

........................................................................
.............................. CYCLE   39 ..............................
........................................................................

 iter      E             dE          RMSdq      gap      omega  full diag
   1    -57.8061427 -0.578061E+02  0.300E-02    3.41       0.0  T
   2    -57.8061429 -0.197971E-06  0.181E-02    3.42       1.0  T
   3    -57.8061429 -0.598952E-07  0.131E-03    3.42      12.2  T
   4    -57.8061429 -0.153815E-07  0.704E-04    3.42      22.7  T
   5    -57.8061429 -0.887717E-09  0.258E-04    3.42      62.0  T
     SCC iter.                  ...        0 min,  0.008 sec
     gradient                   ...        0 min,  0.005 sec
 * total energy  :   -57.2057593 Eh     change       -0.2836495E-04 Eh
   gradient norm :     0.0016115 Eh/α   predicted    -0.1973257E-04 ( -30.43%)
   displ. norm   :     0.4168943 α      lambda       -0.3176813E-04
   maximum displ.:     0.2640961 α      in ANC's #1, #5, #2, ...

........................................................................
.............................. CYCLE   40 ..............................
........................................................................

 iter      E             dE          RMSdq      gap      omega  full diag
   1    -57.8061724 -0.578062E+02  0.687E-02    3.41       0.0  T
   2    -57.8061734 -0.934198E-06  0.415E-02    3.41       1.0  T
   3    -57.8061734 -0.594951E-07  0.430E-03    3.41       3.7  T
   4    -57.8061737 -0.288474E-06  0.235E-03    3.41       6.8  T
   5    -57.8061738 -0.737969E-07  0.110E-03    3.41      14.6  T
   6    -57.8061738 -0.986837E-08  0.294E-04    3.41      54.4  T
   7    -57.8061738 -0.427413E-09  0.120E-04    3.41     133.6  T
     SCC iter.                  ...        0 min,  0.011 sec
     gradient                   ...        0 min,  0.004 sec
 * total energy  :   -57.2057857 Eh     change       -0.2641484E-04 Eh
   gradient norm :     0.0019378 Eh/α   predicted    -0.1711205E-04 ( -35.22%)
   displ. norm   :     0.0736578 α      lambda       -0.1672184E-04
   maximum displ.:     0.0403866 α      in ANC's #7, #5, #1, ...

........................................................................
.............................. CYCLE   41 ..............................
........................................................................

 iter      E             dE          RMSdq      gap      omega  full diag
   1    -57.8079554 -0.578080E+02  0.171E-02    3.42       0.0  T
   2    -57.8079555 -0.110844E-06  0.103E-02    3.42       1.5  T
   3    -57.8079553  0.114670E-06  0.224E-03    3.42       7.2  T
   4    -57.8079555 -0.139864E-06  0.742E-04    3.42      21.6  T
   5    -57.8079555 -0.112076E-07  0.312E-04    3.42      51.4  T
     SCC iter.                  ...        0 min,  0.009 sec
     gradient                   ...        0 min,  0.005 sec
 * total energy  :   -57.2057960 Eh     change       -0.1026736E-04 Eh
   gradient norm :     0.0021464 Eh/α   predicted    -0.8382136E-05 ( -18.36%)
   displ. norm   :     0.1857865 α      lambda       -0.2255264E-04
   maximum displ.:     0.1212389 α      in ANC's #1, #2, #5, ...

........................................................................
.............................. CYCLE   42 ..............................
........................................................................

 iter      E             dE          RMSdq      gap      omega  full diag
   1    -57.8071502 -0.578072E+02  0.301E-02    3.42       0.0  T
   2    -57.8071504 -0.232063E-06  0.182E-02    3.42       1.0  T
   3    -57.8071503  0.102112E-06  0.267E-03    3.42       6.0  T
   4    -57.8071505 -0.169407E-06  0.111E-03    3.42      14.4  T
   5    -57.8071505 -0.192492E-07  0.418E-04    3.42      38.3  T
   6    -57.8071505 -0.623395E-09  0.158E-04    3.42     101.1  T
     SCC iter.                  ...        0 min,  0.011 sec
     gradient                   ...        0 min,  0.005 sec
 * total energy  :   -57.2058132 Eh     change       -0.1722769E-04 Eh
   gradient norm :     0.0017296 Eh/α   predicted    -0.1167368E-04 ( -32.24%)
   displ. norm   :     0.4045677 α      lambda       -0.3072789E-04
   maximum displ.:     0.2644792 α      in ANC's #1, #2, #5, ...
 * RMSD in coord.:     0.7821482 α      energy gain  -0.6628698E-03 Eh

generating ANC from exact Hessian ...
Using Lindh-Hessian (1995)
 Shifting diagonal of input Hessian by   9.841389906069250E-003
 Lowest  eigenvalues of input Hessian
    0.000000    0.000000    0.000000    0.000000    0.000000    0.000000
    0.010000    0.010245    0.010389    0.010557    0.010948    0.011280
    0.011513    0.012970    0.014162    0.014336    0.016240    0.017530
 Highest eigenvalues
    1.575721    1.584225    1.601828    1.829883    1.920400    2.379408
 

........................................................................
.............................. CYCLE   43 ..............................
........................................................................

 iter      E             dE          RMSdq      gap      omega  full diag
   1    -57.8046913 -0.578047E+02  0.677E-02    3.43       0.0  T
   2    -57.8046925 -0.118796E-05  0.408E-02    3.42       1.0  T
   3    -57.8046915  0.978386E-06  0.716E-03    3.42       2.2  T
   4    -57.8046929 -0.135920E-05  0.244E-03    3.42       6.6  T
   5    -57.8046930 -0.820260E-07  0.103E-03    3.42      15.5  T
   6    -57.8046930 -0.381281E-08  0.359E-04    3.42      44.6  T
   7    -57.8046930 -0.568811E-09  0.126E-04    3.42     127.6  T
     SCC iter.                  ...        0 min,  0.012 sec
     gradient                   ...        0 min,  0.004 sec
 * total energy  :   -57.2058286 Eh     change       -0.1542752E-04 Eh
   gradient norm :     0.0034961 Eh/α   predicted     0.0000000E+00 (-100.00%)
   displ. norm   :     0.0276751 α      lambda       -0.4105215E-04
   maximum displ.:     0.0113301 α      in ANC's #7, #18, #11, ...

........................................................................
.............................. CYCLE   44 ..............................
........................................................................

 iter      E             dE          RMSdq      gap      omega  full diag
   1    -57.8066626 -0.578067E+02  0.101E-02    3.42       0.0  T
   2    -57.8066628 -0.165442E-06  0.596E-03    3.42       2.7  T
   3    -57.8066626  0.142117E-06  0.270E-03    3.42       5.9  T
   4    -57.8066628 -0.162104E-06  0.798E-04    3.42      20.1  T
   5    -57.8066628 -0.150150E-07  0.212E-04    3.42      75.5  T
     SCC iter.                  ...        0 min,  0.009 sec
     gradient                   ...        0 min,  0.004 sec
 * total energy  :   -57.2058571 Eh     change       -0.2845084E-04 Eh
   gradient norm :     0.0012604 Eh/α   predicted    -0.2074522E-04 ( -27.08%)
   displ. norm   :     0.0585355 α      lambda       -0.1787734E-04
   maximum displ.:     0.0308547 α      in ANC's #7, #18, #10, ...

........................................................................
.............................. CYCLE   45 ..............................
........................................................................

 iter      E             dE          RMSdq      gap      omega  full diag
   1    -57.8081438 -0.578081E+02  0.138E-02    3.42       0.0  T
   2    -57.8081441 -0.268850E-06  0.832E-03    3.42       1.9  T
   3    -57.8081440  0.131481E-06  0.276E-03    3.42       5.8  T
   4    -57.8081441 -0.139342E-06  0.110E-03    3.42      14.5  T
   5    -57.8081441 -0.320977E-07  0.267E-04    3.42      60.0  T
   6    -57.8081441 -0.604189E-09  0.107E-04    3.42     149.5  T
     SCC iter.                  ...        0 min,  0.010 sec
     gradient                   ...        0 min,  0.003 sec
 * total energy  :   -57.2058706 Eh     change       -0.1349093E-04 Eh
   gradient norm :     0.0013285 Eh/α   predicted    -0.8952947E-05 ( -33.64%)
   displ. norm   :     0.0412781 α      lambda       -0.7501999E-05
   maximum displ.:     0.0273724 α      in ANC's #7, #11, #18, ...

........................................................................
.............................. CYCLE   46 ..............................
........................................................................

 iter      E             dE          RMSdq      gap      omega  full diag
   1    -57.8076752 -0.578077E+02  0.896E-03    3.42       0.0  T
   2    -57.8076752 -0.294378E-07  0.541E-03    3.42       3.0  T
   3    -57.8076752 -0.206215E-08  0.574E-04    3.42      27.9  T
   4    -57.8076752 -0.248323E-08  0.379E-04    3.42      42.2  T
     SCC iter.                  ...        0 min,  0.007 sec
     gradient                   ...        0 min,  0.004 sec
 * total energy  :   -57.2058793 Eh     change       -0.8769538E-05 Eh
   gradient norm :     0.0009981 Eh/α   predicted    -0.3755192E-05 ( -57.18%)
   displ. norm   :     0.0948991 α      lambda       -0.1442726E-04
   maximum displ.:     0.0620826 α      in ANC's #7, #8, #11, ...

........................................................................
.............................. CYCLE   47 ..............................
........................................................................

 iter      E             dE          RMSdq      gap      omega  full diag
   1    -57.8064268 -0.578064E+02  0.208E-02    3.43       0.0  T
   2    -57.8064269 -0.117986E-06  0.126E-02    3.43       1.3  T
   3    -57.8064269  0.251875E-08  0.144E-03    3.43      11.1  T
   4    -57.8064269 -0.332955E-07  0.787E-04    3.43      20.3  T
   5    -57.8064269 -0.108304E-07  0.332E-04    3.43      48.2  T
     SCC iter.                  ...        0 min,  0.014 sec
     gradient                   ...        0 min,  0.006 sec
 * total energy  :   -57.2058914 Eh     change       -0.1209085E-04 Eh
   gradient norm :     0.0012026 Eh/α   predicted    -0.7248710E-05 ( -40.05%)
   displ. norm   :     0.0693035 α      lambda       -0.8599413E-05
   maximum displ.:     0.0479445 α      in ANC's #7, #8, #4, ...

........................................................................
.............................. CYCLE   48 ..............................
........................................................................

 iter      E             dE          RMSdq      gap      omega  full diag
   1    -57.8064366 -0.578064E+02  0.156E-02    3.43       0.0  T
   2    -57.8064367 -0.559933E-07  0.951E-03    3.43       1.7  T
   3    -57.8064367 -0.845048E-08  0.845E-04    3.43      18.9  T
   4    -57.8064367 -0.962002E-08  0.470E-04    3.43      34.1  T
     SCC iter.                  ...        0 min,  0.012 sec
     gradient                   ...        0 min,  0.005 sec
 * total energy  :   -57.2059013 Eh     change       -0.9838588E-05 Eh
   gradient norm :     0.0009832 Eh/α   predicted    -0.4309574E-05 ( -56.20%)
   displ. norm   :     0.0877756 α      lambda       -0.9724413E-05
   maximum displ.:     0.0612055 α      in ANC's #7, #8, #4, ...

........................................................................
.............................. CYCLE   49 ..............................
........................................................................

 iter      E             dE          RMSdq      gap      omega  full diag
   1    -57.8068702 -0.578069E+02  0.191E-02    3.43       0.0  T
   2    -57.8068702 -0.780360E-07  0.116E-02    3.43       1.4  T
   3    -57.8068701  0.962003E-07  0.214E-03    3.43       7.5  T
   4    -57.8068703 -0.129292E-06  0.623E-04    3.43      25.7  T
   5    -57.8068703 -0.435552E-08  0.273E-04    3.43      58.6  T
     SCC iter.                  ...        0 min,  0.011 sec
     gradient                   ...        0 min,  0.006 sec
 * total energy  :   -57.2059120 Eh     change       -0.1075857E-04 Eh
   gradient norm :     0.0007628 Eh/α   predicted    -0.4879888E-05 ( -54.64%)
   displ. norm   :     0.0928859 α      lambda       -0.8089730E-05
   maximum displ.:     0.0662237 α      in ANC's #7, #8, #4, ...

........................................................................
.............................. CYCLE   50 ..............................
........................................................................

 iter      E             dE          RMSdq      gap      omega  full diag
   1    -57.8072533 -0.578073E+02  0.195E-02    3.44       0.0  T
   2    -57.8072533 -0.729723E-07  0.118E-02    3.44       1.4  T
   3    -57.8072533  0.557590E-07  0.178E-03    3.44       9.0  T
   4    -57.8072534 -0.835406E-07  0.634E-04    3.44      25.2  T
   5    -57.8072534 -0.506843E-08  0.270E-04    3.44      59.2  T
     SCC iter.                  ...        0 min,  0.015 sec
     gradient                   ...        0 min,  0.008 sec
 * total energy  :   -57.2059197 Eh     change       -0.7681925E-05 Eh
   gradient norm :     0.0005900 Eh/α   predicted    -0.4064327E-05 ( -47.09%)
   displ. norm   :     0.0621246 α      lambda       -0.4266577E-05
   maximum displ.:     0.0445958 α      in ANC's #7, #8, #1, ...

........................................................................
.............................. CYCLE   51 ..............................
........................................................................

 iter      E             dE          RMSdq      gap      omega  full diag
   1    -57.8073420 -0.578073E+02  0.125E-02    3.44       0.0  T
   2    -57.8073421 -0.258300E-07  0.751E-03    3.44       2.1  T
   3    -57.8073421  0.156484E-07  0.995E-04    3.44      16.1  T
   4    -57.8073421 -0.251234E-07  0.378E-04    3.44      42.4  T
     SCC iter.                  ...        0 min,  0.013 sec
     gradient                   ...        0 min,  0.007 sec
 * total energy  :   -57.2059248 Eh     change       -0.5107357E-05 Eh
   gradient norm :     0.0004014 Eh/α   predicted    -0.2138604E-05 ( -58.13%)
   displ. norm   :     0.0653303 α      lambda       -0.4354917E-05
   maximum displ.:     0.0451295 α      in ANC's #7, #1, #8, ...

........................................................................
.............................. CYCLE   52 ..............................
........................................................................

 iter      E             dE          RMSdq      gap      omega  full diag
   1    -57.8073318 -0.578073E+02  0.110E-02    3.44       0.0  T
   2    -57.8073318 -0.204120E-07  0.664E-03    3.44       2.4  T
   3    -57.8073318 -0.265540E-08  0.523E-04    3.44      30.6  T
   4    -57.8073318 -0.257107E-08  0.338E-04    3.44      47.4  T
     SCC iter.                  ...        0 min,  0.011 sec
     gradient                   ...        0 min,  0.004 sec
 * total energy  :   -57.2059306 Eh     change       -0.5783114E-05 Eh
   gradient norm :     0.0003541 Eh/α   predicted    -0.2182921E-05 ( -62.25%)
   displ. norm   :     0.1117507 α      lambda       -0.7187233E-05
   maximum displ.:     0.0727349 α      in ANC's #7, #1, #5, ...

........................................................................
.............................. CYCLE   53 ..............................
........................................................................

 iter      E             dE          RMSdq      gap      omega  full diag
   1    -57.8071944 -0.578072E+02  0.198E-02    3.44       0.0  T
   2    -57.8071944 -0.512590E-07  0.118E-02    3.44       1.4  T
   3    -57.8071944 -0.164603E-07  0.701E-04    3.44      22.8  T
   4    -57.8071944 -0.846832E-09  0.467E-04    3.44      34.3  T
     SCC iter.                  ...        0 min,  0.006 sec
     gradient                   ...        0 min,  0.004 sec
 * total energy  :   -57.2059395 Eh     change       -0.8946688E-05 Eh
   gradient norm :     0.0005912 Eh/α   predicted    -0.3615047E-05 ( -59.59%)
   displ. norm   :     0.1967254 α      lambda       -0.9448125E-05
   maximum displ.:     0.1261835 α      in ANC's #7, #1, #5, ...

........................................................................
.............................. CYCLE   54 ..............................
........................................................................

 iter      E             dE          RMSdq      gap      omega  full diag
   1    -57.8067483 -0.578067E+02  0.343E-02    3.44       0.0  T
   2    -57.8067484 -0.145040E-06  0.206E-02    3.44       1.0  T
   3    -57.8067485 -0.596113E-07  0.120E-03    3.44      13.3  T
   4    -57.8067485  0.287542E-09  0.778E-04    3.44      20.6  T
   5    -57.8067485 -0.718968E-08  0.356E-04    3.44      45.0  T
     SCC iter.                  ...        0 min,  0.008 sec
     gradient                   ...        0 min,  0.003 sec
 * total energy  :   -57.2059486 Eh     change       -0.9071001E-05 Eh
   gradient norm :     0.0010818 Eh/α   predicted    -0.4808446E-05 ( -46.99%)
   displ. norm   :     0.0920269 α      lambda       -0.4009228E-05
   maximum displ.:     0.0555838 α      in ANC's #7, #1, #5, ...

........................................................................
.............................. CYCLE   55 ..............................
........................................................................

 iter      E             dE          RMSdq      gap      omega  full diag
   1    -57.8068981 -0.578069E+02  0.171E-02    3.44       0.0  T
   2    -57.8068981 -0.345727E-07  0.103E-02    3.44       1.6  T
   3    -57.8068982 -0.151315E-07  0.610E-04    3.44      26.2  T
   4    -57.8068982  0.111598E-09  0.403E-04    3.44      39.7  T
     SCC iter.                  ...        0 min,  0.006 sec
     gradient                   ...        0 min,  0.004 sec
 * total energy  :   -57.2059533 Eh     change       -0.4744356E-05 Eh
   gradient norm :     0.0007788 Eh/α   predicted    -0.2015831E-05 ( -57.51%)
   displ. norm   :     0.1390594 α      lambda       -0.5850129E-05
   maximum displ.:     0.0785890 α      in ANC's #7, #1, #5, ...

   *** GEOMETRY OPTIMIZATION CONVERGED AFTER 55 ITERATIONS ***

------------------------------------------------------------------------
 total energy gain   :        -0.0376054 Eh      -23.5977 kcal/mol
 total RMSD          :         1.1781570 a0        0.6235 Å
 total power (kW/mol):        -1.7951443 (step) -104.6158 (real)
------------------------------------------------------------------------

 ANCopt (total)                0 d,  0 h,  0 min,  0.944 sec
 optimizer setup                ...        0 min,  0.000 sec (  0.013%)
 model hessian                  ...        0 min,  0.037 sec (  3.944%)
 ANC generation                 ...        0 min,  0.004 sec (  0.450%)
 coordinate transformation      ...        0 min,  0.001 sec (  0.075%)
 single point calculation       ...        0 min,  0.871 sec ( 92.253%)
 optimization log               ...        0 min,  0.016 sec (  1.713%)
 hessian update                 ...        0 min,  0.008 sec (  0.836%)
 rational function              ...        0 min,  0.005 sec (  0.493%)

================
 final structure:
================
39
 xtb: 6.7.1 (edcfbbe)
C           -7.46369570165146        0.22029677895266        0.02315043844618
C           -6.17732092954841        1.04162254772270        0.10771802944049
O           -5.10713252432919        0.37128764505347        0.73017188591990
C           -4.56165296648456       -0.69632638640347       -0.00611306665894
C           -3.19767415902759       -1.06206358309477        0.59323591521125
O           -2.20292635786276       -0.08618725630244        0.43147225838284
C           -1.73087291787419        0.08403187481322       -0.88349077030851
C           -0.40116023418359        0.82794671517985       -0.82337685538621
O            0.62963013074275       -0.09612056291659       -0.56066734676932
C            1.86909483408828        0.52140676700017       -0.32677236473425
C            2.89620495063880       -0.56187283315896       -0.02405337730099
O            4.13590577141219        0.07941864073268        0.24724846952222
C            5.20803536180029       -0.72194183578721        0.35917109299892
O            5.14941623713699       -1.92084137265936        0.23980554543627
C            6.46190404122693        0.02946524820095        0.64015940398344
C            7.67580135565026       -0.83045600240929        0.79050176331350
C            6.46989606883488        1.35426211527966        0.74225222705222
H           -7.35372139509618       -0.61015907196084       -0.67081092843147
H           -8.27668877771906        0.85381338122538       -0.32119127154741
H           -7.71434518580072       -0.17424553179171        1.00493051155614
H           -5.88122232922074        1.37028757569421       -0.90222070806175
H           -6.34384628803162        1.92694676726150        0.72724615857441
H           -4.45183914435552       -0.41355735760596       -1.06435341852389
H           -5.20999633896360       -1.58456060205380        0.04538902705304
H           -2.87005639681599       -2.02019419354693        0.16017783032619
H           -3.31440623857451       -1.16915483367983        1.67342085237008
H           -2.44160772349298        0.66990166751005       -1.48463269847329
H           -1.57117938245906       -0.89048129661853       -1.36593934314838
H           -0.21083177963632        1.34163671088290       -1.77884725239413
H           -0.45828188319788        1.57829893690284       -0.02298913183610
H            2.18879742279224        1.09881406304209       -1.20894832693654
H            1.80424615589379        1.21226337585909        0.52759882472614
H            3.00557675435854       -1.24305949068244       -0.87421109918131
H            2.58122750726660       -1.14962986777223        0.84440248026398
H            8.55953441826676       -0.22693531683869        0.97528038863535
H            7.53349095312622       -1.52814945936381        1.61401776623650
H            7.82112844574282       -1.42401848934201       -0.11033797734567
H            5.57101783703393        1.93356778647568        0.62752543771362
H            7.37955040831559        1.89468374620304        0.94517462987113
 
 Bond Distances (Angstroems)
 ---------------------------
C1-C2=1.5286         C1-H18=1.0878        C1-H19=1.0867        C1-H20=1.0874        C2-C1=1.5286         C2-O3=1.4079         
C2-H21=1.1026        C2-H22=1.0933        O3-C2=1.4079         O3-C4=1.4069         C4-O3=1.4069         C4-C5=1.5341         
C4-H23=1.1009        C4-H24=1.1009        C5-C4=1.5341         C5-O6=1.4029         C5-H25=1.1013        C5-H26=1.0917        
O6-C5=1.4029         O6-C7=1.4075         C7-O6=1.4075         C7-C8=1.5248         C7-H27=1.0999        C7-H28=1.0991        
C8-C7=1.5248         C8-O9=1.4091         C8-H29=1.1014        C8-H30=1.0986        O9-C8=1.4091         O9-C10=1.4044        
C10-O9=1.4044        C10-C11=1.5232       C10-H31=1.1017       C10-H32=1.1007       C11-C10=1.5232       C11-O12=1.4219       
C11-H33=1.0949       C11-H34=1.0949       O12-C11=1.4219       O12-C13=1.3432       C13-O12=1.3432       C13-O14=1.2063       
C13-C15=1.4885       O14-C13=1.2063       C15-C13=1.4885       C15-C16=1.4952       C15-C17=1.3287       C16-C15=1.4952       
C16-H35=1.0860       C16-H36=1.0887       C16-H37=1.0886       C17-C15=1.3287       C17-H38=1.0755       C17-H39=1.0774       
H18-C1=1.0878        H19-C1=1.0867        H20-C1=1.0874        H21-C2=1.1026        H22-C2=1.0933        H23-C4=1.1009        
H24-C4=1.1009        H25-C5=1.1013        H26-C5=1.0917        H27-C7=1.0999        H28-C7=1.0991        H29-C8=1.1014        
[...]
H30-C8-O9=110.49               H30-C8-H29=108.81              C10-O9-C8=112.85               C11-C10-O9=108.39              
H31-C10-O9=110.68              H31-C10-C11=109.64             H32-C10-O9=110.69              H32-C10-C11=109.38             
H32-C10-H31=108.04             
 
 selected dihedral angles (degree)
 ---------------------------------
O3-C2-C1-H18=291.02           O3-C2-C1-H19=171.08           O3-C2-C1-H20= 51.45           H21-C2-C1-H18= 54.93          
H21-C2-C1-H19=294.99          H21-C2-C1-H20=175.36          H22-C2-C1-H18=174.10          H22-C2-C1-H19= 54.16          
H22-C2-C1-H20=294.53          C4-O3-C2-C1= 69.92            C4-O3-C2-H21=306.24           C4-O3-C2-H22=189.83           
C5-C4-O3-C2=164.38            H23-C4-O3-C2= 43.23           H24-C4-O3-C2=283.38           O6-C5-C4-O3=292.38            
O6-C5-C4-H23= 53.49           O6-C5-C4-H24=171.63           H25-C5-C4-O3=168.28           H25-C5-C4-H23=289.39          
H25-C5-C4-H24= 47.53          H26-C5-C4-O3= 49.32           H26-C5-C4-H23=170.42          H26-C5-C4-H24=288.56          
C7-O6-C5-C4=289.67            C7-O6-C5-H25= 52.78           C7-O6-C5-H26=170.82           C8-C7-O6-C5=197.38            
H27-C7-O6-C5= 77.77           H28-C7-O6-C5=316.60           O9-C8-C7-O6= 82.93            O9-C8-C7-H27=203.80           
O9-C8-C7-H28=322.62           H29-C8-C7-O6=203.61           H29-C8-C7-H27=324.49          H29-C8-C7-H28= 83.31          
H30-C8-C7-O6=322.58           H30-C8-C7-H27= 83.46          H30-C8-C7-H28=202.28          C10-O9-C8-C7=187.28           
C10-O9-C8-H29= 66.49          C10-O9-C8-H30=306.36          C11-C10-O9-C8=178.71          H31-C10-O9-C8=298.99          
H32-C10-O9-C8= 58.75          
           -------------------------------------------------
          |                Final Singlepoint                |
           -------------------------------------------------

          ...................................................
          :                      SETUP                      :
          :.................................................:
          :  # basis functions                  90          :
          :  # atomic orbitals                  90          :
          :  # shells                           56          :
          :  # electrons                       100          :
          :  max. iterations                   250          :
          :  Hamiltonian                  GFN2-xTB          :
          :  restarted?                      false          :
          :  GBSA solvation                  false          :
          :  PC potential                    false          :
          :  electronic temp.          300.0000000     K    :
          :  accuracy                    1.0000000          :
          :  -> integral cutoff          0.2500000E+02      :
          :  -> integral neglect         0.1000000E-07      :
          :  -> SCF convergence          0.1000000E-05 Eh   :
          :  -> wf. convergence          0.1000000E-03 e    :
          :  Broyden damping             0.4000000          :
          :  net charge                          0          :
          :  unpaired electrons                  0          :
          ...................................................

 iter      E             dE          RMSdq      gap      omega  full diag
   1    -57.8068982 -0.578069E+02  0.147E-04    3.44       0.0  T
   2    -57.8068982 -0.573479E-10  0.121E-04    3.44     132.7  T
   3    -57.8068982 -0.342069E-09  0.537E-05    3.44     298.0  T

   *** convergence criteria satisfied after 3 iterations ***

         #    Occupation            Energy/Eh            Energy/eV
      -------------------------------------------------------------
         1        2.0000           -0.7420722             -20.1928
       ...           ...                  ...                  ...
        44        2.0000           -0.4413338             -12.0093
        45        2.0000           -0.4372901             -11.8993
        46        2.0000           -0.4176181             -11.3640
        47        2.0000           -0.4115728             -11.1995
        48        2.0000           -0.4067795             -11.0690
        49        2.0000           -0.4023963             -10.9498
        50        2.0000           -0.3961443             -10.7796 (HOMO)
        51                         -0.2696874              -7.3386 (LUMO)
        52                         -0.1617285              -4.4009
        53                         -0.0249538              -0.6790
        54                          0.0177390               0.4827
        55                          0.0308584               0.8397
       ...                                ...                  ...
        90                          0.7012623              19.0823
      -------------------------------------------------------------
                  HL-Gap            0.1264569 Eh            3.4411 eV
             Fermi-level           -0.3329159 Eh           -9.0591 eV

 SCC (total)                   0 d,  0 h,  0 min,  0.009 sec
 SCC setup                      ...        0 min,  0.000 sec (  0.975%)
 Dispersion                     ...        0 min,  0.000 sec (  1.914%)
 classical contributions        ...        0 min,  0.000 sec (  0.532%)
 integral evaluation            ...        0 min,  0.001 sec (  8.324%)
 iterations                     ...        0 min,  0.004 sec ( 50.805%)
 molecular gradient             ...        0 min,  0.003 sec ( 35.719%)
 printout                       ...        0 min,  0.000 sec (  1.485%)

         :::::::::::::::::::::::::::::::::::::::::::::::::::::
         ::                     SUMMARY                     ::
         :::::::::::::::::::::::::::::::::::::::::::::::::::::
         :: total energy             -57.205953349213 Eh    ::
         :: gradient norm              0.000783272833 Eh/a0 ::
         :: HOMO-LUMO gap              3.441066850284 eV    ::
         ::.................................................::
         :: SCC energy               -57.807101738857 Eh    ::
         :: -> isotropic ES            0.097303819922 Eh    ::
         :: -> anisotropic ES          0.008312661710 Eh    ::
         :: -> anisotropic XC          0.007777309637 Eh    ::
         :: -> dispersion             -0.026412566193 Eh    ::
         :: repulsion energy           0.601148389645 Eh    ::
         :: add. restraining           0.000000000000 Eh    ::
         :: total charge              -0.000000000000 e     ::
         :::::::::::::::::::::::::::::::::::::::::::::::::::::

           -------------------------------------------------
          |                Property Printout                |
           -------------------------------------------------

    * Orbital Energies and Occupations

         #    Occupation            Energy/Eh            Energy/eV
      -------------------------------------------------------------
         1        2.0000           -0.7420722             -20.1928
       ...           ...                  ...                  ...
        38        2.0000           -0.4677954             -12.7294
        39        2.0000           -0.4655460             -12.6682
        40        2.0000           -0.4631159             -12.6020
        41        2.0000           -0.4565473             -12.4233
        42        2.0000           -0.4551403             -12.3850
        43        2.0000           -0.4489967             -12.2178
        44        2.0000           -0.4413338             -12.0093
        45        2.0000           -0.4372901             -11.8993
        46        2.0000           -0.4176181             -11.3640
        47        2.0000           -0.4115728             -11.1995
        48        2.0000           -0.4067795             -11.0690
        49        2.0000           -0.4023963             -10.9498
        50        2.0000           -0.3961443             -10.7796 (HOMO)
        51                         -0.2696874              -7.3386 (LUMO)
        52                         -0.1617285              -4.4009
        53                         -0.0249538              -0.6790
        54                          0.0177390               0.4827
        55                          0.0308584               0.8397
        56                          0.0574405               1.5630
        57                          0.0774471               2.1074
        58                          0.0870994               2.3701
        59                          0.0929541               2.5294
        60                          0.0990613               2.6956
        61                          0.1092671               2.9733
       ...                                ...                  ...
        90                          0.7012623              19.0823
      -------------------------------------------------------------
                  HL-Gap            0.1264569 Eh            3.4411 eV
             Fermi-level           -0.3329159 Eh           -9.0591 eV

     #   Z          covCN         q      C6AA      α(0)
     1   6 C        3.749    -0.117    22.806     6.811
     2   6 C        3.695     0.083    19.362     6.295
     3   8 O        1.701    -0.311    19.188     5.914
     4   6 C        3.693     0.077    19.460     6.312
     5   6 C        3.695     0.072    19.543     6.324
     6   8 O        1.702    -0.295    18.913     5.872
     7   6 C        3.695     0.080    19.415     6.303
     8   6 C        3.706     0.080    19.394     6.295
     9   8 O        1.702    -0.308    19.130     5.905
    10   6 C        3.706     0.080    19.382     6.293
    11   6 C        3.704     0.078    19.419     6.300
    12   8 O        1.705    -0.270    18.480     5.804
    13   6 C        2.729     0.351    21.047     7.511
    14   8 O        0.856    -0.408    21.838     6.265
    15   6 C        2.937    -0.007    28.183     8.707
    16   6 C        3.759    -0.111    22.680     6.789
    17   6 C        2.844    -0.082    30.049     8.984
    18   1 H        0.925     0.039     2.458     2.452
    19   1 H        0.925     0.042     2.421     2.433
    20   1 H        0.925     0.051     2.302     2.373
    21   1 H        0.923     0.017     2.786     2.610
    22   1 H        0.924     0.052     2.292     2.368
    23   1 H        0.923     0.021     2.720     2.579
    24   1 H        0.923     0.024     2.675     2.558
    25   1 H        0.923     0.027     2.635     2.539
    26   1 H        0.924     0.075     2.035     2.231
    27   1 H        0.923     0.028     2.608     2.526
    28   1 H        0.923     0.043     2.408     2.427
    29   1 H        0.923     0.026     2.645     2.544
    30   1 H        0.923     0.049     2.334     2.389
    31   1 H        0.923     0.034     2.534     2.489
    32   1 H        0.923     0.040     2.450     2.448
    33   1 H        0.924     0.069     2.102     2.267
    34   1 H        0.924     0.068     2.111     2.272
    35   1 H        0.925     0.052     2.297     2.370
    36   1 H        0.925     0.067     2.124     2.279
    37   1 H        0.925     0.067     2.120     2.277
    38   1 H        0.926     0.062     2.176     2.307
    39   1 H        0.926     0.057     2.229     2.335

 Mol. C6AA /au·bohr⁶  :      12427.190972
 Mol. C8AA /au·bohr⁸  :     266035.239110
 Mol. α(0) /au        :        165.756126


Wiberg/Mayer (AO) data.
largest (>0.10) Wiberg bond orders for each atom

 ---------------------------------------------------------------------------
     #   Z sym  total        # sym  WBO       # sym  WBO       # sym  WBO
 ---------------------------------------------------------------------------
     1   6 C    3.996 --     2 C    1.008    18 H    0.987    20 H    0.987
                            19 H    0.986
     2   6 C    3.953 --     1 C    1.008     3 O    0.985    22 H    0.970
                            21 H    0.967
     3   8 O    2.082 --     4 C    0.991     2 C    0.985
     4   6 C    3.962 --     3 O    0.991     5 C    0.987    24 H    0.966
                            23 H    0.964
     5   6 C    3.956 --     6 O    0.995     4 C    0.987    26 H    0.966
                            25 H    0.964
     6   8 O    2.094 --     5 C    0.995     7 C    0.990
     7   6 C    3.961 --     8 C    0.997     6 O    0.990    27 H    0.965
                            28 H    0.964
     8   6 C    3.954 --     7 C    0.997     9 O    0.983    29 H    0.967
                            30 H    0.964
     9   8 O    2.073 --    10 C    0.990     8 C    0.983
    10   6 C    3.956 --    11 C    0.997     9 O    0.990    31 H    0.966
                            32 H    0.965
    11   6 C    3.929 --    10 C    0.997    33 H    0.965    34 H    0.965
                            12 O    0.950
    12   8 O    2.295 --    13 C    1.110    11 C    0.950    14 O    0.169
    13   6 C    3.914 --    14 O    1.735    12 O    1.110    15 C    0.993
    14   8 O    2.037 --    13 C    1.735    12 O    0.169
    15   6 C    3.986 --    17 C    1.877    16 C    1.030    13 C    0.993
    16   6 C    3.993 --    15 C    1.030    35 H    0.985    37 H    0.967
                            36 H    0.966
    17   6 C    3.988 --    15 C    1.877    39 H    0.974    38 H    0.973
    18   1 H    0.998 --     1 C    0.987
    19   1 H    0.998 --     1 C    0.986
    20   1 H    0.997 --     1 C    0.987
    21   1 H    1.000 --     2 C    0.967
    22   1 H    0.997 --     2 C    0.970
    23   1 H    1.000 --     4 C    0.964
    24   1 H    0.999 --     4 C    0.966
    25   1 H    0.999 --     5 C    0.964
    26   1 H    0.994 --     5 C    0.966
    27   1 H    0.999 --     7 C    0.965
    28   1 H    0.998 --     7 C    0.964
    29   1 H    0.999 --     8 C    0.967
    30   1 H    0.998 --     8 C    0.964
    31   1 H    0.999 --    10 C    0.966
    32   1 H    0.998 --    10 C    0.965
    33   1 H    0.995 --    11 C    0.965
    34   1 H    0.995 --    11 C    0.965
    35   1 H    0.997 --    16 C    0.985
    36   1 H    0.996 --    16 C    0.966
    37   1 H    0.996 --    16 C    0.967
    38   1 H    0.996 --    17 C    0.973
    39   1 H    0.997 --    17 C    0.974
 ---------------------------------------------------------------------------

Topologies differ in total number of bonds
Writing topology from bond orders to xtbtopo.mol

molecular dipole:
                 x           y           z       tot (Debye)
 q only:       -0.374       0.764      -0.518
   full:       -0.522       0.869      -0.855       3.371
molecular quadrupole (traceless):
                xx          xy          yy          xz          yz          zz
 q only:       17.482      14.066      -9.442       8.547      -1.355      -8.040
  q+dip:       14.141      17.378      -8.889      10.930      -1.413      -5.252
   full:       15.576      17.301     -10.160      11.076      -1.797      -5.415

           -------------------------------------------------
          |                Geometry Summary                 |
           -------------------------------------------------

      molecular mass/u    :      246.3005519
   center of mass at/Å    :        0.4734258      -0.0913594       0.1261251
  moments of inertia/u·Å² :        0.2492257E+03   0.5587905E+04   0.5688548E+04
rotational constants/cm⁻¹ :        0.6764003E-01   0.3016807E-02   0.2963433E-02

 * 36 selected distances

     #   Z          #   Z                                           value/Å
     1   6 C        2   6 C                                       1.5285576
     2   6 C        3   8 O                                       1.4078712
     3   8 O        4   6 C                                       1.4069341
     4   6 C        5   6 C                                       1.5340865 (max)
     5   6 C        6   8 O                                       1.4028634
     6   8 O        7   6 C                                       1.4074577
     7   6 C        8   6 C                                       1.5248473
     8   6 C        9   8 O                                       1.4090585
     9   8 O       10   6 C                                       1.4043931
    10   6 C       11   6 C                                       1.5231839
    11   6 C       12   8 O                                       1.4218713
    12   8 O       13   6 C                                       1.3431930
    13   6 C       14   8 O                                       1.2062523
    15   6 C       17   6 C                                       1.3287490
     1   6 C       18   1 H                                       1.0878115
     1   6 C       19   1 H                                       1.0866796
     1   6 C       20   1 H                                       1.0873735
     2   6 C       21   1 H                                       1.1025750
     2   6 C       22   1 H                                       1.0933183
     4   6 C       23   1 H                                       1.1008589
     4   6 C       24   1 H                                       1.1008914
     5   6 C       25   1 H                                       1.1013116
     5   6 C       26   1 H                                       1.0917393
     7   6 C       27   1 H                                       1.0998905
     7   6 C       28   1 H                                       1.0990609
     8   6 C       29   1 H                                       1.1013747
     8   6 C       30   1 H                                       1.0985955
    10   6 C       31   1 H                                       1.1017457
    10   6 C       32   1 H                                       1.1006537
    11   6 C       33   1 H                                       1.0948725
    11   6 C       34   1 H                                       1.0949360
    16   6 C       35   1 H                                       1.0859856
    16   6 C       36   1 H                                       1.0886722
    16   6 C       37   1 H                                       1.0885536
    17   6 C       38   1 H                                       1.0755183 (min)
    17   6 C       39   1 H                                       1.0773599

 * 3 distinct bonds (by element types)

   Z      Z             #   av. dist./Å        max./Å        min./Å
   1 H    6 C          22     1.0936263     1.1025750     1.0755183
   6 C    6 C           5     1.4878848     1.5340865     1.3287490
   6 C    8 O           9     1.3788772     1.4218713     1.2062523


optimized geometry written to: xtbopt.xyz


           -------------------------------------------------
          | TOTAL ENERGY              -57.205953349213 Eh   |
          | GRADIENT NORM               0.000783272833 Eh/α |
          | HOMO-LUMO GAP               3.441066850284 eV   |
           -------------------------------------------------
########################################################################
[WARNING] Runtime exception occurred
-2- restart_readRestart: Dimension missmatch in restart file.
-1- restart_readRestart: Number of electron missmatch in restart file.
########################################################################

------------------------------------------------------------------------
 * finished run on 2025/12/01 at 14:23:02.527     
------------------------------------------------------------------------
 total:
 * wall-time:     0 d,  0 h,  0 min,  1.012 sec
 *  cpu-time:     0 d,  0 h,  0 min, 23.056 sec
 * ratio c/w:    22.786 speedup
 SCF:
 * wall-time:     0 d,  0 h,  0 min,  0.048 sec
 *  cpu-time:     0 d,  0 h,  0 min,  1.085 sec
 * ratio c/w:    22.821 speedup
 ANC optimizer:
 * wall-time:     0 d,  0 h,  0 min,  0.954 sec
 *  cpu-time:     0 d,  0 h,  0 min, 21.795 sec
 * ratio c/w:    22.854 speedup

normal termination of xtb
