      -----------------------------------------------------------      
     |                   =====================                   |     
     |                           x T B                           |     
     |                   =====================                   |     
     |                         S. Grimme                         |     
     |          Mulliken Center for Theoretical Chemistry        |     
     |                    University of Bonn                     |     
      -----------------------------------------------------------      

   * xtb version 6.7.1 (edcfbbe) compiled by 'albert@albert-system' on 2024-07-22

   xtb is free software: you can redistribute it and/or modify it under
   the terms of the GNU Lesser General Public License as published by
   the Free Software Foundation, either version 3 of the License, or
   (at your option) any later version.
   
   xtb is distributed in the hope that it will be useful,
   but WITHOUT ANY WARRANTY; without even the implied warranty of
   MERCHANTABILITY or FITNESS FOR A PARTICULAR PURPOSE.  See the
   GNU Lesser General Public License for more details.
   
   Cite this work as:
   * C. Bannwarth, E. Caldeweyher, S. Ehlert, A. Hansen, P. Pracht,
     J. Seibert, S. Spicher, S. Grimme, WIREs Comput. Mol. Sci., 2020, 11,
     e01493. DOI: 10.1002/wcms.1493
   
   for GFN2-xTB:
   * C. Bannwarth, S. Ehlert and S. Grimme., J. Chem. Theory Comput., 2019,
     15, 1652-1671. DOI: 10.1021/acs.jctc.8b01176
   for GFN1-xTB:
   * S. Grimme, C. Bannwarth, P. Shushkov, J. Chem. Theory Comput., 2017,
     13, 1989-2009. DOI: 10.1021/acs.jctc.7b00118
   for GFN0-xTB:
   * P. Pracht, E. Caldeweyher, S. Ehlert, S. Grimme, ChemRxiv, 2019, preprint.
     DOI: 10.26434/chemrxiv.8326202.v1
   for GFN-FF:
   * S. Spicher and S. Grimme, Angew. Chem. Int. Ed., 2020, 59, 15665-15673.
     DOI: 10.1002/anie.202004239
   
   for ALPB and GBSA implicit solvation:
   * S. Ehlert, M. Stahn, S. Spicher, S. Grimme, J. Chem. Theory Comput.,
     2021, 17, 4250-4261. DOI: 10.1021/acs.jctc.1c00471
   
   for ddCOSMO and CPCM-X implicit solvation:
   * M. Stahn, S. Ehlert, S. Grimme, J. Phys. Chem. A,
     2023, XX, XXXX-XXXX. DOI: 10.1021/acs.jpca.3c04382
   
   for DFT-D4:
   * E. Caldeweyher, C. Bannwarth and S. Grimme, J. Chem. Phys., 2017,
     147, 034112. DOI: 10.1063/1.4993215
   * E. Caldeweyher, S. Ehlert, A. Hansen, H. Neugebauer, S. Spicher,
     C. Bannwarth and S. Grimme, J. Chem. Phys., 2019, 150, 154122.
     DOI: 10.1063/1.5090222
   * E. Caldeweyher, J.-M. Mewes, S. Ehlert and S. Grimme, Phys. Chem. Chem. Phys.
     2020, 22, 8499-8512. DOI: 10.1039/D0CP00502A
   
   for sTDA-xTB:
   * S. Grimme and C. Bannwarth, J. Chem. Phys., 2016, 145, 054103.
     DOI: 10.1063/1.4959605
   
   in the mass-spec context:
   * V. Asgeirsson, C. Bauer and S. Grimme, Chem. Sci., 2017, 8, 4879.
     DOI: 10.1039/c7sc00601b
   * J. Koopman and S. Grimme, ACS Omega 2019, 4, 12, 15120-15133.
     DOI: 10.1021/acsomega.9b02011
   
   for metadynamics refer to:
   * S. Grimme, J. Chem. Theory Comput., 2019, 155, 2847-2862
     DOI: 10.1021/acs.jctc.9b00143
   
   for SPH calculations refer to:
   * S. Spicher and S. Grimme, J. Chem. Theory Comput., 2021, 17, 1701-1714
     DOI: 10.1021/acs.jctc.0c01306
   
   for ONIOM refer to:
   * C. Plett, A. Katbashev, S. Ehlert, S. Grimme, M. Bursch,
     Phys. Chem. Chem. Phys., 2023, 25, 17860-17868. DOI: 10.1039/D3CP02178E
   
   for DIPRO refer to:
   * J. Kohn, N. Gildemeister, S. Grimme, D. Fazzi, A. Hansen,
     J. Chem. Phys., 2023, just accepted.
   
   for PTB refer to:
   * S. Grimme, M. Mueller, A. Hansen, J. Chem. Phys., 2023, 158, 124111.
     DOI: 10.1063/5.0137838
   
   with help from (in alphabetical order)
   P. Atkinson, C. Bannwarth, F. Bohle, G. Brandenburg, E. Caldeweyher
   M. Checinski, S. Dohm, S. Ehlert, S. Ehrlich, I. Gerasimov, C. Hölzer
   A. Katbashev, J. Kohn, J. Koopman, C. Lavigne, S. Lehtola, F. März, M. Müller,
   F. Musil, H. Neugebauer, J. Pisarek, C. Plett, P. Pracht, F. Pultar,
   J. Seibert, P. Shushkov, S. Spicher, M. Stahn, M. Steiner, T. Strunk,
   J. Stückrath, T. Rose, and J. Unsleber
   
 * started run on 2025/12/01 at 14:23:06.050     
   ID    Z sym.   atoms
    1    6 C      1-4, 7-10
    2    8 O      5, 6
    3    1 H      11-24

           -------------------------------------------------
          |                Calculation Setup                |
           -------------------------------------------------

          program call               : xtb pipeline_data/3_conformer_xyz/acrylates/rdkit/SJMYWORNLPSJQO-UHFFFAOYSA-N_conf83.xyz --opt --gfn 2-xTB --iterations 250
          coordinate file            : pipeline_data/3_conformer_xyz/acrylates/rdkit/SJMYWORNLPSJQO-UHFFFAOYSA-N_conf83.xyz
          omp threads                :                    24

########################################################################
[WARNING] Please study the warnings concerning your input carefully
-1- readin_getIntValue: could not parse '2-xTB'
########################################################################

           -------------------------------------------------
          |                 G F N 2 - x T B                 |
           -------------------------------------------------

        Reference                      10.1021/acs.jctc.8b01176
      * Hamiltonian:
        H0-scaling (s, p, d)           1.850000    2.230000    2.230000
        zeta-weighting                 0.500000
      * Dispersion:
        s8                             2.700000
        a1                             0.520000
        a2                             5.000000
        s9                             5.000000
      * Repulsion:
        kExp                           1.500000    1.000000
        rExp                           1.000000
      * Coulomb:
        alpha                          2.000000
        third order                    shell-resolved
        anisotropic                    true
        a3                             3.000000
        a5                             4.000000
        cn-shift                       1.200000
        cn-exp                         4.000000
        max-rad                        5.000000

q/qsh data taken from xtbrestart
CAMM data taken from xtbrestart

          ...................................................
          :                      SETUP                      :
          :.................................................:
          :  # basis functions                  54          :
          :  # atomic orbitals                  54          :
          :  # shells                           34          :
          :  # electrons                        58          :
          :  max. iterations                   250          :
          :  Hamiltonian                  GFN2-xTB          :
          :  restarted?                       true          :
          :  GBSA solvation                  false          :
          :  PC potential                    false          :
          :  electronic temp.          300.0000000     K    :
          :  accuracy                    1.0000000          :
          :  -> integral cutoff          0.2500000E+02      :
          :  -> integral neglect         0.1000000E-07      :
          :  -> SCF convergence          0.1000000E-05 Eh   :
          :  -> wf. convergence          0.1000000E-03 e    :
          :  Broyden damping             0.4000000          :
          :  net charge                          0          :
          :  unpaired electrons                  0          :
          ...................................................

 iter      E             dE          RMSdq      gap      omega  full diag
   1    -32.7548424 -0.327548E+02  0.285E+00    3.16       0.0  T
   2    -32.7583881 -0.354573E-02  0.171E+00    3.37       1.0  T
   3    -32.7524877  0.590039E-02  0.620E-01    3.08       1.0  T
   4    -32.7596531 -0.716545E-02  0.171E-01    3.30       1.0  T
   5    -32.7599309 -0.277761E-03  0.768E-02    3.30       1.0  T
   6    -32.7599349 -0.394845E-05  0.371E-02    3.29       1.0  T
   7    -32.7599455 -0.106409E-04  0.458E-03    3.29       4.5  T
   8    -32.7599456 -0.535243E-07  0.182E-03    3.29      11.2  T
   9    -32.7599456 -0.104198E-07  0.531E-04    3.29      38.4  T
  10    -32.7599456 -0.824315E-09  0.242E-04    3.29      84.4  T

   *** convergence criteria satisfied after 10 iterations ***

         #    Occupation            Energy/Eh            Energy/eV
      -------------------------------------------------------------
         1        2.0000           -0.7251961             -19.7336
       ...           ...                  ...                  ...
        23        2.0000           -0.4533524             -12.3363
        24        2.0000           -0.4492582             -12.2249
        25        2.0000           -0.4476101             -12.1801
        26        2.0000           -0.4338804             -11.8065
        27        2.0000           -0.4241418             -11.5415
        28        2.0000           -0.4167371             -11.3400
        29        2.0000           -0.3981058             -10.8330 (HOMO)
        30                         -0.2770834              -7.5398 (LUMO)
        31                         -0.1650870              -4.4922
        32                         -0.0304606              -0.8289
        33                          0.0747010               2.0327
        34                          0.0923555               2.5131
       ...                                ...                  ...
        54                          0.6247002              16.9990
      -------------------------------------------------------------
                  HL-Gap            0.1210224 Eh            3.2932 eV
             Fermi-level           -0.3375946 Eh           -9.1864 eV

 SCC (total)                   0 d,  0 h,  0 min,  0.018 sec
 SCC setup                      ...        0 min,  0.000 sec (  1.086%)
 Dispersion                     ...        0 min,  0.000 sec (  1.189%)
 classical contributions        ...        0 min,  0.000 sec (  0.294%)
 integral evaluation            ...        0 min,  0.001 sec (  3.991%)
 iterations                     ...        0 min,  0.014 sec ( 77.391%)
 molecular gradient             ...        0 min,  0.003 sec ( 15.139%)
 printout                       ...        0 min,  0.000 sec (  0.765%)

         :::::::::::::::::::::::::::::::::::::::::::::::::::::
         ::                     SUMMARY                     ::
         :::::::::::::::::::::::::::::::::::::::::::::::::::::
         :: total energy             -32.374789381541 Eh    ::
         :: gradient norm              0.141603906071 Eh/a0 ::
         :: HOMO-LUMO gap              3.293186233388 eV    ::
         ::.................................................::
         :: SCC energy               -32.759843595776 Eh    ::
         :: -> isotropic ES            0.052838679637 Eh    ::
         :: -> anisotropic ES          0.003149108414 Eh    ::
         :: -> anisotropic XC          0.013120499329 Eh    ::
         :: -> dispersion             -0.017181962059 Eh    ::
         :: repulsion energy           0.385054214234 Eh    ::
         :: add. restraining           0.000000000000 Eh    ::
         :: total charge              -0.000000000000 e     ::
         :::::::::::::::::::::::::::::::::::::::::::::::::::::

      ----------------------------------------------------------- 
     |                   =====================                   |
     |                        A N C O P T                        |
     |                   =====================                   |
     |               Approximate Normal Coordinate               |
     |                Rational Function Optimizer                |
      ----------------------------------------------------------- 
      ----------------------------------------------------------- 
     |                   =====================                   |
     |                        A N C O P T                        |
     |                   =====================                   |
     |               Approximate Normal Coordinate               |
     |                Rational Function Optimizer                |
      ----------------------------------------------------------- 

          ...................................................
          :                      SETUP                      :
          :.................................................:
          :   optimization level            normal          :
          :   max. optcycles                   200          :
          :   ANC micro-cycles                  20          :
          :   degrees of freedom                66          :
          :.................................................:
          :   RF solver                   davidson          :
          :   write xtbopt.log                true          :
          :   linear?                        false          :
          :   energy convergence         0.5000000E-05 Eh   :
          :   grad. convergence          0.1000000E-02 Eh/α :
          :   maxmium RF displ.          1.0000000          :
          :   Hlow (freq-cutoff)         0.1000000E-01      :
          :   Hmax (freq-cutoff)         5.0000000          :
          :   S6 in model hess.         20.0000000          :
          ...................................................

generating ANC from exact Hessian ...
Using Lindh-Hessian (1995)
 Shifting diagonal of input Hessian by   9.164118059796427E-003
 Lowest  eigenvalues of input Hessian
    0.000000    0.000000    0.000000    0.000000    0.000000    0.000000
    0.010000    0.010566    0.012027    0.016092    0.018258    0.018382
    0.018904    0.019167    0.019484    0.019708    0.021266    0.022106
 Highest eigenvalues
    1.300068    1.326625    1.493136    1.795539    1.912766    2.138404
 

........................................................................
.............................. CYCLE    1 ..............................
........................................................................

 iter      E             dE          RMSdq      gap      omega  full diag
   1    -32.7599456 -0.327599E+02  0.661E-05    3.29       0.0  T
   2    -32.7599456 -0.134150E-10  0.389E-05    3.29     524.9  T
   3    -32.7599456 -0.147082E-11  0.191E-05    3.29    1069.5  T
     SCC iter.                  ...        0 min,  0.005 sec
     gradient                   ...        0 min,  0.002 sec
 * total energy  :   -32.3747894 Eh     change       -0.1087344E-09 Eh
   gradient norm :     0.1416067 Eh/α   predicted     0.0000000E+00 (-100.00%)
   displ. norm   :     0.3560650 α      lambda       -0.2474694E-01
   maximum displ.:     0.1525903 α      in ANC's #9, #17, #13, ...

........................................................................
.............................. CYCLE    2 ..............................
........................................................................

 iter      E             dE          RMSdq      gap      omega  full diag
   1    -32.8024009 -0.328024E+02  0.355E-01    3.47       0.0  T
   2    -32.8027664 -0.365584E-03  0.216E-01    3.52       1.0  T
   3    -32.8027591  0.732953E-05  0.693E-02    3.52       1.0  T
   4    -32.8027768 -0.176470E-04  0.214E-02    3.52       1.0  T
   5    -32.8027841 -0.737970E-05  0.896E-03    3.52       2.3  T
   6    -32.8027851 -0.971409E-06  0.411E-03    3.52       5.0  T
   7    -32.8027852 -0.519466E-07  0.124E-03    3.52      16.4  T
   8    -32.8027852 -0.914387E-08  0.545E-04    3.52      37.5  T
   9    -32.8027852 -0.844516E-09  0.192E-04    3.52     106.3  T
     SCC iter.                  ...        0 min,  0.015 sec
     gradient                   ...        0 min,  0.003 sec
 * total energy  :   -32.3917982 Eh     change       -0.1700885E-01 Eh
   gradient norm :     0.0594644 Eh/α   predicted    -0.1395945E-01 ( -17.93%)
   displ. norm   :     0.3474182 α      lambda       -0.7338819E-02
   maximum displ.:     0.2181039 α      in ANC's #9, #13, #7, ...

........................................................................
.............................. CYCLE    3 ..............................
........................................................................

 iter      E             dE          RMSdq      gap      omega  full diag
   1    -32.8215136 -0.328215E+02  0.206E-01    3.64       0.0  T
   2    -32.8216859 -0.172286E-03  0.125E-01    3.68       1.0  T
   3    -32.8216856  0.294834E-06  0.493E-02    3.68       1.0  T
   4    -32.8216904 -0.475610E-05  0.177E-02    3.68       1.2  T
   5    -32.8216953 -0.490952E-05  0.685E-03    3.68       3.0  T
   6    -32.8216959 -0.619501E-06  0.260E-03    3.68       7.8  T
   7    -32.8216959 -0.230655E-07  0.879E-04    3.68      23.2  T
   8    -32.8216959 -0.273919E-08  0.402E-04    3.68      50.8  T
     SCC iter.                  ...        0 min,  0.013 sec
     gradient                   ...        0 min,  0.003 sec
 * total energy  :   -32.3962066 Eh     change       -0.4408384E-02 Eh
   gradient norm :     0.0133596 Eh/α   predicted    -0.4116068E-02 (  -6.63%)
   displ. norm   :     0.2910082 α      lambda       -0.1555898E-02
   maximum displ.:     0.1946147 α      in ANC's #9, #7, #13, ...

........................................................................
.............................. CYCLE    4 ..............................
........................................................................

 iter      E             dE          RMSdq      gap      omega  full diag
   1    -32.8204487 -0.328204E+02  0.897E-02    3.70       0.0  T
   2    -32.8204567 -0.796590E-05  0.540E-02    3.70       1.0  T
   3    -32.8204554  0.135051E-05  0.136E-02    3.71       1.5  T
   4    -32.8204568 -0.143899E-05  0.611E-03    3.70       3.3  T
   5    -32.8204574 -0.636475E-06  0.193E-03    3.70      10.6  T
   6    -32.8204575 -0.414906E-07  0.828E-04    3.70      24.7  T
   7    -32.8204575 -0.309909E-08  0.218E-04    3.70      93.6  T
     SCC iter.                  ...        0 min,  0.012 sec
     gradient                   ...        0 min,  0.003 sec
 * total energy  :   -32.3973407 Eh     change       -0.1134099E-02 Eh
   gradient norm :     0.0092748 Eh/α   predicted    -0.8438498E-03 ( -25.59%)
   displ. norm   :     0.3427269 α      lambda       -0.1056003E-02
   maximum displ.:     0.2072689 α      in ANC's #9, #7, #10, ...

........................................................................
.............................. CYCLE    5 ..............................
........................................................................

 iter      E             dE          RMSdq      gap      omega  full diag
   1    -32.8188330 -0.328188E+02  0.791E-02    3.71       0.0  T
   2    -32.8188446 -0.115860E-04  0.478E-02    3.71       1.0  T
   3    -32.8188441  0.461743E-06  0.143E-02    3.71       1.4  T
   4    -32.8188446 -0.444630E-06  0.545E-03    3.71       3.7  T
   5    -32.8188451 -0.560630E-06  0.166E-03    3.71      12.3  T
   6    -32.8188452 -0.327627E-07  0.684E-04    3.71      29.8  T
   7    -32.8188452 -0.115200E-08  0.174E-04    3.71     117.1  T
     SCC iter.                  ...        0 min,  0.012 sec
     gradient                   ...        0 min,  0.003 sec
 * total energy  :   -32.3980525 Eh     change       -0.7118157E-03 Eh
   gradient norm :     0.0090333 Eh/α   predicted    -0.5900234E-03 ( -17.11%)
   displ. norm   :     0.2601436 α      lambda       -0.5384047E-03
   maximum displ.:     0.1273654 α      in ANC's #10, #7, #9, ...

........................................................................
.............................. CYCLE    6 ..............................
........................................................................

 iter      E             dE          RMSdq      gap      omega  full diag
   1    -32.8194938 -0.328195E+02  0.587E-02    3.71       0.0  T
   2    -32.8194977 -0.391003E-05  0.354E-02    3.71       1.0  T
   3    -32.8194958  0.196590E-05  0.133E-02    3.71       1.5  T
   4    -32.8194977 -0.189805E-05  0.560E-03    3.71       3.6  T
   5    -32.8194983 -0.596103E-06  0.888E-04    3.71      23.0  T
   6    -32.8194983 -0.544269E-08  0.453E-04    3.71      45.1  T
     SCC iter.                  ...        0 min,  0.010 sec
     gradient                   ...        0 min,  0.003 sec
 * total energy  :   -32.3984447 Eh     change       -0.3921390E-03 Eh
   gradient norm :     0.0089711 Eh/α   predicted    -0.2874210E-03 ( -26.70%)
   displ. norm   :     0.2836189 α      lambda       -0.5285395E-03
   maximum displ.:     0.1752672 α      in ANC's #10, #7, #3, ...

........................................................................
.............................. CYCLE    7 ..............................
........................................................................

 iter      E             dE          RMSdq      gap      omega  full diag
   1    -32.8214870 -0.328215E+02  0.725E-02    3.71       0.0  T
   2    -32.8214886 -0.169127E-05  0.430E-02    3.71       1.0  T
   3    -32.8214842  0.442267E-05  0.167E-02    3.71       1.2  T
   4    -32.8214891 -0.491923E-05  0.343E-03    3.71       6.0  T
   5    -32.8214893 -0.196808E-06  0.102E-03    3.71      20.0  T
   6    -32.8214893 -0.275488E-08  0.422E-04    3.71      48.4  T
   7    -32.8214893 -0.435321E-09  0.100E-04    3.71     203.4  T
     SCC iter.                  ...        0 min,  0.012 sec
     gradient                   ...        0 min,  0.003 sec
 * total energy  :   -32.3988170 Eh     change       -0.3723727E-03 Eh
   gradient norm :     0.0080252 Eh/α   predicted    -0.2855283E-03 ( -23.32%)
   displ. norm   :     0.2507173 α      lambda       -0.3908553E-03
   maximum displ.:     0.1797775 α      in ANC's #10, #7, #5, ...

........................................................................
.............................. CYCLE    8 ..............................
........................................................................

 iter      E             dE          RMSdq      gap      omega  full diag
   1    -32.8233476 -0.328233E+02  0.684E-02    3.71       0.0  T
   2    -32.8233493 -0.168893E-05  0.407E-02    3.71       1.0  T
   3    -32.8233477  0.164373E-05  0.105E-02    3.70       1.9  T
   4    -32.8233494 -0.169794E-05  0.354E-03    3.71       5.8  T
   5    -32.8233496 -0.236174E-06  0.838E-04    3.71      24.4  T
   6    -32.8233496 -0.303140E-08  0.389E-04    3.71      52.5  T
     SCC iter.                  ...        0 min,  0.010 sec
     gradient                   ...        0 min,  0.003 sec
 * total energy  :   -32.3990833 Eh     change       -0.2662137E-03 Eh
   gradient norm :     0.0059056 Eh/α   predicted    -0.2077128E-03 ( -21.98%)
   displ. norm   :     0.2179667 α      lambda       -0.2389335E-03
   maximum displ.:     0.1626974 α      in ANC's #10, #7, #5, ...

........................................................................
.............................. CYCLE    9 ..............................
........................................................................

 iter      E             dE          RMSdq      gap      omega  full diag
   1    -32.8233899 -0.328234E+02  0.602E-02    3.70       0.0  T
   2    -32.8233917 -0.181080E-05  0.359E-02    3.70       1.0  T
   3    -32.8233915  0.281146E-06  0.550E-03    3.70       3.7  T
   4    -32.8233917 -0.251509E-06  0.296E-03    3.70       6.9  T
   5    -32.8233919 -0.159478E-06  0.678E-04    3.70      30.1  T
   6    -32.8233919 -0.238459E-08  0.375E-04    3.70      54.5  T
     SCC iter.                  ...        0 min,  0.010 sec
     gradient                   ...        0 min,  0.003 sec
 * total energy  :   -32.3992377 Eh     change       -0.1544710E-03 Eh
   gradient norm :     0.0041990 Eh/α   predicted    -0.1251441E-03 ( -18.99%)
   displ. norm   :     0.1200608 α      lambda       -0.1167227E-03
   maximum displ.:     0.0779552 α      in ANC's #10, #7, #5, ...

........................................................................
.............................. CYCLE   10 ..............................
........................................................................

 iter      E             dE          RMSdq      gap      omega  full diag
   1    -32.8247099 -0.328247E+02  0.366E-02    3.70       0.0  T
   2    -32.8247113 -0.135229E-05  0.216E-02    3.70       1.0  T
   3    -32.8247105  0.809816E-06  0.804E-03    3.70       2.5  T
   4    -32.8247113 -0.783342E-06  0.321E-03    3.70       6.4  T
   5    -32.8247115 -0.197144E-06  0.532E-04    3.70      38.3  T
   6    -32.8247115 -0.124064E-08  0.294E-04    3.70      69.5  T
     SCC iter.                  ...        0 min,  0.010 sec
     gradient                   ...        0 min,  0.003 sec
 * total energy  :   -32.3993078 Eh     change       -0.7010714E-04 Eh
   gradient norm :     0.0025530 Eh/α   predicted    -0.5920856E-04 ( -15.55%)
   displ. norm   :     0.1545126 α      lambda       -0.7997206E-04
   maximum displ.:     0.1003733 α      in ANC's #10, #7, #3, ...

........................................................................
.............................. CYCLE   11 ..............................
........................................................................

 iter      E             dE          RMSdq      gap      omega  full diag
   1    -32.8225300 -0.328225E+02  0.415E-02    3.70       0.0  T
   2    -32.8225305 -0.474259E-06  0.245E-02    3.70       1.0  T
   3    -32.8225295  0.104690E-05  0.811E-03    3.70       2.5  T
   4    -32.8225307 -0.118507E-05  0.183E-03    3.70      11.2  T
   5    -32.8225307 -0.432938E-07  0.673E-04    3.70      30.3  T
   6    -32.8225307 -0.843279E-09  0.244E-04    3.70      83.7  T
     SCC iter.                  ...        0 min,  0.010 sec
     gradient                   ...        0 min,  0.003 sec
 * total energy  :   -32.3993403 Eh     change       -0.3246774E-04 Eh
   gradient norm :     0.0039824 Eh/α   predicted    -0.4094111E-04 (  26.10%)
   displ. norm   :     0.0776008 α      lambda       -0.6685718E-04
   maximum displ.:     0.0537261 α      in ANC's #3, #2, #4, ...

........................................................................
.............................. CYCLE   12 ..............................
........................................................................

 iter      E             dE          RMSdq      gap      omega  full diag
   1    -32.8239713 -0.328240E+02  0.213E-02    3.70       0.0  T
   2    -32.8239717 -0.415123E-06  0.124E-02    3.69       1.6  T
   3    -32.8239715  0.251834E-06  0.474E-03    3.70       4.3  T
   4    -32.8239717 -0.263990E-06  0.162E-03    3.69      12.6  T
   5    -32.8239718 -0.505449E-07  0.424E-04    3.69      48.1  T
   6    -32.8239718 -0.516600E-09  0.178E-04    3.69     114.9  T
     SCC iter.                  ...        0 min,  0.009 sec
     gradient                   ...        0 min,  0.002 sec
 * total energy  :   -32.3993837 Eh     change       -0.4342838E-04 Eh
   gradient norm :     0.0025206 Eh/α   predicted    -0.3363431E-04 ( -22.55%)
   displ. norm   :     0.0989845 α      lambda       -0.5028178E-04
   maximum displ.:     0.0647707 α      in ANC's #3, #2, #4, ...

........................................................................
.............................. CYCLE   13 ..............................
........................................................................

 iter      E             dE          RMSdq      gap      omega  full diag
   1    -32.8244325 -0.328244E+02  0.254E-02    3.69       0.0  T
   2    -32.8244328 -0.265766E-06  0.149E-02    3.69       1.4  T
   3    -32.8244327  0.992864E-07  0.287E-03    3.69       7.1  T
   4    -32.8244328 -0.100745E-06  0.141E-03    3.69      14.4  T
   5    -32.8244328 -0.344785E-07  0.347E-04    3.69      58.8  T
   6    -32.8244328 -0.341402E-09  0.188E-04    3.69     108.4  T
     SCC iter.                  ...        0 min,  0.005 sec
     gradient                   ...        0 min,  0.002 sec
 * total energy  :   -32.3994193 Eh     change       -0.3561709E-04 Eh
   gradient norm :     0.0021530 Eh/α   predicted    -0.2539544E-04 ( -28.70%)
   displ. norm   :     0.1356147 α      lambda       -0.4381271E-04
   maximum displ.:     0.0746065 α      in ANC's #2, #3, #6, ...

........................................................................
.............................. CYCLE   14 ..............................
........................................................................

 iter      E             dE          RMSdq      gap      omega  full diag
   1    -32.8242350 -0.328242E+02  0.335E-02    3.69       0.0  T
   2    -32.8242354 -0.385592E-06  0.198E-02    3.69       1.0  T
   3    -32.8242350  0.361233E-06  0.483E-03    3.69       4.2  T
   4    -32.8242354 -0.368524E-06  0.183E-03    3.69      11.2  T
   5    -32.8242355 -0.602482E-07  0.414E-04    3.69      49.3  T
   6    -32.8242355 -0.187072E-09  0.187E-04    3.69     108.9  T
     SCC iter.                  ...        0 min,  0.005 sec
     gradient                   ...        0 min,  0.002 sec
 * total energy  :   -32.3994479 Eh     change       -0.2856291E-04 Eh
   gradient norm :     0.0020384 Eh/α   predicted    -0.2230974E-04 ( -21.89%)
   displ. norm   :     0.0930323 α      lambda       -0.2493409E-04
   maximum displ.:     0.0508293 α      in ANC's #2, #3, #6, ...

........................................................................
.............................. CYCLE   15 ..............................
........................................................................

 iter      E             dE          RMSdq      gap      omega  full diag
   1    -32.8243363 -0.328243E+02  0.263E-02    3.69       0.0  T
   2    -32.8243364 -0.783499E-07  0.155E-02    3.69       1.3  T
   3    -32.8243359  0.488555E-06  0.520E-03    3.69       3.9  T
   4    -32.8243364 -0.547163E-06  0.645E-04    3.69      31.7  T
   5    -32.8243364 -0.247424E-08  0.301E-04    3.69      67.7  T
     SCC iter.                  ...        0 min,  0.004 sec
     gradient                   ...        0 min,  0.002 sec
 * total energy  :   -32.3994638 Eh     change       -0.1588141E-04 Eh
   gradient norm :     0.0016358 Eh/α   predicted    -0.1257861E-04 ( -20.80%)
   displ. norm   :     0.1489886 α      lambda       -0.2288136E-04
   maximum displ.:     0.0940951 α      in ANC's #2, #5, #6, ...

........................................................................
.............................. CYCLE   16 ..............................
........................................................................

 iter      E             dE          RMSdq      gap      omega  full diag
   1    -32.8241686 -0.328242E+02  0.447E-02    3.69       0.0  T
   2    -32.8241689 -0.295340E-06  0.264E-02    3.69       1.0  T
   3    -32.8241674  0.148826E-05  0.915E-03    3.69       2.2  T
   4    -32.8241690 -0.164541E-05  0.109E-03    3.69      18.8  T
   5    -32.8241690 -0.151274E-07  0.432E-04    3.69      47.3  T
   6    -32.8241690 -0.141213E-09  0.142E-04    3.69     143.8  T
     SCC iter.                  ...        0 min,  0.005 sec
     gradient                   ...        0 min,  0.002 sec
 * total energy  :   -32.3994825 Eh     change       -0.1870991E-04 Eh
   gradient norm :     0.0019822 Eh/α   predicted    -0.1155440E-04 ( -38.24%)
   displ. norm   :     0.1060385 α      lambda       -0.2465148E-04
   maximum displ.:     0.0695208 α      in ANC's #2, #4, #5, ...

........................................................................
.............................. CYCLE   17 ..............................
........................................................................

 iter      E             dE          RMSdq      gap      omega  full diag
   1    -32.8250391 -0.328250E+02  0.343E-02    3.69       0.0  T
   2    -32.8250393 -0.179233E-06  0.203E-02    3.70       1.0  T
   3    -32.8250391  0.212176E-06  0.363E-03    3.69       5.6  T
   4    -32.8250393 -0.235693E-06  0.107E-03    3.70      19.0  T
   5    -32.8250394 -0.190798E-07  0.353E-04    3.70      57.9  T
   6    -32.8250394 -0.270362E-09  0.153E-04    3.70     133.7  T
     SCC iter.                  ...        0 min,  0.005 sec
     gradient                   ...        0 min,  0.002 sec
 * total energy  :   -32.3995079 Eh     change       -0.2541357E-04 Eh
   gradient norm :     0.0021762 Eh/α   predicted    -0.1238888E-04 ( -51.25%)
   displ. norm   :     0.1614727 α      lambda       -0.4176723E-04
   maximum displ.:     0.1006744 α      in ANC's #2, #4, #5, ...

........................................................................
.............................. CYCLE   18 ..............................
........................................................................

 iter      E             dE          RMSdq      gap      omega  full diag
   1    -32.8240957 -0.328241E+02  0.541E-02    3.70       0.0  T
   2    -32.8240960 -0.346472E-06  0.318E-02    3.70       1.0  T
   3    -32.8240960 -0.184995E-07  0.193E-03    3.70      10.6  T
   4    -32.8240961 -0.344180E-07  0.862E-04    3.70      23.7  T
   5    -32.8240961 -0.328523E-08  0.563E-04    3.70      36.3  T
     SCC iter.                  ...        0 min,  0.004 sec
     gradient                   ...        0 min,  0.002 sec
 * total energy  :   -32.3995335 Eh     change       -0.2563289E-04 Eh
   gradient norm :     0.0030222 Eh/α   predicted    -0.2142870E-04 ( -16.40%)
   displ. norm   :     0.1476233 α      lambda       -0.4857045E-04
   maximum displ.:     0.0864515 α      in ANC's #2, #4, #3, ...

........................................................................
.............................. CYCLE   19 ..............................
........................................................................

 iter      E             dE          RMSdq      gap      omega  full diag
   1    -32.8245130 -0.328245E+02  0.543E-02    3.70       0.0  T
   2    -32.8245132 -0.258606E-06  0.320E-02    3.70       1.0  T
   3    -32.8245132  0.351521E-07  0.253E-03    3.70       8.1  T
   4    -32.8245133 -0.741247E-07  0.126E-03    3.70      16.2  T
   5    -32.8245133 -0.230172E-07  0.557E-04    3.70      36.6  T
   6    -32.8245133 -0.990255E-09  0.167E-04    3.70     122.1  T
     SCC iter.                  ...        0 min,  0.005 sec
     gradient                   ...        0 min,  0.002 sec
 * total energy  :   -32.3995607 Eh     change       -0.2719182E-04 Eh
   gradient norm :     0.0028633 Eh/α   predicted    -0.2481507E-04 (  -8.74%)
   displ. norm   :     0.2071201 α      lambda       -0.4030764E-04
   maximum displ.:     0.1266270 α      in ANC's #2, #4, #6, ...

........................................................................
.............................. CYCLE   20 ..............................
........................................................................

 iter      E             dE          RMSdq      gap      omega  full diag
   1    -32.8232084 -0.328232E+02  0.697E-02    3.70       0.0  T
   2    -32.8232093 -0.949005E-06  0.409E-02    3.70       1.0  T
   3    -32.8232092  0.163890E-06  0.437E-03    3.70       4.7  T
   4    -32.8232093 -0.187494E-06  0.238E-03    3.70       8.6  T
   5    -32.8232094 -0.101747E-06  0.767E-04    3.70      26.6  T
   6    -32.8232094 -0.139723E-08  0.227E-04    3.70      89.8  T
     SCC iter.                  ...        0 min,  0.005 sec
     gradient                   ...        0 min,  0.002 sec
 * total energy  :   -32.3995655 Eh     change       -0.4765427E-05 Eh
   gradient norm :     0.0040104 Eh/α   predicted    -0.2102315E-04 ( 341.16%)
   displ. norm   :     0.0855733 α      lambda       -0.4619945E-04
   maximum displ.:     0.0603505 α      in ANC's #2, #4, #5, ...
 * RMSD in coord.:     0.4883118 α      energy gain  -0.2477612E-01 Eh

generating ANC from exact Hessian ...
Using Lindh-Hessian (1995)
 Shifting diagonal of input Hessian by   9.086376932459712E-003
 Lowest  eigenvalues of input Hessian
    0.000000    0.000000    0.000000    0.000000    0.000000    0.000000
    0.010000    0.010430    0.012001    0.015658    0.017469    0.018789
    0.018883    0.019046    0.019266    0.019307    0.021398    0.022130
 Highest eigenvalues
    1.267995    1.289899    1.461518    1.819476    1.929870    2.395973
 

........................................................................
.............................. CYCLE   21 ..............................
........................................................................

 iter      E             dE          RMSdq      gap      omega  full diag
   1    -32.8248959 -0.328249E+02  0.310E-02    3.70       0.0  T
   2    -32.8248964 -0.548153E-06  0.180E-02    3.70       1.1  T
   3    -32.8248964  0.714460E-07  0.335E-03    3.70       6.1  T
   4    -32.8248964 -0.805452E-07  0.161E-03    3.70      12.7  T
   5    -32.8248965 -0.449009E-07  0.475E-04    3.70      43.0  T
   6    -32.8248965 -0.411234E-09  0.211E-04    3.70      96.6  T
     SCC iter.                  ...        0 min,  0.005 sec
     gradient                   ...        0 min,  0.002 sec
 * total energy  :   -32.3995860 Eh     change       -0.2047422E-04 Eh
   gradient norm :     0.0012612 Eh/α   predicted     0.0000000E+00 (-100.00%)
   displ. norm   :     0.0203344 α      lambda       -0.5761749E-05
   maximum displ.:     0.0119065 α      in ANC's #8, #2, #1, ...

........................................................................
.............................. CYCLE   22 ..............................
........................................................................

 iter      E             dE          RMSdq      gap      omega  full diag
   1    -32.8247006 -0.328247E+02  0.102E-02    3.70       0.0  T
   2    -32.8247007 -0.559708E-07  0.594E-03    3.70       3.4  T
   3    -32.8247007  0.130166E-08  0.952E-04    3.70      21.4  T
   4    -32.8247007 -0.792631E-08  0.282E-04    3.70      72.5  T
     SCC iter.                  ...        0 min,  0.003 sec
     gradient                   ...        0 min,  0.002 sec
 * total energy  :   -32.3995913 Eh     change       -0.5311530E-05 Eh
   gradient norm :     0.0003960 Eh/α   predicted    -0.2884793E-05 ( -45.69%)
   displ. norm   :     0.0294510 α      lambda       -0.3556721E-05
   maximum displ.:     0.0185738 α      in ANC's #8, #2, #1, ...

........................................................................
.............................. CYCLE   23 ..............................
........................................................................

 iter      E             dE          RMSdq      gap      omega  full diag
   1    -32.8246370 -0.328246E+02  0.134E-02    3.70       0.0  T
   2    -32.8246370 -0.246239E-07  0.788E-03    3.70       2.6  T
   3    -32.8246370  0.361364E-08  0.774E-04    3.70      26.4  T
   4    -32.8246370 -0.871343E-08  0.328E-04    3.70      62.2  T
     SCC iter.                  ...        0 min,  0.003 sec
     gradient                   ...        0 min,  0.002 sec
 * total energy  :   -32.3995950 Eh     change       -0.3688621E-05 Eh
   gradient norm :     0.0006735 Eh/α   predicted    -0.1785086E-05 ( -51.61%)
   displ. norm   :     0.0570722 α      lambda       -0.4962057E-05
   maximum displ.:     0.0356908 α      in ANC's #8, #2, #1, ...

   *** GEOMETRY OPTIMIZATION CONVERGED AFTER 23 ITERATIONS ***

------------------------------------------------------------------------
 total energy gain   :        -0.0248056 Eh      -15.5657 kcal/mol
 total RMSD          :         0.4908319 a0        0.2597 Å
 total power (kW/mol):        -2.8316121 (step) -224.9057 (real)
------------------------------------------------------------------------

 ANCopt (total)                0 d,  0 h,  0 min,  0.290 sec
 optimizer setup                ...        0 min,  0.000 sec (  0.036%)
 model hessian                  ...        0 min,  0.024 sec (  8.326%)
 ANC generation                 ...        0 min,  0.001 sec (  0.367%)
 coordinate transformation      ...        0 min,  0.000 sec (  0.059%)
 single point calculation       ...        0 min,  0.254 sec ( 87.764%)
 optimization log               ...        0 min,  0.004 sec (  1.250%)
 hessian update                 ...        0 min,  0.004 sec (  1.222%)
 rational function              ...        0 min,  0.002 sec (  0.676%)

================
 final structure:
================
24
 xtb: 6.7.1 (edcfbbe)
C            3.40823792501235       -0.68011001086804       -0.31330458792158
C            2.25494919360570        0.14713343926278        0.15733987110498
C            2.38342428450275        1.28374837228711        0.83212432111709
C            0.91369366406171       -0.41392758168048       -0.18836099371004
O            0.77282782221476       -1.49635455288944       -0.70778081542260
O           -0.07307127044862        0.41638718977068        0.14279649156398
C           -1.45995948907449        0.07622292165915       -0.10308694258600
C           -1.84265579381000       -1.18619586746351        0.66900971484605
C           -1.70069595441515       -0.10151462799568       -1.60216774423663
C           -2.23612644162524        1.28323965177642        0.42547156800045
H            3.26439857820780       -1.71659648679613       -0.01375512416933
H            3.45406069800896       -0.66328839629464       -1.40150686443970
H            4.34572959712052       -0.30749785113398        0.08946143746126
H            1.52656818056611        1.85087618628490        1.15081937388990
H            3.35347887587177        1.68042834816460        1.08274425792202
H           -1.61480347818905       -1.06133490465828        1.72551244437251
H           -1.29200259631126       -2.04264194621785        0.29076750434613
H           -2.90677869815802       -1.37308501960378        0.55725781662047
H           -1.14387657823050       -0.95694065158887       -1.97464042489201
H           -2.75947900433327       -0.26268359862995       -1.78579295098864
H           -1.37986430596576        0.78885564971229       -2.13982394932869
H           -1.92969678076497        2.18266386276907       -0.10215603615667
H           -2.03647019012123        1.41977453784856        1.48521114144906
H           -3.30188723772490        1.13284133628498        0.28209349115793
 
 Bond Distances (Angstroems)
 ---------------------------
C1-C2=1.4953         C1-H11=1.0885        C1-H12=1.0893        C1-H13=1.0863        C2-C1=1.4953         C2-C3=1.3281         
C2-C4=1.4944         C3-C2=1.3281         C3-H14=1.0758        C3-H15=1.0776        C4-C2=1.4944         C4-O5=1.2088         
C4-O6=1.3315         O5-C4=1.2088         O6-C4=1.3315         O6-C7=1.4490         C7-O6=1.4490         C7-C8=1.5285         
C7-C9=1.5287         C7-C10=1.5293        C8-C7=1.5285         C8-H16=1.0880        C8-H17=1.0862        C8-H18=1.0862        
C9-C7=1.5287         C9-H19=1.0865        C9-H20=1.0866        C9-H21=1.0885        C10-C7=1.5293        C10-H22=1.0869       
C10-H23=1.0870       C10-H24=1.0858       H11-C1=1.0885        H12-C1=1.0893        H13-C1=1.0863        H14-C3=1.0758        
H15-C3=1.0776        H16-C8=1.0880        H17-C8=1.0862        H18-C8=1.0862        H19-C9=1.0865        H20-C9=1.0866        
H21-C9=1.0885        H22-C10=1.0869       H23-C10=1.0870       H24-C10=1.0858       
 C  H  Rav=1.0856 sigma=0.0038  Rmin=1.0758  Rmax=1.0893    14
 C  C  Rav=1.4840 sigma=0.0714  Rmin=1.3281  Rmax=1.5293     6
 O  C  Rav=1.3298 sigma=0.0981  Rmin=1.2088  Rmax=1.4490     3
 
 selected bond angles (degree)
 --------------------
H11-C1-C2=109.77               H12-C1-C2=109.78               H12-C1-H11=107.17              H13-C1-C2=111.05               
H13-C1-H11=109.80              H13-C1-H12=109.20              C3-C2-C1=123.97                C4-C2-C1=114.31                
C4-C2-C3=121.71                H14-C3-C2=121.64               H15-C3-C2=121.35               H15-C3-H14=117.00              
O5-C4-C2=122.69                O6-C4-C2=111.93                O6-C4-O5=125.37                C7-O6-C4=121.38                
C8-C7-O6=110.35                C9-C7-O6=110.15                C9-C7-C8=111.09                C10-C7-O6=104.00               
C10-C7-C8=110.50               C10-C7-C9=110.54               H16-C8-C7=110.08               H17-C8-C7=110.39               
H17-C8-H16=108.81              H18-C8-C7=109.60               H18-C8-H16=108.96              H18-C8-H17=108.98              
H19-C9-C7=110.30               H20-C9-C7=109.66               H20-C9-H19=108.94              H21-C9-C7=110.05               
H21-C9-H19=108.88              H21-C9-H20=108.97              H22-C10-C7=110.02              H23-C10-C7=110.05              
H23-C10-H22=108.52             H24-C10-C7=110.07              H24-C10-H22=109.10             H24-C10-H23=109.05             
 
 selected dihedral angles (degree)
 ---------------------------------
C3-C2-C1-H11=129.74           C3-C2-C1-H12=247.29           C3-C2-C1-H13=  8.14           C4-C2-C1-H11=310.04           
C4-C2-C1-H12= 67.60           C4-C2-C1-H13=188.44           H14-C3-C2-C1=179.85           H14-C3-C2-C4=359.52           
H15-C3-C2-C1=  0.00           H15-C3-C2-C4=179.68           O5-C4-C2-C1=  5.69            O5-C4-C2-C3=185.99            
O6-C4-C2-C1=185.75            O6-C4-C2-C3=  6.04            C7-O6-C4-C2=179.94            C7-O6-C4-O5=  0.00            
C8-C7-O6-C4= 61.25            C9-C7-O6-C4=298.23            C10-C7-O6-C4=179.77           H16-C8-C7-O6= 54.48           
H16-C8-C7-C9=176.95           H16-C8-C7-C10=300.02          H17-C8-C7-O6=294.34           H17-C8-C7-C9= 56.81           
H17-C8-C7-C10=179.88          H18-C8-C7-O6=174.30           H18-C8-C7-C9=296.77           H18-C8-C7-C10= 59.84          
H19-C9-C7-O6= 65.36           H19-C9-C7-C8=302.77           H19-C9-C7-C10=179.73          H20-C9-C7-O6=185.35           
H20-C9-C7-C8= 62.76           H20-C9-C7-C10=299.71          H21-C9-C7-O6=305.21           H21-C9-C7-C8=182.62           
H21-C9-C7-C10= 59.57          H22-C10-C7-O6= 59.37          H22-C10-C7-C8=177.79          H22-C10-C7-C9=301.18          
H23-C10-C7-O6=299.85          H23-C10-C7-C8= 58.26          H23-C10-C7-C9=181.66          H24-C10-C7-O6=179.63          
H24-C10-C7-C8=298.04          H24-C10-C7-C9= 61.44          
           -------------------------------------------------
          |                Final Singlepoint                |
           -------------------------------------------------

          ...................................................
          :                      SETUP                      :
          :.................................................:
          :  # basis functions                  54          :
          :  # atomic orbitals                  54          :
          :  # shells                           34          :
          :  # electrons                        58          :
          :  max. iterations                   250          :
          :  Hamiltonian                  GFN2-xTB          :
          :  restarted?                      false          :
          :  GBSA solvation                  false          :
          :  PC potential                    false          :
          :  electronic temp.          300.0000000     K    :
          :  accuracy                    1.0000000          :
          :  -> integral cutoff          0.2500000E+02      :
          :  -> integral neglect         0.1000000E-07      :
          :  -> SCF convergence          0.1000000E-05 Eh   :
          :  -> wf. convergence          0.1000000E-03 e    :
          :  Broyden damping             0.4000000          :
          :  net charge                          0          :
          :  unpaired electrons                  0          :
          ...................................................

 iter      E             dE          RMSdq      gap      omega  full diag
   1    -32.8246370 -0.328246E+02  0.171E-04    3.70       0.0  T
   2    -32.8246370 -0.373674E-10  0.127E-04    3.70     160.3  T
   3    -32.8246370 -0.133092E-09  0.792E-05    3.70     257.8  T

   *** convergence criteria satisfied after 3 iterations ***

         #    Occupation            Energy/Eh            Energy/eV
      -------------------------------------------------------------
         1        2.0000           -0.7298731             -19.8609
       ...           ...                  ...                  ...
        23        2.0000           -0.4603339             -12.5263
        24        2.0000           -0.4548612             -12.3774
        25        2.0000           -0.4504866             -12.2584
        26        2.0000           -0.4399920             -11.9728
        27        2.0000           -0.4302505             -11.7077
        28        2.0000           -0.4119924             -11.2109
        29        2.0000           -0.3979807             -10.8296 (HOMO)
        30                         -0.2618646              -7.1257 (LUMO)
        31                         -0.1559250              -4.2429
        32                         -0.0173467              -0.4720
        33                          0.0797858               2.1711
        34                          0.0900543               2.4505
       ...                                ...                  ...
        54                          0.7119387              19.3728
      -------------------------------------------------------------
                  HL-Gap            0.1361161 Eh            3.7039 eV
             Fermi-level           -0.3299227 Eh           -8.9777 eV

 SCC (total)                   0 d,  0 h,  0 min,  0.005 sec
 SCC setup                      ...        0 min,  0.000 sec (  1.362%)
 Dispersion                     ...        0 min,  0.000 sec (  2.053%)
 classical contributions        ...        0 min,  0.000 sec (  0.690%)
 integral evaluation            ...        0 min,  0.000 sec (  8.709%)
 iterations                     ...        0 min,  0.003 sec ( 48.571%)
 molecular gradient             ...        0 min,  0.002 sec ( 36.451%)
 printout                       ...        0 min,  0.000 sec (  1.765%)

         :::::::::::::::::::::::::::::::::::::::::::::::::::::
         ::                     SUMMARY                     ::
         :::::::::::::::::::::::::::::::::::::::::::::::::::::
         :: total energy             -32.399594976899 Eh    ::
         :: gradient norm              0.000672769816 Eh/a0 ::
         :: HOMO-LUMO gap              3.703907223523 eV    ::
         ::.................................................::
         :: SCC energy               -32.824523718585 Eh    ::
         :: -> isotropic ES            0.050003827437 Eh    ::
         :: -> anisotropic ES          0.003279727163 Eh    ::
         :: -> anisotropic XC          0.012001097887 Eh    ::
         :: -> dispersion             -0.017285558599 Eh    ::
         :: repulsion energy           0.424928741686 Eh    ::
         :: add. restraining           0.000000000000 Eh    ::
         :: total charge              -0.000000000000 e     ::
         :::::::::::::::::::::::::::::::::::::::::::::::::::::

           -------------------------------------------------
          |                Property Printout                |
           -------------------------------------------------

    * Orbital Energies and Occupations

         #    Occupation            Energy/Eh            Energy/eV
      -------------------------------------------------------------
         1        2.0000           -0.7298731             -19.8609
       ...           ...                  ...                  ...
        17        2.0000           -0.4863355             -13.2339
        18        2.0000           -0.4849090             -13.1950
        19        2.0000           -0.4749760             -12.9248
        20        2.0000           -0.4712532             -12.8235
        21        2.0000           -0.4670347             -12.7087
        22        2.0000           -0.4617357             -12.5645
        23        2.0000           -0.4603339             -12.5263
        24        2.0000           -0.4548612             -12.3774
        25        2.0000           -0.4504866             -12.2584
        26        2.0000           -0.4399920             -11.9728
        27        2.0000           -0.4302505             -11.7077
        28        2.0000           -0.4119924             -11.2109
        29        2.0000           -0.3979807             -10.8296 (HOMO)
        30                         -0.2618646              -7.1257 (LUMO)
        31                         -0.1559250              -4.2429
        32                         -0.0173467              -0.4720
        33                          0.0797858               2.1711
        34                          0.0900543               2.4505
        35                          0.1054742               2.8701
        36                          0.1153245               3.1381
        37                          0.1199214               3.2632
        38                          0.1466760               3.9913
        39                          0.1791998               4.8763
        40                          0.1866776               5.0798
       ...                                ...                  ...
        54                          0.7119387              19.3728
      -------------------------------------------------------------
                  HL-Gap            0.1361161 Eh            3.7039 eV
             Fermi-level           -0.3299227 Eh           -8.9777 eV

     #   Z          covCN         q      C6AA      α(0)
     1   6 C        3.759    -0.109    22.638     6.783
     2   6 C        2.938    -0.009    28.246     8.716
     3   6 C        2.843    -0.083    30.072     8.987
     4   6 C        2.709     0.356    20.956     7.493
     5   8 O        0.856    -0.424    22.172     6.313
     6   8 O        1.703    -0.278    18.606     5.824
     7   6 C        3.781     0.155    18.112     6.063
     8   6 C        3.756    -0.118    22.818     6.811
     9   6 C        3.756    -0.118    22.816     6.811
    10   6 C        3.757    -0.118    22.815     6.810
    11   1 H        0.925     0.067     2.123     2.279
    12   1 H        0.925     0.061     2.192     2.315
    13   1 H        0.925     0.048     2.346     2.395
    14   1 H        0.926     0.060     2.194     2.316
    15   1 H        0.926     0.052     2.300     2.372
    16   1 H        0.925     0.043     2.410     2.428
    17   1 H        0.925     0.067     2.119     2.277
    18   1 H        0.925     0.044     2.396     2.421
    19   1 H        0.925     0.067     2.121     2.278
    20   1 H        0.925     0.044     2.397     2.421
    21   1 H        0.925     0.043     2.410     2.428
    22   1 H        0.925     0.052     2.296     2.370
    23   1 H        0.925     0.051     2.302     2.372
    24   1 H        0.925     0.048     2.341     2.393

 Mol. C6AA /au·bohr⁶  :       4721.766421
 Mol. C8AA /au·bohr⁸  :     103375.313397
 Mol. α(0) /au        :        103.674030


Wiberg/Mayer (AO) data.
largest (>0.10) Wiberg bond orders for each atom

 ---------------------------------------------------------------------------
     #   Z sym  total        # sym  WBO       # sym  WBO       # sym  WBO
 ---------------------------------------------------------------------------
     1   6 C    3.994 --     2 C    1.030    13 H    0.985    11 H    0.969
                            12 H    0.965
     2   6 C    3.986 --     3 C    1.883     1 C    1.030     4 C    0.985
     3   6 C    3.989 --     2 C    1.883    15 H    0.974    14 H    0.973
     4   6 C    3.919 --     5 O    1.714     6 O    1.143     2 C    0.985
     5   8 O    2.024 --     4 C    1.714     6 O    0.173
     6   8 O    2.309 --     4 C    1.143     7 C    0.900     5 O    0.173
     7   6 C    3.921 --    10 C    0.995     8 C    0.994     9 C    0.994
                             6 O    0.900
     8   6 C    3.993 --     7 C    0.994    16 H    0.985    18 H    0.984
                            17 H    0.980
     9   6 C    3.993 --     7 C    0.994    21 H    0.985    20 H    0.984
                            19 H    0.980
    10   6 C    3.993 --     7 C    0.995    23 H    0.985    22 H    0.985
                            24 H    0.984
    11   1 H    0.996 --     1 C    0.969
    12   1 H    0.996 --     1 C    0.965
    13   1 H    0.997 --     1 C    0.985
    14   1 H    0.996 --     3 C    0.973
    15   1 H    0.997 --     3 C    0.974
    16   1 H    0.998 --     8 C    0.985
    17   1 H    0.996 --     8 C    0.980
    18   1 H    0.998 --     8 C    0.984
    19   1 H    0.996 --     9 C    0.980
    20   1 H    0.998 --     9 C    0.984
    21   1 H    0.998 --     9 C    0.985
    22   1 H    0.997 --    10 C    0.985
    23   1 H    0.997 --    10 C    0.985
    24   1 H    0.997 --    10 C    0.984
 ---------------------------------------------------------------------------

Topologies differ in total number of bonds
Writing topology from bond orders to xtbtopo.mol

molecular dipole:
                 x           y           z       tot (Debye)
 q only:       -0.232       0.636       0.275
   full:       -0.231       0.727       0.312       2.094
molecular quadrupole (traceless):
                xx          xy          yy          xz          yz          zz
 q only:        7.510       1.203      -4.997       0.993      -1.220      -2.514
  q+dip:        7.637       2.074      -5.465       1.293      -1.377      -2.172
   full:        7.337       1.881      -5.962       1.143      -2.390      -1.375

           -------------------------------------------------
          |                Geometry Summary                 |
           -------------------------------------------------

      molecular mass/u    :      142.1958675
   center of mass at/Å    :        0.2069310      -0.0822428      -0.0793007
  moments of inertia/u·Å² :        0.2057793E+03   0.6005182E+03   0.6913998E+03
rotational constants/cm⁻¹ :        0.8192095E-01   0.2807181E-01   0.2438189E-01

 * 20 selected distances

     #   Z          #   Z                                           value/Å
     2   6 C        3   6 C                                       1.3280564
     4   6 C        5   8 O                                       1.2088377
     4   6 C        6   8 O                                       1.3314628
     7   6 C        8   6 C                                       1.5284932
     7   6 C        9   6 C                                       1.5286557
     7   6 C       10   6 C                                       1.5292806 (max)
     1   6 C       11   1 H                                       1.0884503
     1   6 C       12   1 H                                       1.0892966
     1   6 C       13   1 H                                       1.0862556
     3   6 C       14   1 H                                       1.0758267 (min)
     3   6 C       15   1 H                                       1.0775767
     8   6 C       16   1 H                                       1.0879822
     8   6 C       17   1 H                                       1.0861796
     8   6 C       18   1 H                                       1.0861739
     9   6 C       19   1 H                                       1.0865255
     9   6 C       20   1 H                                       1.0866073
     9   6 C       21   1 H                                       1.0884698
    10   6 C       22   1 H                                       1.0868552
    10   6 C       23   1 H                                       1.0869924
    10   6 C       24   1 H                                       1.0858284

 * 3 distinct bonds (by element types)

   Z      Z             #   av. dist./Å        max./Å        min./Å
   1 H    6 C          14     1.0856443     1.0892966     1.0758267
   6 C    6 C           4     1.4786215     1.5292806     1.3280564
   6 C    8 O           2     1.2701503     1.3314628     1.2088377


optimized geometry written to: xtbopt.xyz


           -------------------------------------------------
          | TOTAL ENERGY              -32.399594976899 Eh   |
          | GRADIENT NORM               0.000672769816 Eh/α |
          | HOMO-LUMO GAP               3.703907223523 eV   |
           -------------------------------------------------

------------------------------------------------------------------------
 * finished run on 2025/12/01 at 14:23:06.372     
------------------------------------------------------------------------
 total:
 * wall-time:     0 d,  0 h,  0 min,  0.322 sec
 *  cpu-time:     0 d,  0 h,  0 min,  7.359 sec
 * ratio c/w:    22.831 speedup
 SCF:
 * wall-time:     0 d,  0 h,  0 min,  0.018 sec
 *  cpu-time:     0 d,  0 h,  0 min,  0.420 sec
 * ratio c/w:    22.781 speedup
 ANC optimizer:
 * wall-time:     0 d,  0 h,  0 min,  0.296 sec
 *  cpu-time:     0 d,  0 h,  0 min,  6.792 sec
 * ratio c/w:    22.961 speedup

normal termination of xtb
