      -----------------------------------------------------------      
     |                   =====================                   |     
     |                           x T B                           |     
     |                   =====================                   |     
     |                         S. Grimme                         |     
     |          Mulliken Center for Theoretical Chemistry        |     
     |                    University of Bonn                     |     
      -----------------------------------------------------------      

   * xtb version 6.7.1 (edcfbbe) compiled by 'albert@albert-system' on 2024-07-22

   xtb is free software: you can redistribute it and/or modify it under
   the terms of the GNU Lesser General Public License as published by
   the Free Software Foundation, either version 3 of the License, or
   (at your option) any later version.
   
   xtb is distributed in the hope that it will be useful,
   but WITHOUT ANY WARRANTY; without even the implied warranty of
   MERCHANTABILITY or FITNESS FOR A PARTICULAR PURPOSE.  See the
   GNU Lesser General Public License for more details.
   
   Cite this work as:
   * C. Bannwarth, E. Caldeweyher, S. Ehlert, A. Hansen, P. Pracht,
     J. Seibert, S. Spicher, S. Grimme, WIREs Comput. Mol. Sci., 2020, 11,
     e01493. DOI: 10.1002/wcms.1493
   
   for GFN2-xTB:
   * C. Bannwarth, S. Ehlert and S. Grimme., J. Chem. Theory Comput., 2019,
     15, 1652-1671. DOI: 10.1021/acs.jctc.8b01176
   for GFN1-xTB:
   * S. Grimme, C. Bannwarth, P. Shushkov, J. Chem. Theory Comput., 2017,
     13, 1989-2009. DOI: 10.1021/acs.jctc.7b00118
   for GFN0-xTB:
   * P. Pracht, E. Caldeweyher, S. Ehlert, S. Grimme, ChemRxiv, 2019, preprint.
     DOI: 10.26434/chemrxiv.8326202.v1
   for GFN-FF:
   * S. Spicher and S. Grimme, Angew. Chem. Int. Ed., 2020, 59, 15665-15673.
     DOI: 10.1002/anie.202004239
   
   for ALPB and GBSA implicit solvation:
   * S. Ehlert, M. Stahn, S. Spicher, S. Grimme, J. Chem. Theory Comput.,
     2021, 17, 4250-4261. DOI: 10.1021/acs.jctc.1c00471
   
   for ddCOSMO and CPCM-X implicit solvation:
   * M. Stahn, S. Ehlert, S. Grimme, J. Phys. Chem. A,
     2023, XX, XXXX-XXXX. DOI: 10.1021/acs.jpca.3c04382
   
   for DFT-D4:
   * E. Caldeweyher, C. Bannwarth and S. Grimme, J. Chem. Phys., 2017,
     147, 034112. DOI: 10.1063/1.4993215
   * E. Caldeweyher, S. Ehlert, A. Hansen, H. Neugebauer, S. Spicher,
     C. Bannwarth and S. Grimme, J. Chem. Phys., 2019, 150, 154122.
     DOI: 10.1063/1.5090222
   * E. Caldeweyher, J.-M. Mewes, S. Ehlert and S. Grimme, Phys. Chem. Chem. Phys.
     2020, 22, 8499-8512. DOI: 10.1039/D0CP00502A
   
   for sTDA-xTB:
   * S. Grimme and C. Bannwarth, J. Chem. Phys., 2016, 145, 054103.
     DOI: 10.1063/1.4959605
   
   in the mass-spec context:
   * V. Asgeirsson, C. Bauer and S. Grimme, Chem. Sci., 2017, 8, 4879.
     DOI: 10.1039/c7sc00601b
   * J. Koopman and S. Grimme, ACS Omega 2019, 4, 12, 15120-15133.
     DOI: 10.1021/acsomega.9b02011
   
   for metadynamics refer to:
   * S. Grimme, J. Chem. Theory Comput., 2019, 155, 2847-2862
     DOI: 10.1021/acs.jctc.9b00143
   
   for SPH calculations refer to:
   * S. Spicher and S. Grimme, J. Chem. Theory Comput., 2021, 17, 1701-1714
     DOI: 10.1021/acs.jctc.0c01306
   
   for ONIOM refer to:
   * C. Plett, A. Katbashev, S. Ehlert, S. Grimme, M. Bursch,
     Phys. Chem. Chem. Phys., 2023, 25, 17860-17868. DOI: 10.1039/D3CP02178E
   
   for DIPRO refer to:
   * J. Kohn, N. Gildemeister, S. Grimme, D. Fazzi, A. Hansen,
     J. Chem. Phys., 2023, just accepted.
   
   for PTB refer to:
   * S. Grimme, M. Mueller, A. Hansen, J. Chem. Phys., 2023, 158, 124111.
     DOI: 10.1063/5.0137838
   
   with help from (in alphabetical order)
   P. Atkinson, C. Bannwarth, F. Bohle, G. Brandenburg, E. Caldeweyher
   M. Checinski, S. Dohm, S. Ehlert, S. Ehrlich, I. Gerasimov, C. Hölzer
   A. Katbashev, J. Kohn, J. Koopman, C. Lavigne, S. Lehtola, F. März, M. Müller,
   F. Musil, H. Neugebauer, J. Pisarek, C. Plett, P. Pracht, F. Pultar,
   J. Seibert, P. Shushkov, S. Spicher, M. Stahn, M. Steiner, T. Strunk,
   J. Stückrath, T. Rose, and J. Unsleber
   
 * started run on 2025/12/01 at 14:23:05.755     
   ID    Z sym.   atoms
    1    6 C      1-4, 7-10
    2    8 O      5, 6
    3    1 H      11-24

           -------------------------------------------------
          |                Calculation Setup                |
           -------------------------------------------------

          program call               : xtb pipeline_data/3_conformer_xyz/acrylates/rdkit/SJMYWORNLPSJQO-UHFFFAOYSA-N_conf63.xyz --opt --gfn 2-xTB --iterations 250
          coordinate file            : pipeline_data/3_conformer_xyz/acrylates/rdkit/SJMYWORNLPSJQO-UHFFFAOYSA-N_conf63.xyz
          omp threads                :                    24

########################################################################
[WARNING] Please study the warnings concerning your input carefully
-1- readin_getIntValue: could not parse '2-xTB'
########################################################################

           -------------------------------------------------
          |                 G F N 2 - x T B                 |
           -------------------------------------------------

        Reference                      10.1021/acs.jctc.8b01176
      * Hamiltonian:
        H0-scaling (s, p, d)           1.850000    2.230000    2.230000
        zeta-weighting                 0.500000
      * Dispersion:
        s8                             2.700000
        a1                             0.520000
        a2                             5.000000
        s9                             5.000000
      * Repulsion:
        kExp                           1.500000    1.000000
        rExp                           1.000000
      * Coulomb:
        alpha                          2.000000
        third order                    shell-resolved
        anisotropic                    true
        a3                             3.000000
        a5                             4.000000
        cn-shift                       1.200000
        cn-exp                         4.000000
        max-rad                        5.000000


          ...................................................
          :                      SETUP                      :
          :.................................................:
          :  # basis functions                  54          :
          :  # atomic orbitals                  54          :
          :  # shells                           34          :
          :  # electrons                        58          :
          :  max. iterations                   250          :
          :  Hamiltonian                  GFN2-xTB          :
          :  restarted?                      false          :
          :  GBSA solvation                  false          :
          :  PC potential                    false          :
          :  electronic temp.          300.0000000     K    :
          :  accuracy                    1.0000000          :
          :  -> integral cutoff          0.2500000E+02      :
          :  -> integral neglect         0.1000000E-07      :
          :  -> SCF convergence          0.1000000E-05 Eh   :
          :  -> wf. convergence          0.1000000E-03 e    :
          :  Broyden damping             0.4000000          :
          :  net charge                          0          :
          :  unpaired electrons                  0          :
          ...................................................

 iter      E             dE          RMSdq      gap      omega  full diag
   1    -32.6890246 -0.326890E+02  0.393E+00    4.00       0.0  T
   2    -32.7639857 -0.749610E-01  0.211E+00    3.05       1.0  T
   3    -32.7663557 -0.237005E-02  0.118E+00    3.44       1.0  T
   4    -32.7708040 -0.444833E-02  0.396E-01    3.29       1.0  T
   5    -32.7729444 -0.214037E-02  0.150E-01    3.26       1.0  T
   6    -32.7733134 -0.368958E-03  0.572E-02    3.30       1.0  T
   7    -32.7733199 -0.654073E-05  0.193E-02    3.29       1.1  T
   8    -32.7733221 -0.219911E-05  0.693E-03    3.29       2.9  T
   9    -32.7733223 -0.184061E-06  0.181E-03    3.30      11.3  T
  10    -32.7733223 -0.582573E-08  0.897E-04    3.30      22.8  T
  11    -32.7733223 -0.200713E-08  0.167E-04    3.30     122.5  T

   *** convergence criteria satisfied after 11 iterations ***

         #    Occupation            Energy/Eh            Energy/eV
      -------------------------------------------------------------
         1        2.0000           -0.7266072             -19.7720
       ...           ...                  ...                  ...
        23        2.0000           -0.4549833             -12.3807
        24        2.0000           -0.4501862             -12.2502
        25        2.0000           -0.4479625             -12.1897
        26        2.0000           -0.4329021             -11.7799
        27        2.0000           -0.4219997             -11.4832
        28        2.0000           -0.4169266             -11.3452
        29        2.0000           -0.3989577             -10.8562 (HOMO)
        30                         -0.2778600              -7.5610 (LUMO)
        31                         -0.1616949              -4.3999
        32                         -0.0102022              -0.2776
        33                          0.0749896               2.0406
        34                          0.0957387               2.6052
       ...                                ...                  ...
        54                          0.6561883              17.8558
      -------------------------------------------------------------
                  HL-Gap            0.1210978 Eh            3.2952 eV
             Fermi-level           -0.3384089 Eh           -9.2086 eV

 SCC (total)                   0 d,  0 h,  0 min,  0.020 sec
 SCC setup                      ...        0 min,  0.000 sec (  0.831%)
 Dispersion                     ...        0 min,  0.000 sec (  1.350%)
 classical contributions        ...        0 min,  0.000 sec (  0.282%)
 integral evaluation            ...        0 min,  0.001 sec (  3.475%)
 iterations                     ...        0 min,  0.016 sec ( 80.740%)
 molecular gradient             ...        0 min,  0.002 sec ( 12.409%)
 printout                       ...        0 min,  0.000 sec (  0.776%)

         :::::::::::::::::::::::::::::::::::::::::::::::::::::
         ::                     SUMMARY                     ::
         :::::::::::::::::::::::::::::::::::::::::::::::::::::
         :: total energy             -32.377062427516 Eh    ::
         :: gradient norm              0.149180409632 Eh/a0 ::
         :: HOMO-LUMO gap              3.295237814574 eV    ::
         ::.................................................::
         :: SCC energy               -32.773203242414 Eh    ::
         :: -> isotropic ES            0.052518150258 Eh    ::
         :: -> anisotropic ES          0.002690752963 Eh    ::
         :: -> anisotropic XC          0.012810397586 Eh    ::
         :: -> dispersion             -0.017171881956 Eh    ::
         :: repulsion energy           0.396140814898 Eh    ::
         :: add. restraining           0.000000000000 Eh    ::
         :: total charge              -0.000000000000 e     ::
         :::::::::::::::::::::::::::::::::::::::::::::::::::::

      ----------------------------------------------------------- 
     |                   =====================                   |
     |                        A N C O P T                        |
     |                   =====================                   |
     |               Approximate Normal Coordinate               |
     |                Rational Function Optimizer                |
      ----------------------------------------------------------- 
      ----------------------------------------------------------- 
     |                   =====================                   |
     |                        A N C O P T                        |
     |                   =====================                   |
     |               Approximate Normal Coordinate               |
     |                Rational Function Optimizer                |
      ----------------------------------------------------------- 

          ...................................................
          :                      SETUP                      :
          :.................................................:
          :   optimization level            normal          :
          :   max. optcycles                   200          :
          :   ANC micro-cycles                  20          :
          :   degrees of freedom                66          :
          :.................................................:
          :   RF solver                   davidson          :
          :   write xtbopt.log                true          :
          :   linear?                        false          :
          :   energy convergence         0.5000000E-05 Eh   :
          :   grad. convergence          0.1000000E-02 Eh/α :
          :   maxmium RF displ.          1.0000000          :
          :   Hlow (freq-cutoff)         0.1000000E-01      :
          :   Hmax (freq-cutoff)         5.0000000          :
          :   S6 in model hess.         20.0000000          :
          ...................................................

generating ANC from exact Hessian ...
Using Lindh-Hessian (1995)
 Shifting diagonal of input Hessian by   9.169960994113560E-003
 Lowest  eigenvalues of input Hessian
    0.000000    0.000000    0.000000    0.000000    0.000000    0.000000
    0.010000    0.010856    0.012221    0.016591    0.016955    0.019060
    0.019295    0.019522    0.019645    0.020300    0.022341    0.022674
 Highest eigenvalues
    1.291555    1.330184    1.519515    1.815541    2.036433    2.135027
 

........................................................................
.............................. CYCLE    1 ..............................
........................................................................

 iter      E             dE          RMSdq      gap      omega  full diag
   1    -32.7733223 -0.327733E+02  0.714E-05    3.30       0.0  T
   2    -32.7733223 -0.529354E-11  0.433E-05    3.30     471.1  T
   3    -32.7733223  0.779465E-11  0.299E-05    3.30     683.8  T
     SCC iter.                  ...        0 min,  0.004 sec
     gradient                   ...        0 min,  0.002 sec
 * total energy  :   -32.3770624 Eh     change       -0.1022897E-09 Eh
   gradient norm :     0.1491799 Eh/α   predicted     0.0000000E+00 (-100.00%)
   displ. norm   :     0.3313158 α      lambda       -0.2325835E-01
   maximum displ.:     0.1698941 α      in ANC's #17, #10, #27, ...

........................................................................
.............................. CYCLE    2 ..............................
........................................................................

 iter      E             dE          RMSdq      gap      omega  full diag
   1    -32.8071180 -0.328071E+02  0.343E-01    3.47       0.0  T
   2    -32.8074327 -0.314669E-03  0.210E-01    3.52       1.0  T
   3    -32.8074178  0.149324E-04  0.703E-02    3.53       1.0  T
   4    -32.8074360 -0.181818E-04  0.261E-02    3.53       1.0  T
   5    -32.8074504 -0.143946E-04  0.741E-03    3.53       2.8  T
   6    -32.8074510 -0.646472E-06  0.341E-03    3.53       6.0  T
   7    -32.8074510 -0.196165E-07  0.806E-04    3.53      25.3  T
   8    -32.8074510 -0.284749E-08  0.341E-04    3.53      59.8  T
     SCC iter.                  ...        0 min,  0.009 sec
     gradient                   ...        0 min,  0.002 sec
 * total energy  :   -32.3930896 Eh     change       -0.1602713E-01 Eh
   gradient norm :     0.0656763 Eh/α   predicted    -0.1291605E-01 ( -19.41%)
   displ. norm   :     0.2940014 α      lambda       -0.7205084E-02
   maximum displ.:     0.1306675 α      in ANC's #10, #3, #5, ...

........................................................................
.............................. CYCLE    3 ..............................
........................................................................

 iter      E             dE          RMSdq      gap      omega  full diag
   1    -32.8228900 -0.328229E+02  0.195E-01    3.66       0.0  T
   2    -32.8230645 -0.174496E-03  0.120E-01    3.71       1.0  T
   3    -32.8230564  0.816118E-05  0.612E-02    3.70       1.0  T
   4    -32.8230626 -0.620560E-05  0.305E-02    3.71       1.0  T
   5    -32.8230813 -0.186997E-04  0.500E-03    3.71       4.1  T
   6    -32.8230815 -0.220657E-06  0.241E-03    3.71       8.5  T
   7    -32.8230815 -0.133430E-07  0.717E-04    3.71      28.5  T
   8    -32.8230815 -0.118371E-08  0.314E-04    3.71      65.1  T
     SCC iter.                  ...        0 min,  0.009 sec
     gradient                   ...        0 min,  0.002 sec
 * total energy  :   -32.3973038 Eh     change       -0.4214269E-02 Eh
   gradient norm :     0.0187264 Eh/α   predicted    -0.3913936E-02 (  -7.13%)
   displ. norm   :     0.2468209 α      lambda       -0.1235791E-02
   maximum displ.:     0.1450554 α      in ANC's #3, #9, #5, ...

........................................................................
.............................. CYCLE    4 ..............................
........................................................................

 iter      E             dE          RMSdq      gap      omega  full diag
   1    -32.8218409 -0.328218E+02  0.715E-02    3.72       0.0  T
   2    -32.8218482 -0.723748E-05  0.429E-02    3.73       1.0  T
   3    -32.8218419  0.627539E-05  0.242E-02    3.73       1.0  T
   4    -32.8218495 -0.759145E-05  0.699E-03    3.73       2.9  T
   5    -32.8218504 -0.896940E-06  0.136E-03    3.73      15.0  T
   6    -32.8218504 -0.875644E-08  0.653E-04    3.73      31.3  T
   7    -32.8218504 -0.101941E-08  0.200E-04    3.73     101.8  T
     SCC iter.                  ...        0 min,  0.008 sec
     gradient                   ...        0 min,  0.002 sec
 * total energy  :   -32.3982135 Eh     change       -0.9096939E-03 Eh
   gradient norm :     0.0105901 Eh/α   predicted    -0.6555999E-03 ( -27.93%)
   displ. norm   :     0.3603342 α      lambda       -0.1037343E-02
   maximum displ.:     0.2466655 α      in ANC's #3, #9, #5, ...

........................................................................
.............................. CYCLE    5 ..............................
........................................................................

 iter      E             dE          RMSdq      gap      omega  full diag
   1    -32.8198320 -0.328198E+02  0.726E-02    3.74       0.0  T
   2    -32.8198448 -0.127481E-04  0.445E-02    3.74       1.0  T
   3    -32.8198396  0.519822E-05  0.259E-02    3.74       1.0  T
   4    -32.8198467 -0.713236E-05  0.968E-03    3.74       2.1  T
   5    -32.8198482 -0.144125E-05  0.144E-03    3.74      14.1  T
   6    -32.8198482 -0.121480E-07  0.718E-04    3.74      28.4  T
   7    -32.8198482 -0.115117E-08  0.193E-04    3.74     106.0  T
     SCC iter.                  ...        0 min,  0.008 sec
     gradient                   ...        0 min,  0.002 sec
 * total energy  :   -32.3988979 Eh     change       -0.6843391E-03 Eh
   gradient norm :     0.0089622 Eh/α   predicted    -0.5860268E-03 ( -14.37%)
   displ. norm   :     0.2565494 α      lambda       -0.4975448E-03
   maximum displ.:     0.1870592 α      in ANC's #3, #9, #6, ...

........................................................................
.............................. CYCLE    6 ..............................
........................................................................

 iter      E             dE          RMSdq      gap      omega  full diag
   1    -32.8202774 -0.328203E+02  0.544E-02    3.75       0.0  T
   2    -32.8202824 -0.496157E-05  0.328E-02    3.74       1.0  T
   3    -32.8202794  0.300346E-05  0.169E-02    3.74       1.2  T
   4    -32.8202827 -0.334931E-05  0.615E-03    3.74       3.3  T
   5    -32.8202834 -0.673838E-06  0.959E-04    3.74      21.3  T
   6    -32.8202834 -0.493150E-08  0.489E-04    3.74      41.7  T
     SCC iter.                  ...        0 min,  0.007 sec
     gradient                   ...        0 min,  0.004 sec
 * total energy  :   -32.3992536 Eh     change       -0.3556986E-03 Eh
   gradient norm :     0.0105604 Eh/α   predicted    -0.2651466E-03 ( -25.46%)
   displ. norm   :     0.2538524 α      lambda       -0.4469545E-03
   maximum displ.:     0.1821926 α      in ANC's #3, #9, #6, ...

........................................................................
.............................. CYCLE    7 ..............................
........................................................................

 iter      E             dE          RMSdq      gap      omega  full diag
   1    -32.8222576 -0.328223E+02  0.554E-02    3.74       0.0  T
   2    -32.8222588 -0.116294E-05  0.335E-02    3.74       1.0  T
   3    -32.8222559  0.285526E-05  0.126E-02    3.74       1.6  T
   4    -32.8222591 -0.318155E-05  0.298E-03    3.74       6.9  T
   5    -32.8222592 -0.134053E-06  0.923E-04    3.74      22.1  T
   6    -32.8222592 -0.148737E-08  0.381E-04    3.74      53.5  T
     SCC iter.                  ...        0 min,  0.012 sec
     gradient                   ...        0 min,  0.004 sec
 * total energy  :   -32.3995730 Eh     change       -0.3194867E-03 Eh
   gradient norm :     0.0093875 Eh/α   predicted    -0.2379015E-03 ( -25.54%)
   displ. norm   :     0.2510070 α      lambda       -0.3249000E-03
   maximum displ.:     0.1670901 α      in ANC's #3, #9, #6, ...

........................................................................
.............................. CYCLE    8 ..............................
........................................................................

 iter      E             dE          RMSdq      gap      omega  full diag
   1    -32.8235746 -0.328236E+02  0.550E-02    3.74       0.0  T
   2    -32.8235758 -0.114868E-05  0.328E-02    3.74       1.0  T
   3    -32.8235756  0.145627E-06  0.509E-03    3.74       4.0  T
   4    -32.8235759 -0.273454E-06  0.158E-03    3.74      12.9  T
   5    -32.8235759 -0.229348E-07  0.846E-04    3.74      24.1  T
   6    -32.8235759 -0.545918E-08  0.417E-04    3.74      48.9  T
     SCC iter.                  ...        0 min,  0.012 sec
     gradient                   ...        0 min,  0.005 sec
 * total energy  :   -32.3998054 Eh     change       -0.2323258E-03 Eh
   gradient norm :     0.0071048 Eh/α   predicted    -0.1726853E-03 ( -25.67%)
   displ. norm   :     0.2209897 α      lambda       -0.2430696E-03
   maximum displ.:     0.1221479 α      in ANC's #3, #6, #9, ...

........................................................................
.............................. CYCLE    9 ..............................
........................................................................

 iter      E             dE          RMSdq      gap      omega  full diag
   1    -32.8248062 -0.328248E+02  0.486E-02    3.74       0.0  T
   2    -32.8248094 -0.321583E-05  0.284E-02    3.74       1.0  T
   3    -32.8248091  0.269866E-06  0.867E-03    3.74       2.4  T
   4    -32.8248094 -0.278703E-06  0.320E-03    3.74       6.4  T
   5    -32.8248096 -0.205094E-06  0.947E-04    3.74      21.5  T
   6    -32.8248096 -0.906651E-08  0.440E-04    3.74      46.4  T
     SCC iter.                  ...        0 min,  0.014 sec
     gradient                   ...        0 min,  0.002 sec
 * total energy  :   -32.3999791 Eh     change       -0.1737408E-03 Eh
   gradient norm :     0.0037082 Eh/α   predicted    -0.1274710E-03 ( -26.63%)
   displ. norm   :     0.2447617 α      lambda       -0.1792426E-03
   maximum displ.:     0.1296942 α      in ANC's #9, #6, #3, ...

........................................................................
.............................. CYCLE   10 ..............................
........................................................................

 iter      E             dE          RMSdq      gap      omega  full diag
   1    -32.8234198 -0.328234E+02  0.561E-02    3.74       0.0  T
   2    -32.8234218 -0.200205E-05  0.330E-02    3.74       1.0  T
   3    -32.8234216  0.162420E-06  0.642E-03    3.74       3.2  T
   4    -32.8234219 -0.255350E-06  0.241E-03    3.74       8.5  T
   5    -32.8234220 -0.955823E-07  0.959E-04    3.74      21.3  T
   6    -32.8234220 -0.626958E-08  0.457E-04    3.74      44.6  T
     SCC iter.                  ...        0 min,  0.007 sec
     gradient                   ...        0 min,  0.002 sec
 * total energy  :   -32.4000815 Eh     change       -0.1023712E-03 Eh
   gradient norm :     0.0061439 Eh/α   predicted    -0.9500315E-04 (  -7.20%)
   displ. norm   :     0.1696016 α      lambda       -0.2154341E-03
   maximum displ.:     0.0963524 α      in ANC's #6, #4, #5, ...

........................................................................
.............................. CYCLE   11 ..............................
........................................................................

 iter      E             dE          RMSdq      gap      omega  full diag
   1    -32.8264729 -0.328265E+02  0.501E-02    3.74       0.0  T
   2    -32.8264765 -0.360658E-05  0.288E-02    3.74       1.0  T
   3    -32.8264760  0.571790E-06  0.932E-03    3.74       2.2  T
   4    -32.8264764 -0.379783E-06  0.485E-03    3.74       4.2  T
   5    -32.8264768 -0.458161E-06  0.964E-04    3.74      21.2  T
   6    -32.8264768 -0.164282E-08  0.518E-04    3.74      39.4  T
     SCC iter.                  ...        0 min,  0.012 sec
     gradient                   ...        0 min,  0.002 sec
 * total energy  :   -32.4001531 Eh     change       -0.7162716E-04 Eh
   gradient norm :     0.0067150 Eh/α   predicted    -0.1108289E-03 (  54.73%)
   displ. norm   :     0.0845835 α      lambda       -0.8750852E-04
   maximum displ.:     0.0603955 α      in ANC's #9, #6, #4, ...

........................................................................
.............................. CYCLE   12 ..............................
........................................................................

 iter      E             dE          RMSdq      gap      omega  full diag
   1    -32.8251081 -0.328251E+02  0.238E-02    3.74       0.0  T
   2    -32.8251090 -0.875570E-06  0.137E-02    3.74       1.5  T
   3    -32.8251089  0.950471E-07  0.466E-03    3.74       4.4  T
   4    -32.8251090 -0.859049E-07  0.199E-03    3.74      10.3  T
   5    -32.8251090 -0.779767E-07  0.539E-04    3.74      37.9  T
   6    -32.8251090 -0.181105E-08  0.267E-04    3.74      76.4  T
     SCC iter.                  ...        0 min,  0.010 sec
     gradient                   ...        0 min,  0.005 sec
 * total energy  :   -32.4002128 Eh     change       -0.5965852E-04 Eh
   gradient norm :     0.0043975 Eh/α   predicted    -0.4407951E-04 ( -26.11%)
   displ. norm   :     0.0861903 α      lambda       -0.7353552E-04
   maximum displ.:     0.0583954 α      in ANC's #3, #9, #6, ...

........................................................................
.............................. CYCLE   13 ..............................
........................................................................

 iter      E             dE          RMSdq      gap      omega  full diag
   1    -32.8250911 -0.328251E+02  0.239E-02    3.74       0.0  T
   2    -32.8250933 -0.219589E-05  0.131E-02    3.74       1.6  T
   3    -32.8250933 -0.940019E-08  0.623E-03    3.74       3.3  T
   4    -32.8250933 -0.213767E-07  0.240E-03    3.74       8.5  T
   5    -32.8250934 -0.104853E-06  0.688E-04    3.74      29.7  T
   6    -32.8250935 -0.658478E-08  0.272E-04    3.74      75.1  T
     SCC iter.                  ...        0 min,  0.008 sec
     gradient                   ...        0 min,  0.002 sec
 * total energy  :   -32.4002640 Eh     change       -0.5119062E-04 Eh
   gradient norm :     0.0027984 Eh/α   predicted    -0.3704910E-04 ( -27.63%)
   displ. norm   :     0.1033761 α      lambda       -0.4752400E-04
   maximum displ.:     0.0581837 α      in ANC's #3, #9, #6, ...

........................................................................
.............................. CYCLE   14 ..............................
........................................................................

 iter      E             dE          RMSdq      gap      omega  full diag
   1    -32.8246228 -0.328246E+02  0.225E-02    3.74       0.0  T
   2    -32.8246236 -0.794451E-06  0.129E-02    3.74       1.6  T
   3    -32.8246236  0.149568E-07  0.423E-03    3.74       4.8  T
   4    -32.8246237 -0.566070E-07  0.714E-04    3.74      28.6  T
   5    -32.8246237 -0.669740E-08  0.326E-04    3.74      62.6  T
     SCC iter.                  ...        0 min,  0.004 sec
     gradient                   ...        0 min,  0.002 sec
 * total energy  :   -32.4002963 Eh     change       -0.3234305E-04 Eh
   gradient norm :     0.0028218 Eh/α   predicted    -0.2401680E-04 ( -25.74%)
   displ. norm   :     0.0624474 α      lambda       -0.2428946E-04
   maximum displ.:     0.0371925 α      in ANC's #3, #9, #6, ...

........................................................................
.............................. CYCLE   15 ..............................
........................................................................

 iter      E             dE          RMSdq      gap      omega  full diag
   1    -32.8252545 -0.328253E+02  0.139E-02    3.74       0.0  T
   2    -32.8252546 -0.504555E-07  0.824E-03    3.74       2.5  T
   3    -32.8252544  0.156236E-06  0.303E-03    3.74       6.7  T
   4    -32.8252546 -0.177717E-06  0.459E-04    3.74      44.4  T
   5    -32.8252546 -0.180057E-08  0.216E-04    3.74      94.7  T
     SCC iter.                  ...        0 min,  0.004 sec
     gradient                   ...        0 min,  0.002 sec
 * total energy  :   -32.4003135 Eh     change       -0.1721781E-04 Eh
   gradient norm :     0.0018821 Eh/α   predicted    -0.1219693E-04 ( -29.16%)
   displ. norm   :     0.1233206 α      lambda       -0.1406754E-04
   maximum displ.:     0.0652193 α      in ANC's #9, #6, #4, ...

........................................................................
.............................. CYCLE   16 ..............................
........................................................................

 iter      E             dE          RMSdq      gap      omega  full diag
   1    -32.8249553 -0.328250E+02  0.270E-02    3.74       0.0  T
   2    -32.8249557 -0.421867E-06  0.161E-02    3.74       1.3  T
   3    -32.8249555  0.247740E-06  0.424E-03    3.74       4.8  T
   4    -32.8249557 -0.242083E-06  0.178E-03    3.74      11.5  T
   5    -32.8249558 -0.625659E-07  0.358E-04    3.74      57.0  T
   6    -32.8249558 -0.803738E-09  0.187E-04    3.74     109.1  T
     SCC iter.                  ...        0 min,  0.005 sec
     gradient                   ...        0 min,  0.005 sec
 * total energy  :   -32.4003213 Eh     change       -0.7758790E-05 Eh
   gradient norm :     0.0009132 Eh/α   predicted    -0.7081708E-05 (  -8.73%)
   displ. norm   :     0.1223455 α      lambda        0.2508196E-04
   maximum displ.:     0.0645973 α      in ANC's #9, #6, #4, ...

........................................................................
.............................. CYCLE   17 ..............................
........................................................................

 iter      E             dE          RMSdq      gap      omega  full diag
   1    -32.8241660 -0.328242E+02  0.270E-02    3.74       0.0  T
   2    -32.8241665 -0.462229E-06  0.161E-02    3.74       1.3  T
   3    -32.8241662  0.248919E-06  0.438E-03    3.74       4.7  T
   4    -32.8241665 -0.242041E-06  0.186E-03    3.74      11.0  T
   5    -32.8241665 -0.679556E-07  0.372E-04    3.74      54.8  T
   6    -32.8241665 -0.861696E-09  0.195E-04    3.74     104.4  T
     SCC iter.                  ...        0 min,  0.005 sec
     gradient                   ...        0 min,  0.002 sec
 * total energy  :   -32.4003018 Eh     change        0.1947364E-04 Eh
   gradient norm :     0.0024327 Eh/α   predicted     0.1262296E-04 ( -35.18%)
   displ. norm   :     0.0914501 α      lambda       -0.2940459E-04
   maximum displ.:     0.0493746 α      in ANC's #9, #6, #4, ...

........................................................................
.............................. CYCLE   18 ..............................
........................................................................

 iter      E             dE          RMSdq      gap      omega  full diag
   1    -32.8253825 -0.328254E+02  0.207E-02    3.74       0.0  T
   2    -32.8253828 -0.232500E-06  0.123E-02    3.74       1.7  T
   3    -32.8253826  0.108864E-06  0.294E-03    3.74       7.0  T
   4    -32.8253827 -0.106923E-06  0.132E-03    3.74      15.5  T
   5    -32.8253828 -0.327328E-07  0.304E-04    3.74      67.2  T
   6    -32.8253828 -0.395680E-09  0.160E-04    3.74     127.4  T
     SCC iter.                  ...        0 min,  0.005 sec
     gradient                   ...        0 min,  0.002 sec
 * total energy  :   -32.4003205 Eh     change       -0.1865188E-04 Eh
   gradient norm :     0.0008990 Eh/α   predicted    -0.1482790E-04 ( -20.50%)
   displ. norm   :     0.0894626 α      lambda       -0.8284092E-05
   maximum displ.:     0.0437034 α      in ANC's #3, #6, #9, ...

........................................................................
.............................. CYCLE   19 ..............................
........................................................................

 iter      E             dE          RMSdq      gap      omega  full diag
   1    -32.8251544 -0.328252E+02  0.185E-02    3.74       0.0  T
   2    -32.8251548 -0.403202E-06  0.112E-02    3.74       1.8  T
   3    -32.8251546  0.207155E-06  0.421E-03    3.74       4.9  T
   4    -32.8251548 -0.200132E-06  0.180E-03    3.74      11.4  T
   5    -32.8251549 -0.629154E-07  0.310E-04    3.74      65.9  T
   6    -32.8251549 -0.600195E-09  0.161E-04    3.74     126.7  T
     SCC iter.                  ...        0 min,  0.005 sec
     gradient                   ...        0 min,  0.002 sec
 * total energy  :   -32.4003206 Eh     change       -0.1118438E-06 Eh
   gradient norm :     0.0016446 Eh/α   predicted    -0.4160411E-05 (3619.84%)
   displ. norm   :     0.0242017 α      lambda       -0.5531296E-05
   maximum displ.:     0.0156415 α      in ANC's #3, #1, #6, ...

........................................................................
.............................. CYCLE   20 ..............................
........................................................................

 iter      E             dE          RMSdq      gap      omega  full diag
   1    -32.8256850 -0.328257E+02  0.727E-03    3.74       0.0  T
   2    -32.8256851 -0.136709E-06  0.423E-03    3.74       4.8  T
   3    -32.8256851  0.983791E-08  0.171E-03    3.74      11.9  T
   4    -32.8256851 -0.668064E-08  0.863E-04    3.74      23.7  T
   5    -32.8256851 -0.139608E-07  0.204E-04    3.74     100.0  T
     SCC iter.                  ...        0 min,  0.004 sec
     gradient                   ...        0 min,  0.002 sec
 * total energy  :   -32.4003243 Eh     change       -0.3709863E-05 Eh
   gradient norm :     0.0003232 Eh/α   predicted    -0.2770858E-05 ( -25.31%)
   displ. norm   :     0.0188721 α      lambda       -0.6244398E-06
   maximum displ.:     0.0105111 α      in ANC's #9, #6, #1, ...

   *** GEOMETRY OPTIMIZATION CONVERGED AFTER 20 ITERATIONS ***

------------------------------------------------------------------------
 total energy gain   :        -0.0232619 Eh      -14.5970 kcal/mol
 total RMSD          :         0.4643045 a0        0.2457 Å
 total power (kW/mol):        -3.0536995 (step) -239.9603 (real)
------------------------------------------------------------------------

 ANCopt (total)                0 d,  0 h,  0 min,  0.255 sec
 optimizer setup                ...        0 min,  0.000 sec (  0.046%)
 model hessian                  ...        0 min,  0.012 sec (  4.643%)
 ANC generation                 ...        0 min,  0.001 sec (  0.288%)
 coordinate transformation      ...        0 min,  0.000 sec (  0.064%)
 single point calculation       ...        0 min,  0.227 sec ( 89.298%)
 optimization log               ...        0 min,  0.005 sec (  1.978%)
 hessian update                 ...        0 min,  0.007 sec (  2.814%)
 rational function              ...        0 min,  0.001 sec (  0.552%)

================
 final structure:
================
24
 xtb: 6.7.1 (edcfbbe)
C            2.49685864079034        1.27795176982573        0.34955154374170
C            2.30239312719140       -0.04764779904930       -0.31275714996264
C            3.28622768195374       -0.77551131870073       -0.82991741422724
C            0.91080309459131       -0.58358806571791       -0.39600011128695
O            0.63811411808122       -1.65690526366467       -0.88019997669926
O            0.03601157545247        0.27308020063382        0.12705974186616
C           -1.38142304587250       -0.02049361889106        0.16276122962262
C           -1.92213933468864       -0.19492521663683       -1.25610925223453
C           -1.99953023441036        1.21245865670083        0.82374689209479
C           -1.63994480399987       -1.26804863508746        1.00696011305587
H            1.91172427422700        2.04165012941407       -0.15930352304268
H            3.54602937152944        1.56099911034387        0.33540186797977
H            2.15127043676895        1.23529860260294        1.38077284394104
H            4.31266252674149       -0.45156616881755       -0.80650562547144
H            3.07529565424255       -1.72433468616764       -1.29331076634890
H           -3.00105719789846       -0.31718450889437       -1.22308100192040
H           -1.48153302629590       -1.07127516957617       -1.72313175930637
H           -1.68432554024792        0.68038398727513       -1.85710356413459
H           -3.07547144503748        1.09120183269674        0.90497849354469
H           -1.58207016728964        1.35184989055191        1.81744607631667
H           -1.78616264622059        2.09932993557380        0.23275893078658
H           -1.21857029160592       -1.14026893051411        2.00181452564347
H           -1.18536967082821       -2.13849281125521        0.54248404093057
H           -2.70979409717456       -1.43395992264570        1.09605184511126
 
 Bond Distances (Angstroems)
 ---------------------------
C1-C2=1.4946         C1-H11=1.0884        C1-H12=1.0868        C1-H13=1.0884        C2-C1=1.4946         C2-C3=1.3286         
C2-C4=1.4935         C3-C2=1.3286         C3-H14=1.0766        C3-H15=1.0768        C4-C2=1.4935         C4-O5=1.2086         
C4-O6=1.3314         O5-C4=1.2086         O6-C4=1.3314         O6-C7=1.4480         C7-O6=1.4480         C7-C8=1.5284         
C7-C9=1.5294         C7-C10=1.5284        C8-C7=1.5284         C8-H16=1.0863        C8-H17=1.0864        C8-H18=1.0881        
C9-C7=1.5294         C9-H19=1.0858        C9-H20=1.0868        C9-H21=1.0869        C10-C7=1.5284        C10-H22=1.0879       
C10-H23=1.0863       C10-H24=1.0863       H11-C1=1.0884        H12-C1=1.0868        H13-C1=1.0884        H14-C3=1.0766        
H15-C3=1.0768        H16-C8=1.0863        H17-C8=1.0864        H18-C8=1.0881        H19-C9=1.0858        H20-C9=1.0868        
H21-C9=1.0869        H22-C10=1.0879       H23-C10=1.0863       H24-C10=1.0863       
 C  H  Rav=1.0856 sigma=0.0037  Rmin=1.0766  Rmax=1.0884    14
 C  C  Rav=1.4838 sigma=0.0711  Rmin=1.3286  Rmax=1.5294     6
 O  C  Rav=1.3293 sigma=0.0977  Rmin=1.2086  Rmax=1.4480     3
 
 selected bond angles (degree)
 --------------------
H11-C1-C2=110.20               H12-C1-C2=110.54               H12-C1-H11=109.28              H13-C1-C2=110.11               
H13-C1-H11=107.44              H13-C1-H12=109.21              C3-C2-C1=124.20                C4-C2-C1=117.66                
C4-C2-C3=118.14                H14-C3-C2=122.19               H15-C3-C2=120.34               H15-C3-H14=117.47              
O5-C4-C2=123.45                O6-C4-C2=111.06                O6-C4-O5=125.49                C7-O6-C4=121.49                
C8-C7-O6=110.28                C9-C7-O6=104.05                C9-C7-C8=110.50                C10-C7-O6=110.16               
C10-C7-C8=111.09               C10-C7-C9=110.55               H16-C8-C7=109.63               H17-C8-C7=110.34               
H17-C8-H16=108.97              H18-C8-C7=110.10               H18-C8-H16=108.93              H18-C8-H17=108.83              
H19-C9-C7=110.05               H20-C9-C7=110.08               H20-C9-H19=109.06              H21-C9-C7=110.09               
H21-C9-H19=109.05              H21-C9-H20=108.49              H22-C10-C7=110.10              H23-C10-C7=110.31              
H23-C10-H22=108.85             H24-C10-C7=109.67              H24-C10-H22=108.93             H24-C10-H23=108.95             
 
 selected dihedral angles (degree)
 ---------------------------------
C3-C2-C1-H11=121.58           C3-C2-C1-H12=  0.68           C3-C2-C1-H13=239.93           C4-C2-C1-H11=301.59           
C4-C2-C1-H12=180.69           C4-C2-C1-H13= 59.94           H14-C3-C2-C1=359.96           H14-C3-C2-C4=179.95           
H15-C3-C2-C1=179.97           H15-C3-C2-C4=359.96           O5-C4-C2-C1=181.79            O5-C4-C2-C3=  1.80            
O6-C4-C2-C1=  1.85            O6-C4-C2-C3=181.86            C7-O6-C4-C2=179.95            C7-O6-C4-O5=  0.00            
C8-C7-O6-C4=298.92            C9-C7-O6-C4=180.40            C10-C7-O6-C4= 61.89           H16-C8-C7-O6=185.54           
H16-C8-C7-C9=300.03           H16-C8-C7-C10= 63.10          H17-C8-C7-O6= 65.51           H17-C8-C7-C9=180.00           
H17-C8-C7-C10=303.08          H18-C8-C7-O6=305.36           H18-C8-C7-C9= 59.85           H18-C8-C7-C10=182.93          
H19-C9-C7-O6=180.30           H19-C9-C7-C8= 61.94           H19-C9-C7-C10=298.55          H20-C9-C7-O6=300.53           
H20-C9-C7-C8=182.17           H20-C9-C7-C10= 58.78          H21-C9-C7-O6= 60.08           H21-C9-C7-C8=301.72           
H21-C9-C7-C10=178.33          H22-C10-C7-O6= 55.53          H22-C10-C7-C8=178.03          H22-C10-C7-C9=301.08          
H23-C10-C7-O6=295.38          H23-C10-C7-C8= 57.88          H23-C10-C7-C9=180.93          H24-C10-C7-O6=175.38          
H24-C10-C7-C8=297.88          H24-C10-C7-C9= 60.93          
           -------------------------------------------------
          |                Final Singlepoint                |
           -------------------------------------------------

          ...................................................
          :                      SETUP                      :
          :.................................................:
          :  # basis functions                  54          :
          :  # atomic orbitals                  54          :
          :  # shells                           34          :
          :  # electrons                        58          :
          :  max. iterations                   250          :
          :  Hamiltonian                  GFN2-xTB          :
          :  restarted?                      false          :
          :  GBSA solvation                  false          :
          :  PC potential                    false          :
          :  electronic temp.          300.0000000     K    :
          :  accuracy                    1.0000000          :
          :  -> integral cutoff          0.2500000E+02      :
          :  -> integral neglect         0.1000000E-07      :
          :  -> SCF convergence          0.1000000E-05 Eh   :
          :  -> wf. convergence          0.1000000E-03 e    :
          :  Broyden damping             0.4000000          :
          :  net charge                          0          :
          :  unpaired electrons                  0          :
          ...................................................

 iter      E             dE          RMSdq      gap      omega  full diag
   1    -32.8256851 -0.328257E+02  0.103E-04    3.74       0.0  T
   2    -32.8256851 -0.159091E-10  0.599E-05    3.74     340.8  T
   3    -32.8256851  0.405009E-11  0.315E-05    3.74     648.3  T

   *** convergence criteria satisfied after 3 iterations ***

         #    Occupation            Energy/Eh            Energy/eV
      -------------------------------------------------------------
         1        2.0000           -0.7303439             -19.8737
       ...           ...                  ...                  ...
        23        2.0000           -0.4617827             -12.5657
        24        2.0000           -0.4552212             -12.3872
        25        2.0000           -0.4500210             -12.2457
        26        2.0000           -0.4386986             -11.9376
        27        2.0000           -0.4298943             -11.6980
        28        2.0000           -0.4125993             -11.2274
        29        2.0000           -0.3983708             -10.8402 (HOMO)
        30                         -0.2609389              -7.1005 (LUMO)
        31                         -0.1558105              -4.2398
        32                         -0.0144137              -0.3922
        33                          0.0804362               2.1888
        34                          0.0906640               2.4671
       ...                                ...                  ...
        54                          0.7104616              19.3326
      -------------------------------------------------------------
                  HL-Gap            0.1374318 Eh            3.7397 eV
             Fermi-level           -0.3296548 Eh           -8.9704 eV

 SCC (total)                   0 d,  0 h,  0 min,  0.005 sec
 SCC setup                      ...        0 min,  0.000 sec (  2.033%)
 Dispersion                     ...        0 min,  0.000 sec (  2.211%)
 classical contributions        ...        0 min,  0.000 sec (  0.723%)
 integral evaluation            ...        0 min,  0.001 sec ( 10.177%)
 iterations                     ...        0 min,  0.002 sec ( 47.283%)
 molecular gradient             ...        0 min,  0.002 sec ( 35.073%)
 printout                       ...        0 min,  0.000 sec (  1.838%)

         :::::::::::::::::::::::::::::::::::::::::::::::::::::
         ::                     SUMMARY                     ::
         :::::::::::::::::::::::::::::::::::::::::::::::::::::
         :: total energy             -32.400324282283 Eh    ::
         :: gradient norm              0.000323103001 Eh/a0 ::
         :: HOMO-LUMO gap              3.739710493814 eV    ::
         ::.................................................::
         :: SCC energy               -32.825554123114 Eh    ::
         :: -> isotropic ES            0.050116137626 Eh    ::
         :: -> anisotropic ES          0.003027121763 Eh    ::
         :: -> anisotropic XC          0.011975829739 Eh    ::
         :: -> dispersion             -0.017370224981 Eh    ::
         :: repulsion energy           0.425229840831 Eh    ::
         :: add. restraining           0.000000000000 Eh    ::
         :: total charge              -0.000000000000 e     ::
         :::::::::::::::::::::::::::::::::::::::::::::::::::::

           -------------------------------------------------
          |                Property Printout                |
           -------------------------------------------------

    * Orbital Energies and Occupations

         #    Occupation            Energy/Eh            Energy/eV
      -------------------------------------------------------------
         1        2.0000           -0.7303439             -19.8737
       ...           ...                  ...                  ...
        17        2.0000           -0.4892908             -13.3143
        18        2.0000           -0.4866029             -13.2411
        19        2.0000           -0.4737252             -12.8907
        20        2.0000           -0.4723153             -12.8524
        21        2.0000           -0.4703627             -12.7992
        22        2.0000           -0.4621408             -12.5755
        23        2.0000           -0.4617827             -12.5657
        24        2.0000           -0.4552212             -12.3872
        25        2.0000           -0.4500210             -12.2457
        26        2.0000           -0.4386986             -11.9376
        27        2.0000           -0.4298943             -11.6980
        28        2.0000           -0.4125993             -11.2274
        29        2.0000           -0.3983708             -10.8402 (HOMO)
        30                         -0.2609389              -7.1005 (LUMO)
        31                         -0.1558105              -4.2398
        32                         -0.0144137              -0.3922
        33                          0.0804362               2.1888
        34                          0.0906640               2.4671
        35                          0.1043840               2.8404
        36                          0.1056264               2.8742
        37                          0.1346294               3.6635
        38                          0.1469806               3.9995
        39                          0.1738759               4.7314
        40                          0.1856196               5.0510
       ...                                ...                  ...
        54                          0.7104616              19.3326
      -------------------------------------------------------------
                  HL-Gap            0.1374318 Eh            3.7397 eV
             Fermi-level           -0.3296548 Eh           -8.9704 eV

     #   Z          covCN         q      C6AA      α(0)
     1   6 C        3.757    -0.110    22.646     6.785
     2   6 C        2.938    -0.011    28.284     8.722
     3   6 C        2.849    -0.079    29.970     8.972
     4   6 C        2.713     0.355    20.967     7.495
     5   8 O        0.856    -0.428    22.240     6.323
     6   8 O        1.704    -0.273    18.529     5.812
     7   6 C        3.781     0.154    18.128     6.065
     8   6 C        3.756    -0.118    22.814     6.810
     9   6 C        3.757    -0.118    22.810     6.809
    10   6 C        3.756    -0.118    22.812     6.810
    11   1 H        0.925     0.059     2.210     2.325
    12   1 H        0.925     0.049     2.337     2.391
    13   1 H        0.925     0.058     2.221     2.331
    14   1 H        0.926     0.053     2.280     2.361
    15   1 H        0.926     0.069     2.096     2.264
    16   1 H        0.925     0.044     2.402     2.424
    17   1 H        0.925     0.067     2.117     2.275
    18   1 H        0.925     0.042     2.419     2.432
    19   1 H        0.925     0.048     2.347     2.396
    20   1 H        0.925     0.051     2.302     2.373
    21   1 H        0.925     0.051     2.305     2.374
    22   1 H        0.925     0.042     2.419     2.432
    23   1 H        0.925     0.067     2.122     2.278
    24   1 H        0.925     0.044     2.400     2.423

 Mol. C6AA /au·bohr⁶  :       4722.418090
 Mol. C8AA /au·bohr⁸  :     103380.854326
 Mol. α(0) /au        :        103.682382


Wiberg/Mayer (AO) data.
largest (>0.10) Wiberg bond orders for each atom

 ---------------------------------------------------------------------------
     #   Z sym  total        # sym  WBO       # sym  WBO       # sym  WBO
 ---------------------------------------------------------------------------
     1   6 C    3.995 --     2 C    1.030    12 H    0.984    11 H    0.969
                            13 H    0.969
     2   6 C    3.985 --     3 C    1.881     1 C    1.030     4 C    0.986
     3   6 C    3.987 --     2 C    1.881    14 H    0.975    15 H    0.971
     4   6 C    3.919 --     5 O    1.710     6 O    1.145     2 C    0.986
     5   8 O    2.023 --     4 C    1.710     6 O    0.174
     6   8 O    2.314 --     4 C    1.145     7 C    0.902     5 O    0.174
     7   6 C    3.923 --     9 C    0.995     8 C    0.994    10 C    0.994
                             6 O    0.902
     8   6 C    3.993 --     7 C    0.994    18 H    0.985    16 H    0.984
                            17 H    0.980
     9   6 C    3.994 --     7 C    0.995    21 H    0.985    20 H    0.985
                            19 H    0.984
    10   6 C    3.993 --     7 C    0.994    22 H    0.985    24 H    0.984
                            23 H    0.980
    11   1 H    0.997 --     1 C    0.969
    12   1 H    0.998 --     1 C    0.984
    13   1 H    0.997 --     1 C    0.969
    14   1 H    0.996 --     3 C    0.975
    15   1 H    0.995 --     3 C    0.971
    16   1 H    0.998 --     8 C    0.984
    17   1 H    0.995 --     8 C    0.980
    18   1 H    0.998 --     8 C    0.985
    19   1 H    0.997 --     9 C    0.984
    20   1 H    0.997 --     9 C    0.985
    21   1 H    0.997 --     9 C    0.985
    22   1 H    0.998 --    10 C    0.985
    23   1 H    0.996 --    10 C    0.980
    24   1 H    0.998 --    10 C    0.984
 ---------------------------------------------------------------------------

Topologies differ in total number of bonds
Writing topology from bond orders to xtbtopo.mol

molecular dipole:
                 x           y           z       tot (Debye)
 q only:       -0.175       0.791       0.405
   full:       -0.171       0.878       0.446       2.540
molecular quadrupole (traceless):
                xx          xy          yy          xz          yz          zz
 q only:        7.323       1.788      -4.922      -0.289      -1.742      -2.401
  q+dip:        8.199       1.991      -5.853      -0.287      -2.326      -2.347
   full:        7.549       1.970      -6.121      -0.018      -3.151      -1.429

           -------------------------------------------------
          |                Geometry Summary                 |
           -------------------------------------------------

      molecular mass/u    :      142.1958675
   center of mass at/Å    :        0.2299474      -0.1768302      -0.1140443
  moments of inertia/u·Å² :        0.2143854E+03   0.5796695E+03   0.6797137E+03
rotational constants/cm⁻¹ :        0.7863237E-01   0.2908146E-01   0.2480108E-01

 * 20 selected distances

     #   Z          #   Z                                           value/Å
     2   6 C        3   6 C                                       1.3285973
     4   6 C        5   8 O                                       1.2086434
     4   6 C        6   8 O                                       1.3314401
     7   6 C        8   6 C                                       1.5283960
     7   6 C        9   6 C                                       1.5294216 (max)
     7   6 C       10   6 C                                       1.5283649
     1   6 C       11   1 H                                       1.0883709
     1   6 C       12   1 H                                       1.0867730
     1   6 C       13   1 H                                       1.0884246
     3   6 C       14   1 H                                       1.0765952 (min)
     3   6 C       15   1 H                                       1.0767970
     8   6 C       16   1 H                                       1.0863251
     8   6 C       17   1 H                                       1.0863855
     8   6 C       18   1 H                                       1.0880790
     9   6 C       19   1 H                                       1.0857953
     9   6 C       20   1 H                                       1.0868032
     9   6 C       21   1 H                                       1.0868916
    10   6 C       22   1 H                                       1.0879429
    10   6 C       23   1 H                                       1.0863010
    10   6 C       24   1 H                                       1.0862972

 * 3 distinct bonds (by element types)

   Z      Z             #   av. dist./Å        max./Å        min./Å
   1 H    6 C          14     1.0855558     1.0884246     1.0765952
   6 C    6 C           4     1.4786949     1.5294216     1.3285973
   6 C    8 O           2     1.2700417     1.3314401     1.2086434


optimized geometry written to: xtbopt.xyz


           -------------------------------------------------
          | TOTAL ENERGY              -32.400324282283 Eh   |
          | GRADIENT NORM               0.000323103001 Eh/α |
          | HOMO-LUMO GAP               3.739710493814 eV   |
           -------------------------------------------------
########################################################################
[WARNING] Runtime exception occurred
-2- restart_readRestart: Dimension missmatch in restart file.
-1- restart_readRestart: Number of electron missmatch in restart file.
########################################################################

------------------------------------------------------------------------
 * finished run on 2025/12/01 at 14:23:06.042     
------------------------------------------------------------------------
 total:
 * wall-time:     0 d,  0 h,  0 min,  0.287 sec
 *  cpu-time:     0 d,  0 h,  0 min,  6.492 sec
 * ratio c/w:    22.593 speedup
 SCF:
 * wall-time:     0 d,  0 h,  0 min,  0.020 sec
 *  cpu-time:     0 d,  0 h,  0 min,  0.453 sec
 * ratio c/w:    22.676 speedup
 ANC optimizer:
 * wall-time:     0 d,  0 h,  0 min,  0.261 sec
 *  cpu-time:     0 d,  0 h,  0 min,  5.918 sec
 * ratio c/w:    22.703 speedup

normal termination of xtb
