      -----------------------------------------------------------      
     |                   =====================                   |     
     |                           x T B                           |     
     |                   =====================                   |     
     |                         S. Grimme                         |     
     |          Mulliken Center for Theoretical Chemistry        |     
     |                    University of Bonn                     |     
      -----------------------------------------------------------      

   * xtb version 6.7.1 (edcfbbe) compiled by 'albert@albert-system' on 2024-07-22

   xtb is free software: you can redistribute it and/or modify it under
   the terms of the GNU Lesser General Public License as published by
   the Free Software Foundation, either version 3 of the License, or
   (at your option) any later version.
   
   xtb is distributed in the hope that it will be useful,
   but WITHOUT ANY WARRANTY; without even the implied warranty of
   MERCHANTABILITY or FITNESS FOR A PARTICULAR PURPOSE.  See the
   GNU Lesser General Public License for more details.
   
   Cite this work as:
   * C. Bannwarth, E. Caldeweyher, S. Ehlert, A. Hansen, P. Pracht,
     J. Seibert, S. Spicher, S. Grimme, WIREs Comput. Mol. Sci., 2020, 11,
     e01493. DOI: 10.1002/wcms.1493
   
   for GFN2-xTB:
   * C. Bannwarth, S. Ehlert and S. Grimme., J. Chem. Theory Comput., 2019,
     15, 1652-1671. DOI: 10.1021/acs.jctc.8b01176
   for GFN1-xTB:
   * S. Grimme, C. Bannwarth, P. Shushkov, J. Chem. Theory Comput., 2017,
     13, 1989-2009. DOI: 10.1021/acs.jctc.7b00118
   for GFN0-xTB:
   * P. Pracht, E. Caldeweyher, S. Ehlert, S. Grimme, ChemRxiv, 2019, preprint.
     DOI: 10.26434/chemrxiv.8326202.v1
   for GFN-FF:
   * S. Spicher and S. Grimme, Angew. Chem. Int. Ed., 2020, 59, 15665-15673.
     DOI: 10.1002/anie.202004239
   
   for ALPB and GBSA implicit solvation:
   * S. Ehlert, M. Stahn, S. Spicher, S. Grimme, J. Chem. Theory Comput.,
     2021, 17, 4250-4261. DOI: 10.1021/acs.jctc.1c00471
   
   for ddCOSMO and CPCM-X implicit solvation:
   * M. Stahn, S. Ehlert, S. Grimme, J. Phys. Chem. A,
     2023, XX, XXXX-XXXX. DOI: 10.1021/acs.jpca.3c04382
   
   for DFT-D4:
   * E. Caldeweyher, C. Bannwarth and S. Grimme, J. Chem. Phys., 2017,
     147, 034112. DOI: 10.1063/1.4993215
   * E. Caldeweyher, S. Ehlert, A. Hansen, H. Neugebauer, S. Spicher,
     C. Bannwarth and S. Grimme, J. Chem. Phys., 2019, 150, 154122.
     DOI: 10.1063/1.5090222
   * E. Caldeweyher, J.-M. Mewes, S. Ehlert and S. Grimme, Phys. Chem. Chem. Phys.
     2020, 22, 8499-8512. DOI: 10.1039/D0CP00502A
   
   for sTDA-xTB:
   * S. Grimme and C. Bannwarth, J. Chem. Phys., 2016, 145, 054103.
     DOI: 10.1063/1.4959605
   
   in the mass-spec context:
   * V. Asgeirsson, C. Bauer and S. Grimme, Chem. Sci., 2017, 8, 4879.
     DOI: 10.1039/c7sc00601b
   * J. Koopman and S. Grimme, ACS Omega 2019, 4, 12, 15120-15133.
     DOI: 10.1021/acsomega.9b02011
   
   for metadynamics refer to:
   * S. Grimme, J. Chem. Theory Comput., 2019, 155, 2847-2862
     DOI: 10.1021/acs.jctc.9b00143
   
   for SPH calculations refer to:
   * S. Spicher and S. Grimme, J. Chem. Theory Comput., 2021, 17, 1701-1714
     DOI: 10.1021/acs.jctc.0c01306
   
   for ONIOM refer to:
   * C. Plett, A. Katbashev, S. Ehlert, S. Grimme, M. Bursch,
     Phys. Chem. Chem. Phys., 2023, 25, 17860-17868. DOI: 10.1039/D3CP02178E
   
   for DIPRO refer to:
   * J. Kohn, N. Gildemeister, S. Grimme, D. Fazzi, A. Hansen,
     J. Chem. Phys., 2023, just accepted.
   
   for PTB refer to:
   * S. Grimme, M. Mueller, A. Hansen, J. Chem. Phys., 2023, 158, 124111.
     DOI: 10.1063/5.0137838
   
   with help from (in alphabetical order)
   P. Atkinson, C. Bannwarth, F. Bohle, G. Brandenburg, E. Caldeweyher
   M. Checinski, S. Dohm, S. Ehlert, S. Ehrlich, I. Gerasimov, C. Hölzer
   A. Katbashev, J. Kohn, J. Koopman, C. Lavigne, S. Lehtola, F. März, M. Müller,
   F. Musil, H. Neugebauer, J. Pisarek, C. Plett, P. Pracht, F. Pultar,
   J. Seibert, P. Shushkov, S. Spicher, M. Stahn, M. Steiner, T. Strunk,
   J. Stückrath, T. Rose, and J. Unsleber
   
 * started run on 2025/12/01 at 14:23:06.893     
   ID    Z sym.   atoms
    1    6 C      1, 2, 4, 6-8
    2    8 O      3, 5
    3    1 H      9-18

           -------------------------------------------------
          |                Calculation Setup                |
           -------------------------------------------------

          program call               : xtb pipeline_data/3_conformer_xyz/acrylates/rdkit/SUPCQIBBMFXVTL-UHFFFAOYSA-N_conf249.xyz --opt --gfn 2-xTB --iterations 250
          coordinate file            : pipeline_data/3_conformer_xyz/acrylates/rdkit/SUPCQIBBMFXVTL-UHFFFAOYSA-N_conf249.xyz
          omp threads                :                    24

########################################################################
[WARNING] Please study the warnings concerning your input carefully
-1- readin_getIntValue: could not parse '2-xTB'
########################################################################

           -------------------------------------------------
          |                 G F N 2 - x T B                 |
           -------------------------------------------------

        Reference                      10.1021/acs.jctc.8b01176
      * Hamiltonian:
        H0-scaling (s, p, d)           1.850000    2.230000    2.230000
        zeta-weighting                 0.500000
      * Dispersion:
        s8                             2.700000
        a1                             0.520000
        a2                             5.000000
        s9                             5.000000
      * Repulsion:
        kExp                           1.500000    1.000000
        rExp                           1.000000
      * Coulomb:
        alpha                          2.000000
        third order                    shell-resolved
        anisotropic                    true
        a3                             3.000000
        a5                             4.000000
        cn-shift                       1.200000
        cn-exp                         4.000000
        max-rad                        5.000000

q/qsh data taken from xtbrestart
CAMM data taken from xtbrestart

          ...................................................
          :                      SETUP                      :
          :.................................................:
          :  # basis functions                  42          :
          :  # atomic orbitals                  42          :
          :  # shells                           26          :
          :  # electrons                        46          :
          :  max. iterations                   250          :
          :  Hamiltonian                  GFN2-xTB          :
          :  restarted?                       true          :
          :  GBSA solvation                  false          :
          :  PC potential                    false          :
          :  electronic temp.          300.0000000     K    :
          :  accuracy                    1.0000000          :
          :  -> integral cutoff          0.2500000E+02      :
          :  -> integral neglect         0.1000000E-07      :
          :  -> SCF convergence          0.1000000E-05 Eh   :
          :  -> wf. convergence          0.1000000E-03 e    :
          :  Broyden damping             0.4000000          :
          :  net charge                          0          :
          :  unpaired electrons                  0          :
          ...................................................

 iter      E             dE          RMSdq      gap      omega  full diag
   1    -26.3345234 -0.263345E+02  0.278E+00    3.50       0.0  T
   2    -26.3382565 -0.373304E-02  0.164E+00    3.41       1.0  T
   3    -26.3364886  0.176792E-02  0.447E-01    3.42       1.0  T
   4    -26.3387412 -0.225264E-02  0.194E-01    3.38       1.0  T
   5    -26.3391000 -0.358793E-03  0.759E-02    3.41       1.0  T
   6    -26.3391035 -0.348532E-05  0.371E-02    3.39       1.0  T
   7    -26.3391119 -0.844154E-05  0.943E-03    3.40       2.5  T
   8    -26.3391122 -0.239852E-06  0.427E-03    3.40       5.5  T
   9    -26.3391122 -0.363276E-07  0.135E-03    3.40      17.5  T
  10    -26.3391122 -0.257430E-08  0.461E-04    3.40      51.2  T
  11    -26.3391122 -0.476653E-09  0.128E-04    3.40     184.8  T

   *** convergence criteria satisfied after 11 iterations ***

         #    Occupation            Energy/Eh            Energy/eV
      -------------------------------------------------------------
         1        2.0000           -0.7263512             -19.7650
       ...           ...                  ...                  ...
        17        2.0000           -0.4688931             -12.7592
        18        2.0000           -0.4662654             -12.6877
        19        2.0000           -0.4587256             -12.4826
        20        2.0000           -0.4500585             -12.2467
        21        2.0000           -0.4304931             -11.7143
        22        2.0000           -0.4212373             -11.4625
        23        2.0000           -0.4095476             -11.1444 (HOMO)
        24                         -0.2845080              -7.7419 (LUMO)
        25                         -0.1684039              -4.5825
        26                         -0.0251574              -0.6846
        27                          0.0892197               2.4278
        28                          0.1014350               2.7602
       ...                                ...                  ...
        42                          0.6293402              17.1252
      -------------------------------------------------------------
                  HL-Gap            0.1250396 Eh            3.4025 eV
             Fermi-level           -0.3470278 Eh           -9.4431 eV

 SCC (total)                   0 d,  0 h,  0 min,  0.018 sec
 SCC setup                      ...        0 min,  0.000 sec (  1.099%)
 Dispersion                     ...        0 min,  0.000 sec (  0.755%)
 classical contributions        ...        0 min,  0.000 sec (  0.257%)
 integral evaluation            ...        0 min,  0.000 sec (  2.570%)
 iterations                     ...        0 min,  0.015 sec ( 84.687%)
 molecular gradient             ...        0 min,  0.002 sec (  9.925%)
 printout                       ...        0 min,  0.000 sec (  0.563%)

         :::::::::::::::::::::::::::::::::::::::::::::::::::::
         ::                     SUMMARY                     ::
         :::::::::::::::::::::::::::::::::::::::::::::::::::::
         :: total energy             -26.041904847876 Eh    ::
         :: gradient norm              0.147064680640 Eh/a0 ::
         :: HOMO-LUMO gap              3.402500255020 eV    ::
         ::.................................................::
         :: SCC energy               -26.339108458873 Eh    ::
         :: -> isotropic ES            0.050331986311 Eh    ::
         :: -> anisotropic ES          0.000934505203 Eh    ::
         :: -> anisotropic XC          0.009384565028 Eh    ::
         :: -> dispersion             -0.010592274424 Eh    ::
         :: repulsion energy           0.297203610997 Eh    ::
         :: add. restraining           0.000000000000 Eh    ::
         :: total charge              -0.000000000000 e     ::
         :::::::::::::::::::::::::::::::::::::::::::::::::::::

      ----------------------------------------------------------- 
     |                   =====================                   |
     |                        A N C O P T                        |
     |                   =====================                   |
     |               Approximate Normal Coordinate               |
     |                Rational Function Optimizer                |
      ----------------------------------------------------------- 
      ----------------------------------------------------------- 
     |                   =====================                   |
     |                        A N C O P T                        |
     |                   =====================                   |
     |               Approximate Normal Coordinate               |
     |                Rational Function Optimizer                |
      ----------------------------------------------------------- 

          ...................................................
          :                      SETUP                      :
          :.................................................:
          :   optimization level            normal          :
          :   max. optcycles                   200          :
          :   ANC micro-cycles                  20          :
          :   degrees of freedom                48          :
          :.................................................:
          :   RF solver                   davidson          :
          :   write xtbopt.log                true          :
          :   linear?                        false          :
          :   energy convergence         0.5000000E-05 Eh   :
          :   grad. convergence          0.1000000E-02 Eh/α :
          :   maxmium RF displ.          1.0000000          :
          :   Hlow (freq-cutoff)         0.1000000E-01      :
          :   Hmax (freq-cutoff)         5.0000000          :
          :   S6 in model hess.         20.0000000          :
          ...................................................

generating ANC from exact Hessian ...
Using Lindh-Hessian (1995)
 Shifting diagonal of input Hessian by   8.536845608446347E-003
 Lowest  eigenvalues of input Hessian
    0.000000    0.000000    0.000000    0.000000    0.000000    0.000000
    0.010000    0.011078    0.012147    0.016996    0.018349    0.021241
    0.022167    0.026725    0.028034    0.035449    0.040737    0.049776
 Highest eigenvalues
    1.199094    1.260639    1.503515    1.813726    1.872736    2.111765
 

........................................................................
.............................. CYCLE    1 ..............................
........................................................................

 iter      E             dE          RMSdq      gap      omega  full diag
   1    -26.3391122 -0.263391E+02  0.292E-05    3.40       0.0  T
   2    -26.3391122 -0.763833E-12  0.184E-05    3.40    1279.9  T
   3    -26.3391122  0.568434E-12  0.107E-05    3.40    2206.3  T
     SCC iter.                  ...        0 min,  0.002 sec
     gradient                   ...        0 min,  0.002 sec
 * total energy  :   -26.0419048 Eh     change       -0.3159784E-10 Eh
   gradient norm :     0.1470655 Eh/α   predicted     0.0000000E+00 (-100.00%)
   displ. norm   :     0.3072512 α      lambda       -0.2302331E-01
   maximum displ.:     0.1101477 α      in ANC's #9, #14, #15, ...

........................................................................
.............................. CYCLE    2 ..............................
........................................................................

 iter      E             dE          RMSdq      gap      omega  full diag
   1    -26.3744998 -0.263745E+02  0.371E-01    3.60       0.0  T
   2    -26.3748820 -0.382179E-03  0.229E-01    3.66       1.0  T
   3    -26.3748618  0.202220E-04  0.992E-02    3.66       1.0  T
   4    -26.3748928 -0.310276E-04  0.401E-02    3.66       1.0  T
   5    -26.3749145 -0.216653E-04  0.124E-02    3.66       1.9  T
   6    -26.3749160 -0.148548E-05  0.529E-03    3.66       4.5  T
   7    -26.3749160 -0.600244E-07  0.161E-03    3.66      14.7  T
   8    -26.3749160 -0.663545E-08  0.697E-04    3.66      33.8  T
   9    -26.3749160 -0.102759E-08  0.169E-04    3.66     139.5  T
     SCC iter.                  ...        0 min,  0.006 sec
     gradient                   ...        0 min,  0.001 sec
 * total energy  :   -26.0576248 Eh     change       -0.1571991E-01 Eh
   gradient norm :     0.0593499 Eh/α   predicted    -0.1259839E-01 ( -19.86%)
   displ. norm   :     0.2694298 α      lambda       -0.6039422E-02
   maximum displ.:     0.1521755 α      in ANC's #7, #9, #11, ...

........................................................................
.............................. CYCLE    3 ..............................
........................................................................

 iter      E             dE          RMSdq      gap      omega  full diag
   1    -26.3904405 -0.263904E+02  0.219E-01    3.79       0.0  T
   2    -26.3905914 -0.150882E-03  0.135E-01    3.82       1.0  T
   3    -26.3905888  0.253151E-05  0.571E-02    3.83       1.0  T
   4    -26.3905951 -0.625177E-05  0.235E-02    3.83       1.0  T
   5    -26.3906017 -0.657697E-05  0.855E-03    3.83       2.8  T
   6    -26.3906024 -0.728424E-06  0.307E-03    3.83       7.7  T
   7    -26.3906024 -0.257136E-07  0.967E-04    3.83      24.4  T
   8    -26.3906024 -0.225349E-08  0.441E-04    3.83      53.5  T
     SCC iter.                  ...        0 min,  0.005 sec
     gradient                   ...        0 min,  0.001 sec
 * total energy  :   -26.0608405 Eh     change       -0.3215705E-02 Eh
   gradient norm :     0.0183411 Eh/α   predicted    -0.3238921E-02 (   0.72%)
   displ. norm   :     0.1320051 α      lambda       -0.6437578E-03
   maximum displ.:     0.0861487 α      in ANC's #7, #9, #8, ...

........................................................................
.............................. CYCLE    4 ..............................
........................................................................

 iter      E             dE          RMSdq      gap      omega  full diag
   1    -26.3891758 -0.263892E+02  0.716E-02    3.84       0.0  T
   2    -26.3891932 -0.173843E-04  0.438E-02    3.83       1.0  T
   3    -26.3891927  0.444652E-06  0.208E-02    3.83       1.1  T
   4    -26.3891920  0.792099E-06  0.121E-02    3.83       2.0  T
   5    -26.3891939 -0.194088E-05  0.143E-03    3.83      16.5  T
   6    -26.3891939 -0.121321E-07  0.697E-04    3.83      33.8  T
   7    -26.3891939 -0.769401E-09  0.224E-04    3.83     105.0  T
     SCC iter.                  ...        0 min,  0.005 sec
     gradient                   ...        0 min,  0.002 sec
 * total energy  :   -26.0612520 Eh     change       -0.4115524E-03 Eh
   gradient norm :     0.0083395 Eh/α   predicted    -0.3274880E-03 ( -20.43%)
   displ. norm   :     0.1388499 α      lambda       -0.3021825E-03
   maximum displ.:     0.0778475 α      in ANC's #7, #2, #9, ...

........................................................................
.............................. CYCLE    5 ..............................
........................................................................

 iter      E             dE          RMSdq      gap      omega  full diag
   1    -26.3881936 -0.263882E+02  0.555E-02    3.84       0.0  T
   2    -26.3882051 -0.114727E-04  0.332E-02    3.83       1.0  T
   3    -26.3882052 -0.175989E-06  0.154E-02    3.83       1.5  T
   4    -26.3882053 -0.679747E-07  0.253E-03    3.83       9.3  T
   5    -26.3882054 -0.662186E-07  0.802E-04    3.83      29.4  T
   6    -26.3882054 -0.219977E-09  0.538E-04    3.83      43.8  T
     SCC iter.                  ...        0 min,  0.004 sec
     gradient                   ...        0 min,  0.001 sec
 * total energy  :   -26.0614154 Eh     change       -0.1633943E-03 Eh
   gradient norm :     0.0042445 Eh/α   predicted    -0.1540027E-03 (  -5.75%)
   displ. norm   :     0.0780593 α      lambda       -0.9379019E-04
   maximum displ.:     0.0484865 α      in ANC's #2, #5, #8, ...

........................................................................
.............................. CYCLE    6 ..............................
........................................................................

 iter      E             dE          RMSdq      gap      omega  full diag
   1    -26.3886725 -0.263887E+02  0.324E-02    3.84       0.0  T
   2    -26.3886731 -0.590613E-06  0.191E-02    3.84       1.2  T
   3    -26.3886718  0.123179E-05  0.119E-02    3.84       2.0  T
   4    -26.3886734 -0.153322E-05  0.222E-03    3.84      10.6  T
   5    -26.3886734 -0.509350E-07  0.599E-04    3.84      39.4  T
   6    -26.3886734 -0.114986E-08  0.319E-04    3.84      73.8  T
     SCC iter.                  ...        0 min,  0.004 sec
     gradient                   ...        0 min,  0.002 sec
 * total energy  :   -26.0614844 Eh     change       -0.6899410E-04 Eh
   gradient norm :     0.0036356 Eh/α   predicted    -0.4717971E-04 ( -31.62%)
   displ. norm   :     0.1325107 α      lambda       -0.1092424E-03
   maximum displ.:     0.0892233 α      in ANC's #2, #5, #8, ...

........................................................................
.............................. CYCLE    7 ..............................
........................................................................

 iter      E             dE          RMSdq      gap      omega  full diag
   1    -26.3891848 -0.263892E+02  0.468E-02    3.84       0.0  T
   2    -26.3891850 -0.233519E-06  0.283E-02    3.84       1.0  T
   3    -26.3891815  0.350255E-05  0.171E-02    3.84       1.4  T
   4    -26.3891856 -0.405472E-05  0.132E-03    3.84      17.9  T
   5    -26.3891856 -0.264510E-08  0.655E-04    3.84      36.0  T
   6    -26.3891856 -0.474770E-09  0.211E-04    3.84     112.0  T
     SCC iter.                  ...        0 min,  0.004 sec
     gradient                   ...        0 min,  0.001 sec
 * total energy  :   -26.0615633 Eh     change       -0.7887045E-04 Eh
   gradient norm :     0.0038493 Eh/α   predicted    -0.5558221E-04 ( -29.53%)
   displ. norm   :     0.1466793 α      lambda       -0.8666766E-04
   maximum displ.:     0.1034050 α      in ANC's #2, #5, #8, ...

........................................................................
.............................. CYCLE    8 ..............................
........................................................................

 iter      E             dE          RMSdq      gap      omega  full diag
   1    -26.3892453 -0.263892E+02  0.459E-02    3.84       0.0  T
   2    -26.3892457 -0.424741E-06  0.276E-02    3.84       1.0  T
   3    -26.3892440  0.167800E-05  0.118E-02    3.84       2.0  T
   4    -26.3892459 -0.188514E-05  0.170E-03    3.84      13.9  T
   5    -26.3892460 -0.286721E-07  0.700E-04    3.84      33.7  T
   6    -26.3892460 -0.780556E-09  0.326E-04    3.84      72.4  T
     SCC iter.                  ...        0 min,  0.004 sec
     gradient                   ...        0 min,  0.001 sec
 * total energy  :   -26.0616303 Eh     change       -0.6705968E-04 Eh
   gradient norm :     0.0039212 Eh/α   predicted    -0.4426451E-04 ( -33.99%)
   displ. norm   :     0.1886570 α      lambda       -0.9908486E-04
   maximum displ.:     0.1313871 α      in ANC's #2, #5, #8, ...

........................................................................
.............................. CYCLE    9 ..............................
........................................................................

 iter      E             dE          RMSdq      gap      omega  full diag
   1    -26.3889798 -0.263890E+02  0.627E-02    3.84       0.0  T
   2    -26.3889803 -0.556147E-06  0.373E-02    3.84       1.0  T
   3    -26.3889801  0.210558E-06  0.535E-03    3.84       4.4  T
   4    -26.3889804 -0.297101E-06  0.215E-03    3.84      10.9  T
   5    -26.3889804 -0.466197E-07  0.967E-04    3.84      24.4  T
   6    -26.3889804 -0.298725E-08  0.417E-04    3.84      56.5  T
     SCC iter.                  ...        0 min,  0.004 sec
     gradient                   ...        0 min,  0.001 sec
 * total energy  :   -26.0617051 Eh     change       -0.7474595E-04 Eh
   gradient norm :     0.0035085 Eh/α   predicted    -0.5130747E-04 ( -31.36%)
   displ. norm   :     0.1945249 α      lambda       -0.8832827E-04
   maximum displ.:     0.1393670 α      in ANC's #2, #5, #8, ...

........................................................................
.............................. CYCLE   10 ..............................
........................................................................

 iter      E             dE          RMSdq      gap      omega  full diag
   1    -26.3889114 -0.263889E+02  0.629E-02    3.84       0.0  T
   2    -26.3889119 -0.441353E-06  0.372E-02    3.84       1.0  T
   3    -26.3889116  0.213178E-06  0.504E-03    3.84       4.7  T
   4    -26.3889119 -0.289891E-06  0.231E-03    3.84      10.2  T
   5    -26.3889120 -0.550984E-07  0.900E-04    3.84      26.2  T
   6    -26.3889120 -0.105070E-08  0.319E-04    3.84      74.0  T
     SCC iter.                  ...        0 min,  0.004 sec
     gradient                   ...        0 min,  0.002 sec
 * total energy  :   -26.0617654 Eh     change       -0.6033999E-04 Eh
   gradient norm :     0.0027863 Eh/α   predicted    -0.4583585E-04 ( -24.04%)
   displ. norm   :     0.1302370 α      lambda       -0.4564450E-04
   maximum displ.:     0.0938064 α      in ANC's #2, #5, #8, ...

........................................................................
.............................. CYCLE   11 ..............................
........................................................................

 iter      E             dE          RMSdq      gap      omega  full diag
   1    -26.3893249 -0.263893E+02  0.467E-02    3.85       0.0  T
   2    -26.3893250 -0.182281E-06  0.277E-02    3.84       1.0  T
   3    -26.3893244  0.604415E-06  0.709E-03    3.85       3.3  T
   4    -26.3893251 -0.698522E-06  0.118E-03    3.84      19.9  T
   5    -26.3893251 -0.856440E-08  0.620E-04    3.84      38.0  T
   6    -26.3893251 -0.649184E-09  0.232E-04    3.84     101.6  T
     SCC iter.                  ...        0 min,  0.007 sec
     gradient                   ...        0 min,  0.002 sec
 * total energy  :   -26.0617965 Eh     change       -0.3106748E-04 Eh
   gradient norm :     0.0020413 Eh/α   predicted    -0.2321052E-04 ( -25.29%)
   displ. norm   :     0.1108834 α      lambda       -0.2699288E-04
   maximum displ.:     0.0825505 α      in ANC's #2, #5, #1, ...

........................................................................
.............................. CYCLE   12 ..............................
........................................................................

 iter      E             dE          RMSdq      gap      omega  full diag
   1    -26.3894952 -0.263895E+02  0.363E-02    3.85       0.0  T
   2    -26.3894954 -0.171462E-06  0.217E-02    3.85       1.1  T
   3    -26.3894953  0.419110E-07  0.254E-03    3.85       9.3  T
   4    -26.3894954 -0.783624E-07  0.634E-04    3.85      37.2  T
   5    -26.3894954 -0.499220E-09  0.399E-04    3.85      59.1  T
     SCC iter.                  ...        0 min,  0.003 sec
     gradient                   ...        0 min,  0.002 sec
 * total energy  :   -26.0618159 Eh     change       -0.1940399E-04 Eh
   gradient norm :     0.0019505 Eh/α   predicted    -0.1366387E-04 ( -29.58%)
   displ. norm   :     0.1609918 α      lambda       -0.3377472E-04
   maximum displ.:     0.0996172 α      in ANC's #2, #4, #1, ...

........................................................................
.............................. CYCLE   13 ..............................
........................................................................

 iter      E             dE          RMSdq      gap      omega  full diag
   1    -26.3916344 -0.263916E+02  0.565E-02    3.85       0.0  T
   2    -26.3916351 -0.685077E-06  0.335E-02    3.85       1.0  T
   3    -26.3916347  0.460104E-06  0.646E-03    3.85       3.7  T
   4    -26.3916352 -0.527874E-06  0.241E-03    3.85       9.8  T
   5    -26.3916353 -0.681043E-07  0.733E-04    3.85      32.2  T
   6    -26.3916353 -0.116137E-08  0.387E-04    3.85      61.0  T
     SCC iter.                  ...        0 min,  0.004 sec
     gradient                   ...        0 min,  0.001 sec
 * total energy  :   -26.0618264 Eh     change       -0.1055680E-04 Eh
   gradient norm :     0.0043106 Eh/α   predicted    -0.1708204E-04 (  61.81%)
   displ. norm   :     0.1684701 α      lambda       -0.4807923E-04
   maximum displ.:     0.1231483 α      in ANC's #2, #5, #4, ...

........................................................................
.............................. CYCLE   14 ..............................
........................................................................

 iter      E             dE          RMSdq      gap      omega  full diag
   1    -26.3894275 -0.263894E+02  0.576E-02    3.85       0.0  T
   2    -26.3894287 -0.123547E-05  0.338E-02    3.85       1.0  T
   3    -26.3894276  0.107945E-05  0.102E-02    3.85       2.3  T
   4    -26.3894288 -0.113102E-05  0.337E-03    3.85       7.0  T
   5    -26.3894289 -0.149452E-06  0.814E-04    3.85      29.0  T
   6    -26.3894289 -0.419721E-09  0.238E-04    3.85      99.2  T
     SCC iter.                  ...        0 min,  0.004 sec
     gradient                   ...        0 min,  0.001 sec
 * total energy  :   -26.0618397 Eh     change       -0.1330015E-04 Eh
   gradient norm :     0.0034341 Eh/α   predicted    -0.2472381E-04 (  85.89%)
   displ. norm   :     0.1054964 α      lambda       -0.4696689E-04
   maximum displ.:     0.0755953 α      in ANC's #2, #1, #5, ...

........................................................................
.............................. CYCLE   15 ..............................
........................................................................

 iter      E             dE          RMSdq      gap      omega  full diag
   1    -26.3903539 -0.263904E+02  0.400E-02    3.85       0.0  T
   2    -26.3903546 -0.724951E-06  0.234E-02    3.85       1.0  T
   3    -26.3903545  0.131316E-06  0.504E-03    3.85       4.7  T
   4    -26.3903546 -0.142727E-06  0.246E-03    3.85       9.6  T
   5    -26.3903547 -0.733219E-07  0.709E-04    3.85      33.2  T
   6    -26.3903547 -0.546411E-09  0.331E-04    3.85      71.2  T
     SCC iter.                  ...        0 min,  0.004 sec
     gradient                   ...        0 min,  0.001 sec
 * total energy  :   -26.0618554 Eh     change       -0.1568734E-04 Eh
   gradient norm :     0.0020339 Eh/α   predicted    -0.2374562E-04 (  51.37%)
   displ. norm   :     0.0324670 α      lambda       -0.2421657E-04
   maximum displ.:     0.0246339 α      in ANC's #4, #2, #8, ...

........................................................................
.............................. CYCLE   16 ..............................
........................................................................

 iter      E             dE          RMSdq      gap      omega  full diag
   1    -26.3904165 -0.263904E+02  0.154E-02    3.85       0.0  T
   2    -26.3904169 -0.464719E-06  0.898E-03    3.85       2.6  T
   3    -26.3904169  0.656390E-07  0.445E-03    3.85       5.3  T
   4    -26.3904169 -0.707414E-07  0.188E-03    3.85      12.6  T
   5    -26.3904170 -0.468207E-07  0.405E-04    3.85      58.2  T
   6    -26.3904170 -0.103948E-08  0.180E-04    3.85     130.7  T
     SCC iter.                  ...        0 min,  0.003 sec
     gradient                   ...        0 min,  0.001 sec
 * total energy  :   -26.0618706 Eh     change       -0.1513153E-04 Eh
   gradient norm :     0.0012858 Eh/α   predicted    -0.1212014E-04 ( -19.90%)
   displ. norm   :     0.1021071 α      lambda       -0.1822682E-04
   maximum displ.:     0.0833660 α      in ANC's #4, #2, #5, ...

........................................................................
.............................. CYCLE   17 ..............................
........................................................................

 iter      E             dE          RMSdq      gap      omega  full diag
   1    -26.3898323 -0.263898E+02  0.293E-02    3.85       0.0  T
   2    -26.3898327 -0.404717E-06  0.175E-02    3.85       1.3  T
   3    -26.3898319  0.769441E-06  0.869E-03    3.85       2.7  T
   4    -26.3898328 -0.870541E-06  0.161E-03    3.85      14.6  T
   5    -26.3898328 -0.336533E-07  0.384E-04    3.85      61.4  T
   6    -26.3898328 -0.593651E-09  0.191E-04    3.85     123.5  T
     SCC iter.                  ...        0 min,  0.003 sec
     gradient                   ...        0 min,  0.001 sec
 * total energy  :   -26.0618895 Eh     change       -0.1896764E-04 Eh
   gradient norm :     0.0027037 Eh/α   predicted    -0.9154377E-05 ( -51.74%)
   displ. norm   :     0.0865239 α      lambda       -0.2392389E-04
   maximum displ.:     0.0774552 α      in ANC's #4, #5, #32, ...

........................................................................
.............................. CYCLE   18 ..............................
........................................................................

 iter      E             dE          RMSdq      gap      omega  full diag
   1    -26.3896428 -0.263896E+02  0.243E-02    3.85       0.0  T
   2    -26.3896429 -0.750541E-07  0.145E-02    3.85       1.6  T
   3    -26.3896425  0.365860E-06  0.539E-03    3.85       4.4  T
   4    -26.3896429 -0.405874E-06  0.716E-04    3.85      32.9  T
   5    -26.3896429 -0.499941E-08  0.282E-04    3.85      83.6  T
     SCC iter.                  ...        0 min,  0.003 sec
     gradient                   ...        0 min,  0.001 sec
 * total energy  :   -26.0619090 Eh     change       -0.1951202E-04 Eh
   gradient norm :     0.0029818 Eh/α   predicted    -0.1205185E-04 ( -38.23%)
   displ. norm   :     0.1642399 α      lambda       -0.4550015E-04
   maximum displ.:     0.1477323 α      in ANC's #4, #5, #8, ...

........................................................................
.............................. CYCLE   19 ..............................
........................................................................

 iter      E             dE          RMSdq      gap      omega  full diag
   1    -26.3892889 -0.263893E+02  0.491E-02    3.85       0.0  T
   2    -26.3892891 -0.176447E-06  0.293E-02    3.85       1.0  T
   3    -26.3892890  0.877817E-07  0.337E-03    3.85       7.0  T
   4    -26.3892891 -0.129338E-06  0.134E-03    3.85      17.6  T
   5    -26.3892891 -0.151966E-07  0.594E-04    3.85      39.7  T
   6    -26.3892891 -0.513886E-09  0.217E-04    3.85     108.6  T
     SCC iter.                  ...        0 min,  0.003 sec
     gradient                   ...        0 min,  0.001 sec
 * total energy  :   -26.0619380 Eh     change       -0.2898785E-04 Eh
   gradient norm :     0.0029036 Eh/α   predicted    -0.2336507E-04 ( -19.40%)
   displ. norm   :     0.0697831 α      lambda       -0.2176983E-04
   maximum displ.:     0.0577855 α      in ANC's #4, #2, #8, ...

........................................................................
.............................. CYCLE   20 ..............................
........................................................................

 iter      E             dE          RMSdq      gap      omega  full diag
   1    -26.3896198 -0.263896E+02  0.238E-02    3.85       0.0  T
   2    -26.3896199 -0.919436E-07  0.141E-02    3.85       1.7  T
   3    -26.3896196  0.266954E-06  0.474E-03    3.85       5.0  T
   4    -26.3896199 -0.299980E-06  0.721E-04    3.85      32.7  T
   5    -26.3896199 -0.515233E-08  0.331E-04    3.85      71.1  T
     SCC iter.                  ...        0 min,  0.003 sec
     gradient                   ...        0 min,  0.001 sec
 * total energy  :   -26.0619539 Eh     change       -0.1587021E-04 Eh
   gradient norm :     0.0017239 Eh/α   predicted    -0.1093957E-04 ( -31.07%)
   displ. norm   :     0.2162593 α      lambda       -0.2878910E-04
   maximum displ.:     0.1748522 α      in ANC's #4, #5, #1, ...
 * RMSD in coord.:     0.4171719 α      energy gain  -0.2004905E-01 Eh

generating ANC from exact Hessian ...
Using Lindh-Hessian (1995)
 Shifting diagonal of input Hessian by   8.388900784345583E-003
 Lowest  eigenvalues of input Hessian
    0.000000    0.000000    0.000000    0.000000    0.000000    0.000000
    0.010000    0.011183    0.012306    0.017379    0.019017    0.021183
    0.022007    0.027255    0.028400    0.036203    0.042956    0.054504
 Highest eigenvalues
    1.273755    1.281534    1.469673    1.831832    1.923239    2.380762
 

........................................................................
.............................. CYCLE   21 ..............................
........................................................................

 iter      E             dE          RMSdq      gap      omega  full diag
   1    -26.3891102 -0.263891E+02  0.680E-02    3.86       0.0  T
   2    -26.3891109 -0.760757E-06  0.403E-02    3.85       1.0  T
   3    -26.3891102  0.780855E-06  0.875E-03    3.86       2.7  T
   4    -26.3891110 -0.859934E-06  0.279E-03    3.85       8.4  T
   5    -26.3891111 -0.927183E-07  0.847E-04    3.85      27.8  T
   6    -26.3891111 -0.133935E-08  0.387E-04    3.85      60.9  T
     SCC iter.                  ...        0 min,  0.003 sec
     gradient                   ...        0 min,  0.001 sec
 * total energy  :   -26.0619530 Eh     change        0.9247190E-06 Eh
   gradient norm :     0.0042641 Eh/α   predicted     0.0000000E+00 (-100.00%)
   displ. norm   :     0.0166900 α      lambda       -0.4528172E-04
   maximum displ.:     0.0065885 α      in ANC's #5, #11, #6, ...

........................................................................
.............................. CYCLE   22 ..............................
........................................................................

 iter      E             dE          RMSdq      gap      omega  full diag
   1    -26.3901832 -0.263902E+02  0.161E-02    3.85       0.0  T
   2    -26.3901835 -0.389865E-06  0.913E-03    3.86       2.6  T
   3    -26.3901835  0.734221E-07  0.428E-03    3.85       5.5  T
   4    -26.3901836 -0.884459E-07  0.200E-03    3.85      11.8  T
   5    -26.3901836 -0.428130E-07  0.498E-04    3.85      47.4  T
   6    -26.3901836 -0.819433E-10  0.224E-04    3.85     105.1  T
     SCC iter.                  ...        0 min,  0.003 sec
     gradient                   ...        0 min,  0.001 sec
 * total energy  :   -26.0619802 Eh     change       -0.2718936E-04 Eh
   gradient norm :     0.0010808 Eh/α   predicted    -0.2264533E-04 ( -16.71%)
   displ. norm   :     0.0194821 α      lambda       -0.5629665E-05
   maximum displ.:     0.0134439 α      in ANC's #5, #2, #6, ...

........................................................................
.............................. CYCLE   23 ..............................
........................................................................

 iter      E             dE          RMSdq      gap      omega  full diag
   1    -26.3906005 -0.263906E+02  0.114E-02    3.85       0.0  T
   2    -26.3906006 -0.920646E-07  0.683E-03    3.86       3.5  T
   3    -26.3906005  0.128369E-06  0.419E-03    3.85       5.6  T
   4    -26.3906006 -0.169277E-06  0.901E-04    3.85      26.2  T
   5    -26.3906006 -0.851188E-08  0.285E-04    3.85      82.7  T
     SCC iter.                  ...        0 min,  0.003 sec
     gradient                   ...        0 min,  0.001 sec
 * total energy  :   -26.0619835 Eh     change       -0.3352787E-05 Eh
   gradient norm :     0.0008304 Eh/α   predicted    -0.2815448E-05 ( -16.03%)
   displ. norm   :     0.0182099 α      lambda       -0.2973159E-05
   maximum displ.:     0.0129767 α      in ANC's #5, #6, #2, ...

   *** GEOMETRY OPTIMIZATION CONVERGED AFTER 23 ITERATIONS ***

------------------------------------------------------------------------
 total energy gain   :        -0.0200787 Eh      -12.5996 kcal/mol
 total RMSD          :         0.4197467 a0        0.2221 Å
 total power (kW/mol):        -2.2920235 (step) -325.8031 (real)
------------------------------------------------------------------------

 ANCopt (total)                0 d,  0 h,  0 min,  0.162 sec
 optimizer setup                ...        0 min,  0.000 sec (  0.059%)
 model hessian                  ...        0 min,  0.006 sec (  3.825%)
 ANC generation                 ...        0 min,  0.001 sec (  0.651%)
 coordinate transformation      ...        0 min,  0.000 sec (  0.103%)
 single point calculation       ...        0 min,  0.140 sec ( 86.703%)
 optimization log               ...        0 min,  0.008 sec (  5.136%)
 hessian update                 ...        0 min,  0.002 sec (  1.148%)
 rational function              ...        0 min,  0.003 sec (  1.809%)

================
 final structure:
================
18
 xtb: 6.7.1 (edcfbbe)
C            2.94235329256871       -0.06136749196488        1.00604296273604
C            2.01271045580564        0.23033246064408       -0.15678278154922
O            0.67464030236118       -0.04586099123823        0.25644579290269
C           -0.28439881503704        0.20712884312647       -0.64235307338670
O           -0.05395152027633        0.63468661167864       -1.74824243756467
C           -1.65158649061285       -0.09077673720833       -0.13269879728829
C           -2.73138165732162        0.01073850632833       -1.16174320960345
C           -1.86298527195856       -0.40367068023757        1.14097729517764
H            3.96641507152940        0.15893111190039        0.71909975167265
H            2.86912531709350       -1.10731217073432        1.29112409323643
H            2.67311267083861        0.55145964901520        1.86211138086148
H            2.25124882749681       -0.39428576204627       -1.02548531477993
H            2.07771166187735        1.27938718614069       -0.46808338254395
H           -2.61440016360375       -0.78128162692484       -1.89952411645700
H           -2.64659399938662        0.95718012923004       -1.69071772196622
H           -3.71301771263383       -0.06871452521733       -0.70525560243475
H           -1.05507822888215       -0.46587041524655        1.84814762552081
H           -2.85392373985838       -0.61070109724564        1.50974553546636
 
 Bond Distances (Angstroems)
 ---------------------------
C1-C2=1.5171         C1-H9=1.0861         C1-H10=1.0866        C1-H11=1.0867        C2-C1=1.5171         C2-O3=1.4274         
C2-H12=1.0962        C2-H13=1.0962        O3-C2=1.4274         O3-C4=1.3385         C4-O3=1.3385         C4-O5=1.2079         
C4-C6=1.4892         O5-C4=1.2079         C6-C4=1.4892         C6-C7=1.4951         C6-C8=1.3285         C7-C6=1.4951         
C7-H14=1.0887        C7-H15=1.0875        C7-H16=1.0855        C8-C6=1.3285         C8-H17=1.0755        C8-H18=1.0774        
H9-C1=1.0861         H10-C1=1.0866        H11-C1=1.0867        H12-C2=1.0962        H13-C2=1.0962        H14-C7=1.0887        
H15-C7=1.0875        H16-C7=1.0855        H17-C8=1.0755        H18-C8=1.0774        
 C  H  Rav=1.0866 sigma=0.0063  Rmin=1.0755  Rmax=1.0962    10
 C  C  Rav=1.4574 sigma=0.0752  Rmin=1.3285  Rmax=1.5171     4
 O  C  Rav=1.3246 sigma=0.0902  Rmin=1.2079  Rmax=1.4274     3
 
 selected bond angles (degree)
 --------------------
H9-C1-C2=109.65                H10-C1-C2=110.18               H10-C1-H9=109.15               H11-C1-C2=110.09               
H11-C1-H9=109.11               H11-C1-H10=108.63              O3-C2-C1=108.38                H12-C2-C1=111.38               
H12-C2-O3=108.85               H13-C2-C1=111.43               H13-C2-O3=108.84               H13-C2-H12=107.90              
C4-O3-C2=116.15                O5-C4-O3=123.03                C6-C4-O3=112.97                C6-C4-O5=124.01                
C7-C6-C4=114.45                C8-C6-C4=121.42                C8-C6-C7=124.12                H14-C7-C6=109.84               
H15-C7-C6=109.73               H15-C7-H14=107.16              H16-C7-C6=111.02               H16-C7-H14=109.20              
H16-C7-H15=109.80              H17-C8-C6=121.63               H18-C8-C6=121.32               H18-C8-H17=117.05              
 
 selected dihedral angles (degree)
 ---------------------------------
O3-C2-C1-H9=180.99            O3-C2-C1-H10= 60.83           O3-C2-C1-H11=301.04           H12-C2-C1-H9= 61.27           
H12-C2-C1-H10=301.11          H12-C2-C1-H11=181.32          H13-C2-C1-H9=300.73           H13-C2-C1-H10=180.57          
H13-C2-C1-H11= 60.78          C4-O3-C2-C1=177.64            C4-O3-C2-H12=298.93           C4-O3-C2-H13= 56.30           
O5-C4-O3-C2=  0.55            C6-C4-O3-C2=180.67            C7-C6-C4-O3=187.49            C7-C6-C4-O5=  7.61            
C8-C6-C4-O3=  8.19            C8-C6-C4-O5=188.31            H14-C7-C6-C4= 67.65           H14-C7-C6-C8=246.94           
H15-C7-C6-C4=310.09           H15-C7-C6-C8=129.37           H16-C7-C6-C4=188.54           H16-C7-C6-C8=  7.82           
H17-C8-C6-C4=359.21           H17-C8-C6-C7=179.98           H18-C8-C6-C4=179.47           H18-C8-C6-C7=  0.24           
           -------------------------------------------------
          |                Final Singlepoint                |
           -------------------------------------------------

          ...................................................
          :                      SETUP                      :
          :.................................................:
          :  # basis functions                  42          :
          :  # atomic orbitals                  42          :
          :  # shells                           26          :
          :  # electrons                        46          :
          :  max. iterations                   250          :
          :  Hamiltonian                  GFN2-xTB          :
          :  restarted?                      false          :
          :  GBSA solvation                  false          :
          :  PC potential                    false          :
          :  electronic temp.          300.0000000     K    :
          :  accuracy                    1.0000000          :
          :  -> integral cutoff          0.2500000E+02      :
          :  -> integral neglect         0.1000000E-07      :
          :  -> SCF convergence          0.1000000E-05 Eh   :
          :  -> wf. convergence          0.1000000E-03 e    :
          :  Broyden damping             0.4000000          :
          :  net charge                          0          :
          :  unpaired electrons                  0          :
          ...................................................

 iter      E             dE          RMSdq      gap      omega  full diag
   1    -26.3906006 -0.263906E+02  0.142E-04    3.85       0.0  T
   2    -26.3906006 -0.379785E-10  0.817E-05    3.85     288.5  T
   3    -26.3906006 -0.137490E-11  0.580E-05    3.85     406.1  T

   *** convergence criteria satisfied after 3 iterations ***

         #    Occupation            Energy/Eh            Energy/eV
      -------------------------------------------------------------
         1        2.0000           -0.7375614             -20.0701
       ...           ...                  ...                  ...
        17        2.0000           -0.4723525             -12.8534
        18        2.0000           -0.4692144             -12.7680
        19        2.0000           -0.4643622             -12.6359
        20        2.0000           -0.4539823             -12.3535
        21        2.0000           -0.4370361             -11.8924
        22        2.0000           -0.4157254             -11.3125
        23        2.0000           -0.4083809             -11.1126 (HOMO)
        24                         -0.2667132              -7.2576 (LUMO)
        25                         -0.1602519              -4.3607
        26                          0.0062202               0.1693
        27                          0.0983144               2.6753
        28                          0.1137692               3.0958
       ...                                ...                  ...
        42                          0.7003495              19.0575
      -------------------------------------------------------------
                  HL-Gap            0.1416677 Eh            3.8550 eV
             Fermi-level           -0.3375471 Eh           -9.1851 eV

 SCC (total)                   0 d,  0 h,  0 min,  0.004 sec
 SCC setup                      ...        0 min,  0.000 sec (  3.043%)
 Dispersion                     ...        0 min,  0.000 sec (  2.231%)
 classical contributions        ...        0 min,  0.000 sec (  0.979%)
 integral evaluation            ...        0 min,  0.000 sec (  8.909%)
 iterations                     ...        0 min,  0.002 sec ( 50.270%)
 molecular gradient             ...        0 min,  0.001 sec ( 32.086%)
 printout                       ...        0 min,  0.000 sec (  1.898%)

         :::::::::::::::::::::::::::::::::::::::::::::::::::::
         ::                     SUMMARY                     ::
         :::::::::::::::::::::::::::::::::::::::::::::::::::::
         :: total energy             -26.061983517914 Eh    ::
         :: gradient norm              0.000829433842 Eh/a0 ::
         :: HOMO-LUMO gap              3.854974708414 eV    ::
         ::.................................................::
         :: SCC energy               -26.390594959640 Eh    ::
         :: -> isotropic ES            0.046750958245 Eh    ::
         :: -> anisotropic ES          0.001908865847 Eh    ::
         :: -> anisotropic XC          0.008149824701 Eh    ::
         :: -> dispersion             -0.010768587256 Eh    ::
         :: repulsion energy           0.328611441726 Eh    ::
         :: add. restraining           0.000000000000 Eh    ::
         :: total charge              -0.000000000000 e     ::
         :::::::::::::::::::::::::::::::::::::::::::::::::::::

           -------------------------------------------------
          |                Property Printout                |
           -------------------------------------------------

    * Orbital Energies and Occupations

         #    Occupation            Energy/Eh            Energy/eV
      -------------------------------------------------------------
         1        2.0000           -0.7375614             -20.0701
       ...           ...                  ...                  ...
        11        2.0000           -0.5346252             -14.5479
        12        2.0000           -0.5233556             -14.2412
        13        2.0000           -0.5042205             -13.7205
        14        2.0000           -0.4930847             -13.4175
        15        2.0000           -0.4886220             -13.2961
        16        2.0000           -0.4819015             -13.1132
        17        2.0000           -0.4723525             -12.8534
        18        2.0000           -0.4692144             -12.7680
        19        2.0000           -0.4643622             -12.6359
        20        2.0000           -0.4539823             -12.3535
        21        2.0000           -0.4370361             -11.8924
        22        2.0000           -0.4157254             -11.3125
        23        2.0000           -0.4083809             -11.1126 (HOMO)
        24                         -0.2667132              -7.2576 (LUMO)
        25                         -0.1602519              -4.3607
        26                          0.0062202               0.1693
        27                          0.0983144               2.6753
        28                          0.1137692               3.0958
        29                          0.1196500               3.2558
        30                          0.1438294               3.9138
        31                          0.1448028               3.9403
        32                          0.1703275               4.6348
        33                          0.1813574               4.9350
        34                          0.1873227               5.0973
       ...                                ...                  ...
        42                          0.7003495              19.0575
      -------------------------------------------------------------
                  HL-Gap            0.1416677 Eh            3.8550 eV
             Fermi-level           -0.3375471 Eh           -9.1851 eV

     #   Z          covCN         q      C6AA      α(0)
     1   6 C        3.751    -0.115    22.772     6.805
     2   6 C        3.703     0.086    19.294     6.280
     3   8 O        1.704    -0.268    18.446     5.799
     4   6 C        2.730     0.349    21.065     7.514
     5   8 O        0.856    -0.418    22.035     6.294
     6   6 C        2.937    -0.007    28.207     8.710
     7   6 C        3.759    -0.111    22.664     6.787
     8   6 C        2.844    -0.082    30.055     8.985
     9   1 H        0.925     0.052     2.292     2.368
    10   1 H        0.925     0.058     2.227     2.333
    11   1 H        0.925     0.058     2.228     2.334
    12   1 H        0.924     0.050     2.318     2.381
    13   1 H        0.924     0.051     2.307     2.375
    14   1 H        0.925     0.062     2.177     2.307
    15   1 H        0.925     0.069     2.101     2.267
    16   1 H        0.925     0.050     2.316     2.380
    17   1 H        0.926     0.062     2.175     2.306
    18   1 H        0.926     0.055     2.262     2.352

 Mol. C6AA /au·bohr⁶  :       2821.651383
 Mol. C8AA /au·bohr⁸  :      62195.081014
 Mol. α(0) /au        :         80.577613


Wiberg/Mayer (AO) data.
largest (>0.10) Wiberg bond orders for each atom

 ---------------------------------------------------------------------------
     #   Z sym  total        # sym  WBO       # sym  WBO       # sym  WBO
 ---------------------------------------------------------------------------
     1   6 C    3.992 --     2 C    1.019    10 H    0.985    11 H    0.985
                             9 H    0.984
     2   6 C    3.929 --     1 C    1.019    13 H    0.968    12 H    0.968
                             3 O    0.940
     3   8 O    2.302 --     4 C    1.125     2 C    0.940     5 O    0.171
     4   6 C    3.917 --     5 O    1.726     3 O    1.125     6 C    0.992
     5   8 O    2.028 --     4 C    1.726     3 O    0.171
     6   6 C    3.986 --     8 C    1.879     7 C    1.030     4 C    0.992
     7   6 C    3.994 --     6 C    1.030    16 H    0.984    15 H    0.968
                            14 H    0.965
     8   6 C    3.989 --     6 C    1.879    18 H    0.974    17 H    0.973
     9   1 H    0.996 --     1 C    0.984
    10   1 H    0.997 --     1 C    0.985
    11   1 H    0.997 --     1 C    0.985
    12   1 H    0.997 --     2 C    0.968
    13   1 H    0.997 --     2 C    0.968
    14   1 H    0.996 --     7 C    0.965
    15   1 H    0.995 --     7 C    0.968
    16   1 H    0.997 --     7 C    0.984
    17   1 H    0.996 --     8 C    0.973
    18   1 H    0.997 --     8 C    0.974
 ---------------------------------------------------------------------------

Topologies differ in total number of bonds
Writing topology from bond orders to xtbtopo.mol

molecular dipole:
                 x           y           z       tot (Debye)
 q only:        0.072      -0.279       0.783
   full:        0.079      -0.299       0.819       2.225
molecular quadrupole (traceless):
                xx          xy          yy          xz          yz          zz
 q only:        8.988       0.643      -3.139       1.632       1.688      -5.849
  q+dip:        8.217       0.936      -2.094       0.356       2.388      -6.123
   full:        8.275       0.729      -1.334       0.701       2.877      -6.941

           -------------------------------------------------
          |                Geometry Summary                 |
           -------------------------------------------------

      molecular mass/u    :      114.1426327
   center of mass at/Å    :       -0.0703291       0.0669627      -0.1907558
  moments of inertia/u·Å² :        0.1150568E+03   0.4222960E+03   0.5269579E+03
rotational constants/cm⁻¹ :        0.1465157E+00   0.3991900E-01   0.3199047E-01

 * 15 selected distances

     #   Z          #   Z                                           value/Å
     1   6 C        2   6 C                                       1.5170659 (max)
     2   6 C        3   8 O                                       1.4274007
     3   8 O        4   6 C                                       1.3385065
     4   6 C        5   8 O                                       1.2078506
     6   6 C        8   6 C                                       1.3284740
     1   6 C        9   1 H                                       1.0860804
     1   6 C       10   1 H                                       1.0865699
     1   6 C       11   1 H                                       1.0866927
     2   6 C       12   1 H                                       1.0962175
     2   6 C       13   1 H                                       1.0961976
     7   6 C       14   1 H                                       1.0887155
     7   6 C       15   1 H                                       1.0875454
     7   6 C       16   1 H                                       1.0854968
     8   6 C       17   1 H                                       1.0754872 (min)
     8   6 C       18   1 H                                       1.0774093

 * 3 distinct bonds (by element types)

   Z      Z             #   av. dist./Å        max./Å        min./Å
   1 H    6 C          10     1.0866412     1.0962175     1.0754872
   6 C    6 C           2     1.4227699     1.5170659     1.3284740
   6 C    8 O           3     1.3245859     1.4274007     1.2078506


optimized geometry written to: xtbopt.xyz


           -------------------------------------------------
          | TOTAL ENERGY              -26.061983517914 Eh   |
          | GRADIENT NORM               0.000829433842 Eh/α |
          | HOMO-LUMO GAP               3.854974708414 eV   |
           -------------------------------------------------

------------------------------------------------------------------------
 * finished run on 2025/12/01 at 14:23:07.087     
------------------------------------------------------------------------
 total:
 * wall-time:     0 d,  0 h,  0 min,  0.193 sec
 *  cpu-time:     0 d,  0 h,  0 min,  4.279 sec
 * ratio c/w:    22.180 speedup
 SCF:
 * wall-time:     0 d,  0 h,  0 min,  0.018 sec
 *  cpu-time:     0 d,  0 h,  0 min,  0.421 sec
 * ratio c/w:    22.867 speedup
 ANC optimizer:
 * wall-time:     0 d,  0 h,  0 min,  0.166 sec
 *  cpu-time:     0 d,  0 h,  0 min,  3.704 sec
 * ratio c/w:    22.277 speedup

normal termination of xtb
