      -----------------------------------------------------------      
     |                   =====================                   |     
     |                           x T B                           |     
     |                   =====================                   |     
     |                         S. Grimme                         |     
     |          Mulliken Center for Theoretical Chemistry        |     
     |                    University of Bonn                     |     
      -----------------------------------------------------------      

   * xtb version 6.7.1 (edcfbbe) compiled by 'albert@albert-system' on 2024-07-22

   xtb is free software: you can redistribute it and/or modify it under
   the terms of the GNU Lesser General Public License as published by
   the Free Software Foundation, either version 3 of the License, or
   (at your option) any later version.
   
   xtb is distributed in the hope that it will be useful,
   but WITHOUT ANY WARRANTY; without even the implied warranty of
   MERCHANTABILITY or FITNESS FOR A PARTICULAR PURPOSE.  See the
   GNU Lesser General Public License for more details.
   
   Cite this work as:
   * C. Bannwarth, E. Caldeweyher, S. Ehlert, A. Hansen, P. Pracht,
     J. Seibert, S. Spicher, S. Grimme, WIREs Comput. Mol. Sci., 2020, 11,
     e01493. DOI: 10.1002/wcms.1493
   
   for GFN2-xTB:
   * C. Bannwarth, S. Ehlert and S. Grimme., J. Chem. Theory Comput., 2019,
     15, 1652-1671. DOI: 10.1021/acs.jctc.8b01176
   for GFN1-xTB:
   * S. Grimme, C. Bannwarth, P. Shushkov, J. Chem. Theory Comput., 2017,
     13, 1989-2009. DOI: 10.1021/acs.jctc.7b00118
   for GFN0-xTB:
   * P. Pracht, E. Caldeweyher, S. Ehlert, S. Grimme, ChemRxiv, 2019, preprint.
     DOI: 10.26434/chemrxiv.8326202.v1
   for GFN-FF:
   * S. Spicher and S. Grimme, Angew. Chem. Int. Ed., 2020, 59, 15665-15673.
     DOI: 10.1002/anie.202004239
   
   for ALPB and GBSA implicit solvation:
   * S. Ehlert, M. Stahn, S. Spicher, S. Grimme, J. Chem. Theory Comput.,
     2021, 17, 4250-4261. DOI: 10.1021/acs.jctc.1c00471
   
   for ddCOSMO and CPCM-X implicit solvation:
   * M. Stahn, S. Ehlert, S. Grimme, J. Phys. Chem. A,
     2023, XX, XXXX-XXXX. DOI: 10.1021/acs.jpca.3c04382
   
   for DFT-D4:
   * E. Caldeweyher, C. Bannwarth and S. Grimme, J. Chem. Phys., 2017,
     147, 034112. DOI: 10.1063/1.4993215
   * E. Caldeweyher, S. Ehlert, A. Hansen, H. Neugebauer, S. Spicher,
     C. Bannwarth and S. Grimme, J. Chem. Phys., 2019, 150, 154122.
     DOI: 10.1063/1.5090222
   * E. Caldeweyher, J.-M. Mewes, S. Ehlert and S. Grimme, Phys. Chem. Chem. Phys.
     2020, 22, 8499-8512. DOI: 10.1039/D0CP00502A
   
   for sTDA-xTB:
   * S. Grimme and C. Bannwarth, J. Chem. Phys., 2016, 145, 054103.
     DOI: 10.1063/1.4959605
   
   in the mass-spec context:
   * V. Asgeirsson, C. Bauer and S. Grimme, Chem. Sci., 2017, 8, 4879.
     DOI: 10.1039/c7sc00601b
   * J. Koopman and S. Grimme, ACS Omega 2019, 4, 12, 15120-15133.
     DOI: 10.1021/acsomega.9b02011
   
   for metadynamics refer to:
   * S. Grimme, J. Chem. Theory Comput., 2019, 155, 2847-2862
     DOI: 10.1021/acs.jctc.9b00143
   
   for SPH calculations refer to:
   * S. Spicher and S. Grimme, J. Chem. Theory Comput., 2021, 17, 1701-1714
     DOI: 10.1021/acs.jctc.0c01306
   
   for ONIOM refer to:
   * C. Plett, A. Katbashev, S. Ehlert, S. Grimme, M. Bursch,
     Phys. Chem. Chem. Phys., 2023, 25, 17860-17868. DOI: 10.1039/D3CP02178E
   
   for DIPRO refer to:
   * J. Kohn, N. Gildemeister, S. Grimme, D. Fazzi, A. Hansen,
     J. Chem. Phys., 2023, just accepted.
   
   for PTB refer to:
   * S. Grimme, M. Mueller, A. Hansen, J. Chem. Phys., 2023, 158, 124111.
     DOI: 10.1063/5.0137838
   
   with help from (in alphabetical order)
   P. Atkinson, C. Bannwarth, F. Bohle, G. Brandenburg, E. Caldeweyher
   M. Checinski, S. Dohm, S. Ehlert, S. Ehrlich, I. Gerasimov, C. Hölzer
   A. Katbashev, J. Kohn, J. Koopman, C. Lavigne, S. Lehtola, F. März, M. Müller,
   F. Musil, H. Neugebauer, J. Pisarek, C. Plett, P. Pracht, F. Pultar,
   J. Seibert, P. Shushkov, S. Spicher, M. Stahn, M. Steiner, T. Strunk,
   J. Stückrath, T. Rose, and J. Unsleber
   
 * started run on 2025/12/01 at 14:23:06.618     
   ID    Z sym.   atoms
    1    6 C      1, 2, 4, 6-8
    2    8 O      3, 5
    3    1 H      9-18

           -------------------------------------------------
          |                Calculation Setup                |
           -------------------------------------------------

          program call               : xtb pipeline_data/3_conformer_xyz/acrylates/rdkit/SUPCQIBBMFXVTL-UHFFFAOYSA-N_conf195.xyz --opt --gfn 2-xTB --iterations 250
          coordinate file            : pipeline_data/3_conformer_xyz/acrylates/rdkit/SUPCQIBBMFXVTL-UHFFFAOYSA-N_conf195.xyz
          omp threads                :                    24

########################################################################
[WARNING] Please study the warnings concerning your input carefully
-1- readin_getIntValue: could not parse '2-xTB'
########################################################################

           -------------------------------------------------
          |                 G F N 2 - x T B                 |
           -------------------------------------------------

        Reference                      10.1021/acs.jctc.8b01176
      * Hamiltonian:
        H0-scaling (s, p, d)           1.850000    2.230000    2.230000
        zeta-weighting                 0.500000
      * Dispersion:
        s8                             2.700000
        a1                             0.520000
        a2                             5.000000
        s9                             5.000000
      * Repulsion:
        kExp                           1.500000    1.000000
        rExp                           1.000000
      * Coulomb:
        alpha                          2.000000
        third order                    shell-resolved
        anisotropic                    true
        a3                             3.000000
        a5                             4.000000
        cn-shift                       1.200000
        cn-exp                         4.000000
        max-rad                        5.000000


          ...................................................
          :                      SETUP                      :
          :.................................................:
          :  # basis functions                  42          :
          :  # atomic orbitals                  42          :
          :  # shells                           26          :
          :  # electrons                        46          :
          :  max. iterations                   250          :
          :  Hamiltonian                  GFN2-xTB          :
          :  restarted?                      false          :
          :  GBSA solvation                  false          :
          :  PC potential                    false          :
          :  electronic temp.          300.0000000     K    :
          :  accuracy                    1.0000000          :
          :  -> integral cutoff          0.2500000E+02      :
          :  -> integral neglect         0.1000000E-07      :
          :  -> SCF convergence          0.1000000E-05 Eh   :
          :  -> wf. convergence          0.1000000E-03 e    :
          :  Broyden damping             0.4000000          :
          :  net charge                          0          :
          :  unpaired electrons                  0          :
          ...................................................

 iter      E             dE          RMSdq      gap      omega  full diag
   1    -26.2758959 -0.262759E+02  0.459E+00    3.96       0.0  T
   2    -26.3363008 -0.604050E-01  0.238E+00    3.13       1.0  T
   3    -26.3377968 -0.149600E-02  0.138E+00    3.69       1.0  T
   4    -26.3436565 -0.585963E-02  0.230E-01    3.43       1.0  T
   5    -26.3440943 -0.437862E-03  0.823E-02    3.49       1.0  T
   6    -26.3440901  0.425922E-05  0.545E-02    3.49       1.0  T
   7    -26.3441110 -0.209547E-04  0.184E-02    3.48       1.3  T
   8    -26.3441132 -0.221868E-05  0.627E-03    3.48       3.8  T
   9    -26.3441134 -0.112385E-06  0.196E-03    3.48      12.0  T
  10    -26.3441134 -0.639707E-08  0.964E-04    3.48      24.4  T
  11    -26.3441134 -0.193129E-08  0.167E-04    3.48     141.2  T

   *** convergence criteria satisfied after 11 iterations ***

         #    Occupation            Energy/Eh            Energy/eV
      -------------------------------------------------------------
         1        2.0000           -0.7254199             -19.7397
       ...           ...                  ...                  ...
        17        2.0000           -0.4696817             -12.7807
        18        2.0000           -0.4662998             -12.6887
        19        2.0000           -0.4605298             -12.5317
        20        2.0000           -0.4523871             -12.3101
        21        2.0000           -0.4310082             -11.7283
        22        2.0000           -0.4194294             -11.4133
        23        2.0000           -0.4097945             -11.1511 (HOMO)
        24                         -0.2819140              -7.6713 (LUMO)
        25                         -0.1676550              -4.5621
        26                         -0.0298313              -0.8118
        27                          0.0831110               2.2616
        28                          0.1047663               2.8508
       ...                                ...                  ...
        42                          0.6458202              17.5737
      -------------------------------------------------------------
                  HL-Gap            0.1278805 Eh            3.4798 eV
             Fermi-level           -0.3458543 Eh           -9.4112 eV

 SCC (total)                   0 d,  0 h,  0 min,  0.015 sec
 SCC setup                      ...        0 min,  0.000 sec (  1.072%)
 Dispersion                     ...        0 min,  0.000 sec (  1.526%)
 classical contributions        ...        0 min,  0.000 sec (  0.332%)
 integral evaluation            ...        0 min,  0.001 sec (  3.723%)
 iterations                     ...        0 min,  0.013 sec ( 82.700%)
 molecular gradient             ...        0 min,  0.002 sec (  9.833%)
 printout                       ...        0 min,  0.000 sec (  0.649%)

         :::::::::::::::::::::::::::::::::::::::::::::::::::::
         ::                     SUMMARY                     ::
         :::::::::::::::::::::::::::::::::::::::::::::::::::::
         :: total energy             -26.045460216159 Eh    ::
         :: gradient norm              0.130687148599 Eh/a0 ::
         :: HOMO-LUMO gap              3.479805086997 eV    ::
         ::.................................................::
         :: SCC energy               -26.344111528650 Eh    ::
         :: -> isotropic ES            0.050207111050 Eh    ::
         :: -> anisotropic ES          0.000740791876 Eh    ::
         :: -> anisotropic XC          0.009331214014 Eh    ::
         :: -> dispersion             -0.010575520351 Eh    ::
         :: repulsion energy           0.298651312492 Eh    ::
         :: add. restraining           0.000000000000 Eh    ::
         :: total charge              -0.000000000000 e     ::
         :::::::::::::::::::::::::::::::::::::::::::::::::::::

      ----------------------------------------------------------- 
     |                   =====================                   |
     |                        A N C O P T                        |
     |                   =====================                   |
     |               Approximate Normal Coordinate               |
     |                Rational Function Optimizer                |
      ----------------------------------------------------------- 
      ----------------------------------------------------------- 
     |                   =====================                   |
     |                        A N C O P T                        |
     |                   =====================                   |
     |               Approximate Normal Coordinate               |
     |                Rational Function Optimizer                |
      ----------------------------------------------------------- 

          ...................................................
          :                      SETUP                      :
          :.................................................:
          :   optimization level            normal          :
          :   max. optcycles                   200          :
          :   ANC micro-cycles                  20          :
          :   degrees of freedom                48          :
          :.................................................:
          :   RF solver                   davidson          :
          :   write xtbopt.log                true          :
          :   linear?                        false          :
          :   energy convergence         0.5000000E-05 Eh   :
          :   grad. convergence          0.1000000E-02 Eh/α :
          :   maxmium RF displ.          1.0000000          :
          :   Hlow (freq-cutoff)         0.1000000E-01      :
          :   Hmax (freq-cutoff)         5.0000000          :
          :   S6 in model hess.         20.0000000          :
          ...................................................

generating ANC from exact Hessian ...
Using Lindh-Hessian (1995)
 Shifting diagonal of input Hessian by   8.542280043981196E-003
 Lowest  eigenvalues of input Hessian
    0.000000    0.000000    0.000000    0.000000    0.000000    0.000000
    0.010000    0.011010    0.012086    0.016822    0.018390    0.021320
    0.021895    0.026468    0.027643    0.034979    0.039563    0.048430
 Highest eigenvalues
    1.174153    1.257224    1.475924    1.811386    1.882891    2.134084
 

........................................................................
.............................. CYCLE    1 ..............................
........................................................................

 iter      E             dE          RMSdq      gap      omega  full diag
   1    -26.3441134 -0.263441E+02  0.814E-05    3.48       0.0  T
   2    -26.3441134 -0.786571E-11  0.491E-05    3.48     480.2  T
   3    -26.3441134  0.232703E-11  0.274E-05    3.48     861.4  T
     SCC iter.                  ...        0 min,  0.004 sec
     gradient                   ...        0 min,  0.002 sec
 * total energy  :   -26.0454602 Eh     change       -0.6938805E-10 Eh
   gradient norm :     0.1306863 Eh/α   predicted     0.0000000E+00 (-100.00%)
   displ. norm   :     0.2935198 α      lambda       -0.1874455E-01
   maximum displ.:     0.1297050 α      in ANC's #9, #7, #28, ...

........................................................................
.............................. CYCLE    2 ..............................
........................................................................

 iter      E             dE          RMSdq      gap      omega  full diag
   1    -26.3750229 -0.263750E+02  0.325E-01    3.64       0.0  T
   2    -26.3753472 -0.324287E-03  0.200E-01    3.68       1.0  T
   3    -26.3753478 -0.657259E-06  0.844E-02    3.70       1.0  T
   4    -26.3753718 -0.239718E-04  0.154E-02    3.69       1.5  T
   5    -26.3753736 -0.184397E-05  0.679E-03    3.69       3.5  T
   6    -26.3753737 -0.424666E-07  0.353E-03    3.69       6.7  T
   7    -26.3753738 -0.864014E-07  0.167E-03    3.69      14.1  T
   8    -26.3753738 -0.224057E-07  0.597E-04    3.69      39.5  T
   9    -26.3753738 -0.681389E-09  0.140E-04    3.69     168.1  T
     SCC iter.                  ...        0 min,  0.011 sec
     gradient                   ...        0 min,  0.002 sec
 * total energy  :   -26.0581168 Eh     change       -0.1265656E-01 Eh
   gradient norm :     0.0496031 Eh/α   predicted    -0.1017972E-01 ( -19.57%)
   displ. norm   :     0.2778852 α      lambda       -0.4796868E-02
   maximum displ.:     0.1790547 α      in ANC's #7, #9, #11, ...

........................................................................
.............................. CYCLE    3 ..............................
........................................................................

 iter      E             dE          RMSdq      gap      omega  full diag
   1    -26.3893515 -0.263894E+02  0.193E-01    3.79       0.0  T
   2    -26.3894709 -0.119361E-03  0.120E-01    3.82       1.0  T
   3    -26.3894718 -0.981590E-06  0.496E-02    3.83       1.0  T
   4    -26.3894789 -0.702415E-05  0.105E-02    3.82       2.3  T
   5    -26.3894795 -0.579281E-06  0.474E-03    3.83       5.0  T
   6    -26.3894795 -0.449069E-07  0.303E-03    3.83       7.8  T
   7    -26.3894796 -0.101988E-06  0.670E-04    3.83      35.2  T
   8    -26.3894796 -0.739568E-09  0.325E-04    3.83      72.6  T
     SCC iter.                  ...        0 min,  0.017 sec
     gradient                   ...        0 min,  0.002 sec
 * total energy  :   -26.0607919 Eh     change       -0.2675113E-02 Eh
   gradient norm :     0.0153535 Eh/α   predicted    -0.2583638E-02 (  -3.42%)
   displ. norm   :     0.1399639 α      lambda       -0.5497047E-03
   maximum displ.:     0.0992094 α      in ANC's #7, #9, #5, ...

........................................................................
.............................. CYCLE    4 ..............................
........................................................................

 iter      E             dE          RMSdq      gap      omega  full diag
   1    -26.3888767 -0.263889E+02  0.661E-02    3.84       0.0  T
   2    -26.3888902 -0.135139E-04  0.418E-02    3.83       1.0  T
   3    -26.3888895  0.714532E-06  0.204E-02    3.83       1.2  T
   4    -26.3888893  0.254489E-06  0.115E-02    3.83       2.0  T
   5    -26.3888911 -0.178532E-05  0.149E-03    3.83      15.8  T
   6    -26.3888911 -0.172578E-07  0.659E-04    3.83      35.8  T
   7    -26.3888911 -0.805482E-09  0.211E-04    3.83     111.7  T
     SCC iter.                  ...        0 min,  0.008 sec
     gradient                   ...        0 min,  0.002 sec
 * total energy  :   -26.0611655 Eh     change       -0.3736332E-03 Eh
   gradient norm :     0.0071851 Eh/α   predicted    -0.2802390E-03 ( -25.00%)
   displ. norm   :     0.1333669 α      lambda       -0.2522278E-03
   maximum displ.:     0.0802734 α      in ANC's #7, #8, #5, ...

........................................................................
.............................. CYCLE    5 ..............................
........................................................................

 iter      E             dE          RMSdq      gap      omega  full diag
   1    -26.3883574 -0.263884E+02  0.537E-02    3.84       0.0  T
   2    -26.3883654 -0.804222E-05  0.319E-02    3.83       1.0  T
   3    -26.3883655 -0.957048E-07  0.135E-02    3.84       1.8  T
   4    -26.3883656 -0.886698E-07  0.295E-03    3.83       8.0  T
   5    -26.3883657 -0.982418E-07  0.121E-03    3.83      19.4  T
   6    -26.3883657 -0.142801E-07  0.578E-04    3.83      40.8  T
   7    -26.3883657 -0.108777E-08  0.171E-04    3.83     137.7  T
     SCC iter.                  ...        0 min,  0.008 sec
     gradient                   ...        0 min,  0.002 sec
 * total energy  :   -26.0613193 Eh     change       -0.1538073E-03 Eh
   gradient norm :     0.0032924 Eh/α   predicted    -0.1283570E-03 ( -16.55%)
   displ. norm   :     0.0827947 α      lambda       -0.8481766E-04
   maximum displ.:     0.0412423 α      in ANC's #5, #8, #2, ...

........................................................................
.............................. CYCLE    6 ..............................
........................................................................

 iter      E             dE          RMSdq      gap      omega  full diag
   1    -26.3885380 -0.263885E+02  0.302E-02    3.84       0.0  T
   2    -26.3885385 -0.505796E-06  0.177E-02    3.84       1.3  T
   3    -26.3885376  0.948902E-06  0.102E-02    3.83       2.3  T
   4    -26.3885387 -0.112845E-05  0.208E-03    3.84      11.3  T
   5    -26.3885388 -0.462393E-07  0.565E-04    3.84      41.7  T
   6    -26.3885388 -0.619330E-09  0.284E-04    3.84      82.9  T
     SCC iter.                  ...        0 min,  0.008 sec
     gradient                   ...        0 min,  0.002 sec
 * total energy  :   -26.0613783 Eh     change       -0.5898914E-04 Eh
   gradient norm :     0.0034120 Eh/α   predicted    -0.4269869E-04 ( -27.62%)
   displ. norm   :     0.1114883 α      lambda       -0.8046082E-04
   maximum displ.:     0.0608246 α      in ANC's #5, #8, #2, ...

........................................................................
.............................. CYCLE    7 ..............................
........................................................................

 iter      E             dE          RMSdq      gap      omega  full diag
   1    -26.3887685 -0.263888E+02  0.420E-02    3.84       0.0  T
   2    -26.3887687 -0.201295E-06  0.255E-02    3.84       1.0  T
   3    -26.3887662  0.252026E-05  0.144E-02    3.83       1.6  T
   4    -26.3887691 -0.288255E-05  0.122E-03    3.84      19.3  T
   5    -26.3887691 -0.367235E-08  0.645E-04    3.84      36.5  T
   6    -26.3887691 -0.446708E-09  0.217E-04    3.84     108.5  T
     SCC iter.                  ...        0 min,  0.007 sec
     gradient                   ...        0 min,  0.002 sec
 * total energy  :   -26.0614354 Eh     change       -0.5709783E-04 Eh
   gradient norm :     0.0037744 Eh/α   predicted    -0.4073123E-04 ( -28.66%)
   displ. norm   :     0.1311319 α      lambda       -0.7226663E-04
   maximum displ.:     0.0766743 α      in ANC's #2, #5, #8, ...

........................................................................
.............................. CYCLE    8 ..............................
........................................................................

 iter      E             dE          RMSdq      gap      omega  full diag
   1    -26.3889666 -0.263890E+02  0.454E-02    3.84       0.0  T
   2    -26.3889672 -0.656238E-06  0.275E-02    3.84       1.0  T
   3    -26.3889656  0.166089E-05  0.122E-02    3.84       1.9  T
   4    -26.3889674 -0.186181E-05  0.227E-03    3.84      10.4  T
   5    -26.3889675 -0.645497E-07  0.747E-04    3.84      31.6  T
   6    -26.3889675 -0.120046E-08  0.370E-04    3.84      63.8  T
     SCC iter.                  ...        0 min,  0.007 sec
     gradient                   ...        0 min,  0.002 sec
 * total energy  :   -26.0614894 Eh     change       -0.5394345E-04 Eh
   gradient norm :     0.0034400 Eh/α   predicted    -0.3675529E-04 ( -31.86%)
   displ. norm   :     0.1538537 α      lambda       -0.7346660E-04
   maximum displ.:     0.0985669 α      in ANC's #2, #5, #8, ...

........................................................................
.............................. CYCLE    9 ..............................
........................................................................

 iter      E             dE          RMSdq      gap      omega  full diag
   1    -26.3890208 -0.263890E+02  0.516E-02    3.84       0.0  T
   2    -26.3890216 -0.807540E-06  0.308E-02    3.84       1.0  T
   3    -26.3890213  0.241126E-06  0.581E-03    3.84       4.1  T
   4    -26.3890216 -0.277364E-06  0.253E-03    3.84       9.3  T
   5    -26.3890217 -0.801492E-07  0.871E-04    3.84      27.1  T
   6    -26.3890217 -0.263402E-08  0.414E-04    3.84      56.9  T
     SCC iter.                  ...        0 min,  0.007 sec
     gradient                   ...        0 min,  0.001 sec
 * total energy  :   -26.0615442 Eh     change       -0.5485368E-04 Eh
   gradient norm :     0.0028412 Eh/α   predicted    -0.3760447E-04 ( -31.45%)
   displ. norm   :     0.1532803 α      lambda       -0.6275273E-04
   maximum displ.:     0.1048733 α      in ANC's #2, #5, #8, ...

........................................................................
.............................. CYCLE   10 ..............................
........................................................................

 iter      E             dE          RMSdq      gap      omega  full diag
   1    -26.3890159 -0.263890E+02  0.537E-02    3.84       0.0  T
   2    -26.3890161 -0.215952E-06  0.318E-02    3.84       1.0  T
   3    -26.3890160  0.153540E-06  0.416E-03    3.84       5.7  T
   4    -26.3890162 -0.216920E-06  0.166E-03    3.84      14.2  T
   5    -26.3890162 -0.228426E-07  0.707E-04    3.84      33.3  T
   6    -26.3890162 -0.381064E-09  0.185E-04    3.84     127.1  T
     SCC iter.                  ...        0 min,  0.003 sec
     gradient                   ...        0 min,  0.001 sec
 * total energy  :   -26.0615884 Eh     change       -0.4414345E-04 Eh
   gradient norm :     0.0023810 Eh/α   predicted    -0.3211340E-04 ( -27.25%)
   displ. norm   :     0.1273210 α      lambda       -0.4310274E-04
   maximum displ.:     0.0920096 α      in ANC's #2, #5, #1, ...

........................................................................
.............................. CYCLE   11 ..............................
........................................................................

 iter      E             dE          RMSdq      gap      omega  full diag
   1    -26.3892269 -0.263892E+02  0.428E-02    3.84       0.0  T
   2    -26.3892270 -0.122545E-06  0.254E-02    3.84       1.0  T
   3    -26.3892268  0.205999E-06  0.448E-03    3.84       5.3  T
   4    -26.3892270 -0.259758E-06  0.109E-03    3.84      21.7  T
   5    -26.3892271 -0.596118E-08  0.575E-04    3.84      41.0  T
   6    -26.3892271 -0.112406E-08  0.169E-04    3.84     139.2  T
     SCC iter.                  ...        0 min,  0.003 sec
     gradient                   ...        0 min,  0.001 sec
 * total energy  :   -26.0616191 Eh     change       -0.3078470E-04 Eh
   gradient norm :     0.0026803 Eh/α   predicted    -0.2190350E-04 ( -28.85%)
   displ. norm   :     0.1204217 α      lambda       -0.3875599E-04
   maximum displ.:     0.0874825 α      in ANC's #2, #5, #1, ...

........................................................................
.............................. CYCLE   12 ..............................
........................................................................

 iter      E             dE          RMSdq      gap      omega  full diag
   1    -26.3893622 -0.263894E+02  0.430E-02    3.84       0.0  T
   2    -26.3893626 -0.318592E-06  0.256E-02    3.84       1.0  T
   3    -26.3893624  0.102122E-06  0.369E-03    3.84       6.4  T
   4    -26.3893626 -0.134043E-06  0.131E-03    3.84      18.0  T
   5    -26.3893626 -0.187031E-07  0.590E-04    3.84      40.0  T
   6    -26.3893626 -0.195879E-08  0.264E-04    3.84      89.2  T
     SCC iter.                  ...        0 min,  0.003 sec
     gradient                   ...        0 min,  0.001 sec
 * total energy  :   -26.0616490 Eh     change       -0.2990148E-04 Eh
   gradient norm :     0.0023946 Eh/α   predicted    -0.1965892E-04 ( -34.25%)
   displ. norm   :     0.1681871 α      lambda       -0.4777596E-04
   maximum displ.:     0.1188639 α      in ANC's #2, #5, #1, ...

........................................................................
.............................. CYCLE   13 ..............................
........................................................................

 iter      E             dE          RMSdq      gap      omega  full diag
   1    -26.3892214 -0.263892E+02  0.565E-02    3.85       0.0  T
   2    -26.3892217 -0.320737E-06  0.336E-02    3.85       1.0  T
   3    -26.3892211  0.577691E-06  0.666E-03    3.85       3.5  T
   4    -26.3892217 -0.642887E-06  0.196E-03    3.85      12.0  T
   5    -26.3892218 -0.423799E-07  0.641E-04    3.85      36.8  T
   6    -26.3892218 -0.631317E-09  0.297E-04    3.85      79.4  T
     SCC iter.                  ...        0 min,  0.004 sec
     gradient                   ...        0 min,  0.001 sec
 * total energy  :   -26.0616840 Eh     change       -0.3492651E-04 Eh
   gradient norm :     0.0026999 Eh/α   predicted    -0.2455974E-04 ( -29.68%)
   displ. norm   :     0.1569423 α      lambda       -0.5183812E-04
   maximum displ.:     0.1005152 α      in ANC's #2, #4, #1, ...

........................................................................
.............................. CYCLE   14 ..............................
........................................................................

 iter      E             dE          RMSdq      gap      omega  full diag
   1    -26.3901800 -0.263902E+02  0.549E-02    3.85       0.0  T
   2    -26.3901802 -0.188750E-06  0.327E-02    3.85       1.0  T
   3    -26.3901786  0.164870E-05  0.110E-02    3.85       2.2  T
   4    -26.3901804 -0.183118E-05  0.136E-03    3.85      17.3  T
   5    -26.3901804 -0.122347E-07  0.616E-04    3.85      38.3  T
   6    -26.3901804 -0.704780E-09  0.215E-04    3.85     109.9  T
     SCC iter.                  ...        0 min,  0.003 sec
     gradient                   ...        0 min,  0.001 sec
 * total energy  :   -26.0617152 Eh     change       -0.3118515E-04 Eh
   gradient norm :     0.0027019 Eh/α   predicted    -0.2655750E-04 ( -14.84%)
   displ. norm   :     0.2501473 α      lambda       -0.5595256E-04
   maximum displ.:     0.1646763 α      in ANC's #2, #5, #4, ...

........................................................................
.............................. CYCLE   15 ..............................
........................................................................

 iter      E             dE          RMSdq      gap      omega  full diag
   1    -26.3873754 -0.263874E+02  0.825E-02    3.85       0.0  T
   2    -26.3873777 -0.232747E-05  0.487E-02    3.85       1.0  T
   3    -26.3873731  0.454971E-05  0.202E-02    3.85       1.2  T
   4    -26.3873782 -0.507310E-05  0.388E-03    3.85       6.1  T
   5    -26.3873784 -0.171797E-06  0.117E-03    3.85      20.1  T
   6    -26.3873784 -0.119903E-08  0.447E-04    3.85      52.7  T
   7    -26.3873784 -0.536009E-09  0.110E-04    3.85     214.0  T
     SCC iter.                  ...        0 min,  0.004 sec
     gradient                   ...        0 min,  0.001 sec
 * total energy  :   -26.0617084 Eh     change        0.6796059E-05 Eh
   gradient norm :     0.0059840 Eh/α   predicted    -0.2972668E-04 (-537.41%)
   displ. norm   :     0.1164254 α      lambda       -0.1063095E-03
   maximum displ.:     0.0873154 α      in ANC's #2, #5, #1, ...

........................................................................
.............................. CYCLE   16 ..............................
........................................................................

 iter      E             dE          RMSdq      gap      omega  full diag
   1    -26.3898593 -0.263899E+02  0.459E-02    3.85       0.0  T
   2    -26.3898608 -0.143985E-05  0.264E-02    3.85       1.0  T
   3    -26.3898608 -0.502164E-07  0.512E-03    3.85       4.6  T
   4    -26.3898608 -0.213645E-07  0.189E-03    3.85      12.4  T
   5    -26.3898609 -0.286011E-07  0.879E-04    3.85      26.8  T
   6    -26.3898609 -0.226704E-08  0.298E-04    3.85      79.0  T
     SCC iter.                  ...        0 min,  0.003 sec
     gradient                   ...        0 min,  0.001 sec
 * total energy  :   -26.0617541 Eh     change       -0.4571146E-04 Eh
   gradient norm :     0.0023295 Eh/α   predicted    -0.5387731E-04 (  17.86%)
   displ. norm   :     0.0703922 α      lambda       -0.4679969E-04
   maximum displ.:     0.0601033 α      in ANC's #4, #5, #1, ...

........................................................................
.............................. CYCLE   17 ..............................
........................................................................

 iter      E             dE          RMSdq      gap      omega  full diag
   1    -26.3907725 -0.263908E+02  0.252E-02    3.85       0.0  T
   2    -26.3907733 -0.812397E-06  0.146E-02    3.85       1.6  T
   3    -26.3907732  0.133372E-06  0.568E-03    3.85       4.1  T
   4    -26.3907733 -0.117745E-06  0.260E-03    3.85       9.1  T
   5    -26.3907734 -0.884055E-07  0.572E-04    3.85      41.2  T
   6    -26.3907734 -0.807795E-09  0.276E-04    3.85      85.5  T
     SCC iter.                  ...        0 min,  0.003 sec
     gradient                   ...        0 min,  0.001 sec
 * total energy  :   -26.0617775 Eh     change       -0.2337969E-04 Eh
   gradient norm :     0.0030393 Eh/α   predicted    -0.2351662E-04 (   0.59%)
   displ. norm   :     0.1229519 α      lambda       -0.4046800E-04
   maximum displ.:     0.0787996 α      in ANC's #4, #5, #2, ...

........................................................................
.............................. CYCLE   18 ..............................
........................................................................

 iter      E             dE          RMSdq      gap      omega  full diag
   1    -26.3902512 -0.263903E+02  0.367E-02    3.86       0.0  T
   2    -26.3902516 -0.341512E-06  0.220E-02    3.86       1.1  T
   3    -26.3902503  0.127470E-05  0.105E-02    3.86       2.2  T
   4    -26.3902517 -0.142994E-05  0.143E-03    3.86      16.5  T
   5    -26.3902517 -0.244984E-07  0.442E-04    3.86      53.3  T
   6    -26.3902517 -0.281336E-09  0.208E-04    3.86     113.2  T
     SCC iter.                  ...        0 min,  0.003 sec
     gradient                   ...        0 min,  0.001 sec
 * total energy  :   -26.0618110 Eh     change       -0.3357950E-04 Eh
   gradient norm :     0.0032524 Eh/α   predicted    -0.2054109E-04 ( -38.83%)
   displ. norm   :     0.2399176 α      lambda       -0.7993215E-04
   maximum displ.:     0.1650292 α      in ANC's #4, #5, #1, ...

........................................................................
.............................. CYCLE   19 ..............................
........................................................................

 iter      E             dE          RMSdq      gap      omega  full diag
   1    -26.3884889 -0.263885E+02  0.741E-02    3.86       0.0  T
   2    -26.3884903 -0.147061E-05  0.440E-02    3.86       1.0  T
   3    -26.3884875  0.286950E-05  0.158E-02    3.86       1.5  T
   4    -26.3884906 -0.314375E-05  0.331E-03    3.86       7.1  T
   5    -26.3884908 -0.136667E-06  0.933E-04    3.86      25.3  T
   6    -26.3884908 -0.130901E-08  0.420E-04    3.86      56.2  T
     SCC iter.                  ...        0 min,  0.003 sec
     gradient                   ...        0 min,  0.001 sec
 * total energy  :   -26.0618434 Eh     change       -0.3237583E-04 Eh
   gradient norm :     0.0056052 Eh/α   predicted    -0.4226520E-04 (  30.55%)
   displ. norm   :     0.0864095 α      lambda       -0.6984739E-04
   maximum displ.:     0.0726969 α      in ANC's #2, #1, #5, ...

........................................................................
.............................. CYCLE   20 ..............................
........................................................................

 iter      E             dE          RMSdq      gap      omega  full diag
   1    -26.3895834 -0.263896E+02  0.389E-02    3.86       0.0  T
   2    -26.3895844 -0.106386E-05  0.224E-02    3.86       1.1  T
   3    -26.3895837  0.693752E-06  0.914E-03    3.86       2.6  T
   4    -26.3895845 -0.763624E-06  0.282E-03    3.86       8.3  T
   5    -26.3895846 -0.998321E-07  0.756E-04    3.86      31.2  T
   6    -26.3895846 -0.113685E-08  0.262E-04    3.86      90.0  T
     SCC iter.                  ...        0 min,  0.004 sec
     gradient                   ...        0 min,  0.001 sec
 * total energy  :   -26.0618733 Eh     change       -0.2988852E-04 Eh
   gradient norm :     0.0024582 Eh/α   predicted    -0.3518635E-04 (  17.73%)
   displ. norm   :     0.0696941 α      lambda       -0.2903553E-04
   maximum displ.:     0.0548968 α      in ANC's #4, #5, #1, ...
 * RMSD in coord.:     0.4220338 α      energy gain  -0.1641308E-01 Eh

generating ANC from exact Hessian ...
Using Lindh-Hessian (1995)
 Shifting diagonal of input Hessian by   8.389820671070178E-003
 Lowest  eigenvalues of input Hessian
    0.000000    0.000000    0.000000    0.000000    0.000000    0.000000
    0.010000    0.011160    0.012312    0.017439    0.019001    0.021131
    0.022089    0.027098    0.028307    0.036138    0.042992    0.054409
 Highest eigenvalues
    1.272400    1.279128    1.469377    1.830602    1.920716    2.377217
 

........................................................................
.............................. CYCLE   21 ..............................
........................................................................

 iter      E             dE          RMSdq      gap      omega  full diag
   1    -26.3897449 -0.263897E+02  0.218E-02    3.86       0.0  T
   2    -26.3897449 -0.590501E-07  0.130E-02    3.86       1.8  T
   3    -26.3897449  0.305382E-07  0.189E-03    3.86      12.4  T
   4    -26.3897449 -0.379238E-07  0.648E-04    3.86      36.4  T
   5    -26.3897449 -0.439892E-08  0.265E-04    3.86      88.8  T
     SCC iter.                  ...        0 min,  0.003 sec
     gradient                   ...        0 min,  0.001 sec
 * total energy  :   -26.0618985 Eh     change       -0.2521041E-04 Eh
   gradient norm :     0.0018196 Eh/α   predicted     0.0000000E+00 (-100.00%)
   displ. norm   :     0.0284016 α      lambda       -0.1298707E-04
   maximum displ.:     0.0164919 α      in ANC's #4, #8, #7, ...

........................................................................
.............................. CYCLE   22 ..............................
........................................................................

 iter      E             dE          RMSdq      gap      omega  full diag
   1    -26.3902490 -0.263902E+02  0.129E-02    3.86       0.0  T
   2    -26.3902490 -0.587970E-07  0.758E-03    3.86       3.1  T
   3    -26.3902489  0.127804E-06  0.355E-03    3.86       6.6  T
   4    -26.3902491 -0.146610E-06  0.593E-04    3.86      39.8  T
   5    -26.3902491 -0.428005E-08  0.220E-04    3.86     107.1  T
     SCC iter.                  ...        0 min,  0.003 sec
     gradient                   ...        0 min,  0.001 sec
 * total energy  :   -26.0619122 Eh     change       -0.1369580E-04 Eh
   gradient norm :     0.0006135 Eh/α   predicted    -0.6495101E-05 ( -52.58%)
   displ. norm   :     0.0506547 α      lambda       -0.1119393E-04
   maximum displ.:     0.0342468 α      in ANC's #4, #8, #5, ...

........................................................................
.............................. CYCLE   23 ..............................
........................................................................

 iter      E             dE          RMSdq      gap      omega  full diag
   1    -26.3903438 -0.263903E+02  0.210E-02    3.86       0.0  T
   2    -26.3903439 -0.292631E-07  0.124E-02    3.86       1.9  T
   3    -26.3903438  0.104075E-06  0.298E-03    3.86       7.9  T
   4    -26.3903439 -0.121807E-06  0.525E-04    3.86      44.9  T
   5    -26.3903439 -0.204687E-08  0.279E-04    3.86      84.4  T
     SCC iter.                  ...        0 min,  0.003 sec
     gradient                   ...        0 min,  0.001 sec
 * total energy  :   -26.0619228 Eh     change       -0.1059875E-04 Eh
   gradient norm :     0.0008930 Eh/α   predicted    -0.5603455E-05 ( -47.13%)
   displ. norm   :     0.0677456 α      lambda       -0.9494212E-05
   maximum displ.:     0.0533945 α      in ANC's #4, #5, #8, ...

........................................................................
.............................. CYCLE   24 ..............................
........................................................................

 iter      E             dE          RMSdq      gap      omega  full diag
   1    -26.3902112 -0.263902E+02  0.266E-02    3.86       0.0  T
   2    -26.3902113 -0.496128E-07  0.158E-02    3.86       1.5  T
   3    -26.3902113  0.124277E-07  0.165E-03    3.86      14.3  T
   4    -26.3902113 -0.265874E-07  0.751E-04    3.86      31.4  T
   5    -26.3902113 -0.444863E-08  0.347E-04    3.86      68.0  T
     SCC iter.                  ...        0 min,  0.003 sec
     gradient                   ...        0 min,  0.001 sec
 * total energy  :   -26.0619299 Eh     change       -0.7146349E-05 Eh
   gradient norm :     0.0012839 Eh/α   predicted    -0.4757841E-05 ( -33.42%)
   displ. norm   :     0.0653892 α      lambda       -0.9647458E-05
   maximum displ.:     0.0515176 α      in ANC's #4, #5, #9, ...

........................................................................
.............................. CYCLE   25 ..............................
........................................................................

 iter      E             dE          RMSdq      gap      omega  full diag
   1    -26.3901437 -0.263901E+02  0.244E-02    3.86       0.0  T
   2    -26.3901437 -0.550520E-07  0.144E-02    3.86       1.6  T
   3    -26.3901437  0.664655E-07  0.266E-03    3.86       8.8  T
   4    -26.3901437 -0.896315E-07  0.734E-04    3.86      32.1  T
   5    -26.3901438 -0.328152E-08  0.399E-04    3.86      59.1  T
     SCC iter.                  ...        0 min,  0.003 sec
     gradient                   ...        0 min,  0.001 sec
 * total energy  :   -26.0619419 Eh     change       -0.1196980E-04 Eh
   gradient norm :     0.0010274 Eh/α   predicted    -0.4832170E-05 ( -59.63%)
   displ. norm   :     0.1374886 α      lambda       -0.2016578E-04
   maximum displ.:     0.1063022 α      in ANC's #4, #5, #6, ...

........................................................................
.............................. CYCLE   26 ..............................
........................................................................

 iter      E             dE          RMSdq      gap      omega  full diag
   1    -26.3898824 -0.263899E+02  0.495E-02    3.85       0.0  T
   2    -26.3898827 -0.335125E-06  0.294E-02    3.86       1.0  T
   3    -26.3898824  0.349879E-06  0.617E-03    3.85       3.8  T
   4    -26.3898828 -0.458606E-06  0.183E-03    3.86      12.9  T
   5    -26.3898828 -0.265007E-07  0.936E-04    3.86      25.2  T
   6    -26.3898828 -0.160020E-08  0.312E-04    3.86      75.6  T
     SCC iter.                  ...        0 min,  0.003 sec
     gradient                   ...        0 min,  0.001 sec
 * total energy  :   -26.0619636 Eh     change       -0.2166388E-04 Eh
   gradient norm :     0.0015751 Eh/α   predicted    -0.1016728E-04 ( -53.07%)
   displ. norm   :     0.1243131 α      lambda       -0.1344361E-04
   maximum displ.:     0.0932924 α      in ANC's #4, #5, #6, ...

........................................................................
.............................. CYCLE   27 ..............................
........................................................................

 iter      E             dE          RMSdq      gap      omega  full diag
   1    -26.3896845 -0.263897E+02  0.457E-02    3.85       0.0  T
   2    -26.3896848 -0.220510E-06  0.271E-02    3.85       1.0  T
   3    -26.3896848 -0.842210E-08  0.296E-03    3.85       8.0  T
   4    -26.3896849 -0.758030E-07  0.137E-03    3.85      17.2  T
   5    -26.3896849 -0.539277E-08  0.871E-04    3.85      27.1  T
   6    -26.3896849 -0.344005E-08  0.261E-04    3.85      90.4  T
     SCC iter.                  ...        0 min,  0.003 sec
     gradient                   ...        0 min,  0.001 sec
 * total energy  :   -26.0619767 Eh     change       -0.1308960E-04 Eh
   gradient norm :     0.0020643 Eh/α   predicted    -0.6767319E-05 ( -48.30%)
   displ. norm   :     0.0473355 α      lambda       -0.1103242E-04
   maximum displ.:     0.0309090 α      in ANC's #4, #5, #6, ...

........................................................................
.............................. CYCLE   28 ..............................
........................................................................

 iter      E             dE          RMSdq      gap      omega  full diag
   1    -26.3901175 -0.263901E+02  0.181E-02    3.85       0.0  T
   2    -26.3901176 -0.469406E-07  0.107E-02    3.85       2.2  T
   3    -26.3901176 -0.136396E-07  0.929E-04    3.85      25.4  T
   4    -26.3901176 -0.124744E-08  0.584E-04    3.85      40.4  T
     SCC iter.                  ...        0 min,  0.002 sec
     gradient                   ...        0 min,  0.001 sec
 * total energy  :   -26.0619846 Eh     change       -0.7901246E-05 Eh
   gradient norm :     0.0011911 Eh/α   predicted    -0.5529807E-05 ( -30.01%)
   displ. norm   :     0.1854736 α      lambda       -0.1366256E-04
   maximum displ.:     0.1278756 α      in ANC's #4, #5, #6, ...

........................................................................
.............................. CYCLE   29 ..............................
........................................................................

 iter      E             dE          RMSdq      gap      omega  full diag
   1    -26.3896339 -0.263896E+02  0.704E-02    3.85       0.0  T
   2    -26.3896345 -0.625723E-06  0.418E-02    3.85       1.0  T
   3    -26.3896340  0.524635E-06  0.765E-03    3.85       3.1  T
   4    -26.3896347 -0.756585E-06  0.269E-03    3.85       8.8  T
   5    -26.3896348 -0.457462E-07  0.128E-03    3.85      18.4  T
   6    -26.3896348 -0.167539E-08  0.436E-04    3.85      54.1  T
   7    -26.3896348 -0.102302E-08  0.972E-05    3.85     242.6  T
     SCC iter.                  ...        0 min,  0.004 sec
     gradient                   ...        0 min,  0.001 sec
 * total energy  :   -26.0619929 Eh     change       -0.8348400E-05 Eh
   gradient norm :     0.0022141 Eh/α   predicted    -0.6935215E-05 ( -16.93%)
   displ. norm   :     0.0201104 α      lambda       -0.1233717E-04
   maximum displ.:     0.0115247 α      in ANC's #2, #4, #3, ...

........................................................................
.............................. CYCLE   30 ..............................
........................................................................

 iter      E             dE          RMSdq      gap      omega  full diag
   1    -26.3903622 -0.263904E+02  0.106E-02    3.85       0.0  T
   2    -26.3903623 -0.153237E-06  0.597E-03    3.85       4.0  T
   3    -26.3903623  0.210011E-07  0.255E-03    3.85       9.2  T
   4    -26.3903623 -0.274483E-07  0.945E-04    3.85      25.0  T
   5    -26.3903623 -0.108222E-07  0.342E-04    3.85      68.9  T
     SCC iter.                  ...        0 min,  0.003 sec
     gradient                   ...        0 min,  0.001 sec
 * total energy  :   -26.0619994 Eh     change       -0.6474373E-05 Eh
   gradient norm :     0.0010277 Eh/α   predicted    -0.6171864E-05 (  -4.67%)
   displ. norm   :     0.0542239 α      lambda       -0.4947910E-05
   maximum displ.:     0.0327514 α      in ANC's #5, #4, #6, ...

........................................................................
.............................. CYCLE   31 ..............................
........................................................................

 iter      E             dE          RMSdq      gap      omega  full diag
   1    -26.3904920 -0.263905E+02  0.199E-02    3.85       0.0  T
   2    -26.3904920 -0.625011E-07  0.118E-02    3.85       2.0  T
   3    -26.3904920 -0.124444E-07  0.115E-03    3.85      20.5  T
   4    -26.3904920 -0.711916E-08  0.635E-04    3.85      37.1  T
   5    -26.3904920 -0.130730E-08  0.396E-04    3.85      59.6  T
     SCC iter.                  ...        0 min,  0.003 sec
     gradient                   ...        0 min,  0.002 sec
 * total energy  :   -26.0620041 Eh     change       -0.4751691E-05 Eh
   gradient norm :     0.0005953 Eh/α   predicted    -0.2477098E-05 ( -47.87%)
   displ. norm   :     0.1205327 α      lambda       -0.5114482E-05
   maximum displ.:     0.0749472 α      in ANC's #5, #4, #6, ...

   *** GEOMETRY OPTIMIZATION CONVERGED AFTER 31 ITERATIONS ***

------------------------------------------------------------------------
 total energy gain   :        -0.0165439 Eh      -10.3815 kcal/mol
 total RMSD          :         0.5317859 a0        0.2814 Å
 total power (kW/mol):        -1.4011639 (step) -180.4198 (real)
------------------------------------------------------------------------

 ANCopt (total)                0 d,  0 h,  0 min,  0.241 sec
 optimizer setup                ...        0 min,  0.000 sec (  0.039%)
 model hessian                  ...        0 min,  0.007 sec (  2.924%)
 ANC generation                 ...        0 min,  0.001 sec (  0.379%)
 coordinate transformation      ...        0 min,  0.000 sec (  0.089%)
 single point calculation       ...        0 min,  0.217 sec ( 90.079%)
 optimization log               ...        0 min,  0.008 sec (  3.171%)
 hessian update                 ...        0 min,  0.003 sec (  1.266%)
 rational function              ...        0 min,  0.004 sec (  1.578%)

================
 final structure:
================
18
 xtb: 6.7.1 (edcfbbe)
C            3.09391938015891        0.33066408224145        0.07449847513786
C            1.87767943935538       -0.06898065751970       -0.73921529323212
O            0.71843234016051        0.07922962998956        0.08035930890594
C           -0.45179294427728       -0.21985569928513       -0.49664607946882
O           -0.54429971486770       -0.58924839576671       -1.64282754065482
C           -1.61356873249289       -0.05197117936096        0.41919251090129
C           -2.94476337587219       -0.25917268681116       -0.22991385411053
C           -1.44760837036445        0.24419612661116        1.70350662168197
H            3.17127975590844       -0.29217587151779        0.96167399136695
H            3.99060162341318        0.20758086553603       -0.52553927212559
H            3.01266146613000        1.36880145936520        0.38476931235557
H            1.76549656631174        0.56218082176555       -1.62836068318631
H            1.94411207300590       -1.11127750655184       -1.07207666898229
H           -2.96387760973423       -1.22690414323920       -0.72713456271248
H           -3.74678920732846       -0.20683108249488        0.50045629269986
H           -3.10365816155204        0.49829667736772       -0.99577414521838
H           -0.46867578645398        0.37951466310146        2.12827875153471
H           -2.28914974150103        0.35595189656920        2.36695283510723
 
 Bond Distances (Angstroems)
 ---------------------------
C1-C2=1.5169         C1-H9=1.0867         C1-H10=1.0859        C1-H11=1.0866        C2-C1=1.5169         C2-O3=1.4274         
C2-H12=1.0961        C2-H13=1.0962        O3-C2=1.4274         O3-C4=1.3386         C4-O3=1.3386         C4-O5=1.2078         
C4-C6=1.4888         O5-C4=1.2078         C6-C4=1.4888         C6-C7=1.4954         C6-C8=1.3284         C7-C6=1.4954         
C7-H14=1.0882        C7-H15=1.0860        C7-H16=1.0888        C8-C6=1.3284         C8-H17=1.0757        C8-H18=1.0774        
H9-C1=1.0867         H10-C1=1.0859        H11-C1=1.0866        H12-C2=1.0961        H13-C2=1.0962        H14-C7=1.0882        
H15-C7=1.0860        H16-C7=1.0888        H17-C8=1.0757        H18-C8=1.0774        
 C  H  Rav=1.0868 sigma=0.0063  Rmin=1.0757  Rmax=1.0962    10
 C  C  Rav=1.4574 sigma=0.0752  Rmin=1.3284  Rmax=1.5169     4
 O  C  Rav=1.3246 sigma=0.0902  Rmin=1.2078  Rmax=1.4274     3
 
 selected bond angles (degree)
 --------------------
H9-C1-C2=110.12                H10-C1-C2=109.62               H10-C1-H9=109.11               H11-C1-C2=110.18               
H11-C1-H9=108.65               H11-C1-H10=109.14              O3-C2-C1=108.41                H12-C2-C1=111.44               
H12-C2-O3=108.83               H13-C2-C1=111.40               H13-C2-O3=108.80               H13-C2-H12=107.90              
C4-O3-C2=116.06                O5-C4-O3=122.98                C6-C4-O3=113.07                C6-C4-O5=123.95                
C7-C6-C4=114.33                C8-C6-C4=121.49                C8-C6-C7=124.18                H14-C7-C6=109.71               
H15-C7-C6=111.03               H15-C7-H14=109.71              H16-C7-C6=109.81               H16-C7-H14=107.14              
H16-C7-H15=109.37              H17-C8-C6=121.57               H18-C8-C6=121.39               H18-C8-H17=117.04              
 
 selected dihedral angles (degree)
 ---------------------------------
O3-C2-C1-H9= 58.91            O3-C2-C1-H10=178.96           O3-C2-C1-H11=299.08           H12-C2-C1-H9=178.66           
H12-C2-C1-H10=298.71          H12-C2-C1-H11= 58.83          H13-C2-C1-H9=299.23           H13-C2-C1-H10= 59.27          
H13-C2-C1-H11=179.39          C4-O3-C2-C1=179.23            C4-O3-C2-H12= 57.86           C4-O3-C2-H13=300.53           
O5-C4-O3-C2=359.68            C6-C4-O3-C2=179.57            C7-C6-C4-O3=174.77            C7-C6-C4-O5=354.65            
C8-C6-C4-O3=354.14            C8-C6-C4-O5=174.03            H14-C7-C6-C4= 53.81           H14-C7-C6-C8=234.45           
H15-C7-C6-C4=175.23           H15-C7-C6-C8=355.88           H16-C7-C6-C4=296.31           H16-C7-C6-C8=116.95           
H17-C8-C6-C4=  0.37           H17-C8-C6-C7=179.68           H18-C8-C6-C4=180.60           H18-C8-C6-C7=359.91           
           -------------------------------------------------
          |                Final Singlepoint                |
           -------------------------------------------------

          ...................................................
          :                      SETUP                      :
          :.................................................:
          :  # basis functions                  42          :
          :  # atomic orbitals                  42          :
          :  # shells                           26          :
          :  # electrons                        46          :
          :  max. iterations                   250          :
          :  Hamiltonian                  GFN2-xTB          :
          :  restarted?                      false          :
          :  GBSA solvation                  false          :
          :  PC potential                    false          :
          :  electronic temp.          300.0000000     K    :
          :  accuracy                    1.0000000          :
          :  -> integral cutoff          0.2500000E+02      :
          :  -> integral neglect         0.1000000E-07      :
          :  -> SCF convergence          0.1000000E-05 Eh   :
          :  -> wf. convergence          0.1000000E-03 e    :
          :  Broyden damping             0.4000000          :
          :  net charge                          0          :
          :  unpaired electrons                  0          :
          ...................................................

 iter      E             dE          RMSdq      gap      omega  full diag
   1    -26.3904920 -0.263905E+02  0.144E-04    3.85       0.0  T
   2    -26.3904920 -0.494147E-10  0.110E-04    3.85     214.8  T
   3    -26.3904920 -0.103892E-09  0.598E-05    3.85     394.3  T

   *** convergence criteria satisfied after 3 iterations ***

         #    Occupation            Energy/Eh            Energy/eV
      -------------------------------------------------------------
         1        2.0000           -0.7375100             -20.0687
       ...           ...                  ...                  ...
        17        2.0000           -0.4721839             -12.8488
        18        2.0000           -0.4692928             -12.7701
        19        2.0000           -0.4644485             -12.6383
        20        2.0000           -0.4539792             -12.3534
        21        2.0000           -0.4370089             -11.8916
        22        2.0000           -0.4157782             -11.3139
        23        2.0000           -0.4083623             -11.1121 (HOMO)
        24                         -0.2668988              -7.2627 (LUMO)
        25                         -0.1597329              -4.3466
        26                          0.0063078               0.1716
        27                          0.0982205               2.6727
        28                          0.1133765               3.0851
       ...                                ...                  ...
        42                          0.7009205              19.0730
      -------------------------------------------------------------
                  HL-Gap            0.1414635 Eh            3.8494 eV
             Fermi-level           -0.3376306 Eh           -9.1874 eV

 SCC (total)                   0 d,  0 h,  0 min,  0.004 sec
 SCC setup                      ...        0 min,  0.000 sec (  1.578%)
 Dispersion                     ...        0 min,  0.000 sec (  1.831%)
 classical contributions        ...        0 min,  0.000 sec (  0.789%)
 integral evaluation            ...        0 min,  0.000 sec (  9.015%)
 iterations                     ...        0 min,  0.002 sec ( 40.747%)
 molecular gradient             ...        0 min,  0.002 sec ( 43.491%)
 printout                       ...        0 min,  0.000 sec (  1.949%)

         :::::::::::::::::::::::::::::::::::::::::::::::::::::
         ::                     SUMMARY                     ::
         :::::::::::::::::::::::::::::::::::::::::::::::::::::
         :: total energy             -26.062004146857 Eh    ::
         :: gradient norm              0.000595390941 Eh/a0 ::
         :: HOMO-LUMO gap              3.849417308180 eV    ::
         ::.................................................::
         :: SCC energy               -26.390486502871 Eh    ::
         :: -> isotropic ES            0.046754111601 Eh    ::
         :: -> anisotropic ES          0.001948299460 Eh    ::
         :: -> anisotropic XC          0.008148448934 Eh    ::
         :: -> dispersion             -0.010767958118 Eh    ::
         :: repulsion energy           0.328482356014 Eh    ::
         :: add. restraining           0.000000000000 Eh    ::
         :: total charge               0.000000000000 e     ::
         :::::::::::::::::::::::::::::::::::::::::::::::::::::

           -------------------------------------------------
          |                Property Printout                |
           -------------------------------------------------

    * Orbital Energies and Occupations

         #    Occupation            Energy/Eh            Energy/eV
      -------------------------------------------------------------
         1        2.0000           -0.7375100             -20.0687
       ...           ...                  ...                  ...
        11        2.0000           -0.5346025             -14.5473
        12        2.0000           -0.5233571             -14.2413
        13        2.0000           -0.5041881             -13.7197
        14        2.0000           -0.4929313             -13.4133
        15        2.0000           -0.4885059             -13.2929
        16        2.0000           -0.4818390             -13.1115
        17        2.0000           -0.4721839             -12.8488
        18        2.0000           -0.4692928             -12.7701
        19        2.0000           -0.4644485             -12.6383
        20        2.0000           -0.4539792             -12.3534
        21        2.0000           -0.4370089             -11.8916
        22        2.0000           -0.4157782             -11.3139
        23        2.0000           -0.4083623             -11.1121 (HOMO)
        24                         -0.2668988              -7.2627 (LUMO)
        25                         -0.1597329              -4.3466
        26                          0.0063078               0.1716
        27                          0.0982205               2.6727
        28                          0.1133765               3.0851
        29                          0.1195006               3.2518
        30                          0.1439826               3.9180
        31                          0.1449409               3.9440
        32                          0.1703683               4.6360
        33                          0.1808071               4.9200
        34                          0.1871416               5.0924
       ...                                ...                  ...
        42                          0.7009205              19.0730
      -------------------------------------------------------------
                  HL-Gap            0.1414635 Eh            3.8494 eV
             Fermi-level           -0.3376306 Eh           -9.1874 eV

     #   Z          covCN         q      C6AA      α(0)
     1   6 C        3.751    -0.115    22.772     6.805
     2   6 C        3.704     0.086    19.292     6.280
     3   8 O        1.704    -0.268    18.450     5.799
     4   6 C        2.730     0.349    21.067     7.514
     5   8 O        0.856    -0.418    22.035     6.294
     6   6 C        2.937    -0.008    28.209     8.711
     7   6 C        3.759    -0.110    22.657     6.786
     8   6 C        2.844    -0.082    30.052     8.984
     9   1 H        0.925     0.058     2.226     2.333
    10   1 H        0.925     0.052     2.292     2.368
    11   1 H        0.925     0.058     2.228     2.334
    12   1 H        0.924     0.051     2.308     2.376
    13   1 H        0.924     0.050     2.317     2.381
    14   1 H        0.925     0.067     2.114     2.274
    15   1 H        0.925     0.050     2.319     2.382
    16   1 H        0.925     0.063     2.165     2.301
    17   1 H        0.926     0.062     2.173     2.305
    18   1 H        0.926     0.055     2.261     2.351

 Mol. C6AA /au·bohr⁶  :       2821.658067
 Mol. C8AA /au·bohr⁸  :      62194.605736
 Mol. α(0) /au        :         80.577651


Wiberg/Mayer (AO) data.
largest (>0.10) Wiberg bond orders for each atom

 ---------------------------------------------------------------------------
     #   Z sym  total        # sym  WBO       # sym  WBO       # sym  WBO
 ---------------------------------------------------------------------------
     1   6 C    3.992 --     2 C    1.019    11 H    0.985     9 H    0.985
                            10 H    0.984
     2   6 C    3.929 --     1 C    1.019    13 H    0.968    12 H    0.968
                             3 O    0.940
     3   8 O    2.302 --     4 C    1.124     2 C    0.940     5 O    0.171
     4   6 C    3.917 --     5 O    1.726     3 O    1.124     6 C    0.993
     5   8 O    2.027 --     4 C    1.726     3 O    0.171
     6   6 C    3.986 --     8 C    1.879     7 C    1.030     4 C    0.993
     7   6 C    3.994 --     6 C    1.030    15 H    0.985    14 H    0.967
                            16 H    0.966
     8   6 C    3.989 --     6 C    1.879    18 H    0.974    17 H    0.973
     9   1 H    0.997 --     1 C    0.985
    10   1 H    0.996 --     1 C    0.984
    11   1 H    0.997 --     1 C    0.985
    12   1 H    0.997 --     2 C    0.968
    13   1 H    0.997 --     2 C    0.968
    14   1 H    0.995 --     7 C    0.967
    15   1 H    0.997 --     7 C    0.985
    16   1 H    0.996 --     7 C    0.966
    17   1 H    0.996 --     8 C    0.973
    18   1 H    0.997 --     8 C    0.974
 ---------------------------------------------------------------------------

Topologies differ in total number of bonds
Writing topology from bond orders to xtbtopo.mol

molecular dipole:
                 x           y           z       tot (Debye)
 q only:        0.288       0.264       0.735
   full:        0.305       0.277       0.769       2.218
molecular quadrupole (traceless):
                xx          xy          yy          xz          yz          zz
 q only:        8.550       0.004      -3.075      -2.968      -1.421      -5.474
  q+dip:        7.157      -0.638      -2.046      -3.822      -1.992      -5.112
   full:        7.328      -0.633      -1.234      -3.769      -2.447      -6.095

           -------------------------------------------------
          |                Geometry Summary                 |
           -------------------------------------------------

      molecular mass/u    :      114.1426327
   center of mass at/Å    :       -0.1203856      -0.0694072      -0.1297441
  moments of inertia/u·Å² :        0.1148908E+03   0.4223610E+03   0.5272073E+03
rotational constants/cm⁻¹ :        0.1467274E+00   0.3991285E-01   0.3197534E-01

 * 15 selected distances

     #   Z          #   Z                                           value/Å
     1   6 C        2   6 C                                       1.5169331 (max)
     2   6 C        3   8 O                                       1.4274183
     3   8 O        4   6 C                                       1.3385869
     4   6 C        5   8 O                                       1.2077834
     6   6 C        8   6 C                                       1.3284280
     1   6 C        9   1 H                                       1.0867359
     1   6 C       10   1 H                                       1.0859254
     1   6 C       11   1 H                                       1.0865543
     2   6 C       12   1 H                                       1.0961430
     2   6 C       13   1 H                                       1.0961719
     7   6 C       14   1 H                                       1.0881628
     7   6 C       15   1 H                                       1.0860137
     7   6 C       16   1 H                                       1.0888295
     8   6 C       17   1 H                                       1.0756634 (min)
     8   6 C       18   1 H                                       1.0774239

 * 3 distinct bonds (by element types)

   Z      Z             #   av. dist./Å        max./Å        min./Å
   1 H    6 C          10     1.0867624     1.0961719     1.0756634
   6 C    6 C           2     1.4226806     1.5169331     1.3284280
   6 C    8 O           3     1.3245962     1.4274183     1.2077834


optimized geometry written to: xtbopt.xyz


           -------------------------------------------------
          | TOTAL ENERGY              -26.062004146857 Eh   |
          | GRADIENT NORM               0.000595390941 Eh/α |
          | HOMO-LUMO GAP               3.849417308180 eV   |
           -------------------------------------------------
########################################################################
[WARNING] Runtime exception occurred
-2- restart_readRestart: Dimension missmatch in restart file.
-1- restart_readRestart: Number of electron missmatch in restart file.
########################################################################

------------------------------------------------------------------------
 * finished run on 2025/12/01 at 14:23:06.886     
------------------------------------------------------------------------
 total:
 * wall-time:     0 d,  0 h,  0 min,  0.268 sec
 *  cpu-time:     0 d,  0 h,  0 min,  5.983 sec
 * ratio c/w:    22.351 speedup
 SCF:
 * wall-time:     0 d,  0 h,  0 min,  0.015 sec
 *  cpu-time:     0 d,  0 h,  0 min,  0.349 sec
 * ratio c/w:    22.527 speedup
 ANC optimizer:
 * wall-time:     0 d,  0 h,  0 min,  0.246 sec
 *  cpu-time:     0 d,  0 h,  0 min,  5.525 sec
 * ratio c/w:    22.488 speedup

normal termination of xtb
