      -----------------------------------------------------------      
     |                   =====================                   |     
     |                           x T B                           |     
     |                   =====================                   |     
     |                         S. Grimme                         |     
     |          Mulliken Center for Theoretical Chemistry        |     
     |                    University of Bonn                     |     
      -----------------------------------------------------------      

   * xtb version 6.7.1 (edcfbbe) compiled by 'albert@albert-system' on 2024-07-22

   xtb is free software: you can redistribute it and/or modify it under
   the terms of the GNU Lesser General Public License as published by
   the Free Software Foundation, either version 3 of the License, or
   (at your option) any later version.
   
   xtb is distributed in the hope that it will be useful,
   but WITHOUT ANY WARRANTY; without even the implied warranty of
   MERCHANTABILITY or FITNESS FOR A PARTICULAR PURPOSE.  See the
   GNU Lesser General Public License for more details.
   
   Cite this work as:
   * C. Bannwarth, E. Caldeweyher, S. Ehlert, A. Hansen, P. Pracht,
     J. Seibert, S. Spicher, S. Grimme, WIREs Comput. Mol. Sci., 2020, 11,
     e01493. DOI: 10.1002/wcms.1493
   
   for GFN2-xTB:
   * C. Bannwarth, S. Ehlert and S. Grimme., J. Chem. Theory Comput., 2019,
     15, 1652-1671. DOI: 10.1021/acs.jctc.8b01176
   for GFN1-xTB:
   * S. Grimme, C. Bannwarth, P. Shushkov, J. Chem. Theory Comput., 2017,
     13, 1989-2009. DOI: 10.1021/acs.jctc.7b00118
   for GFN0-xTB:
   * P. Pracht, E. Caldeweyher, S. Ehlert, S. Grimme, ChemRxiv, 2019, preprint.
     DOI: 10.26434/chemrxiv.8326202.v1
   for GFN-FF:
   * S. Spicher and S. Grimme, Angew. Chem. Int. Ed., 2020, 59, 15665-15673.
     DOI: 10.1002/anie.202004239
   
   for ALPB and GBSA implicit solvation:
   * S. Ehlert, M. Stahn, S. Spicher, S. Grimme, J. Chem. Theory Comput.,
     2021, 17, 4250-4261. DOI: 10.1021/acs.jctc.1c00471
   
   for ddCOSMO and CPCM-X implicit solvation:
   * M. Stahn, S. Ehlert, S. Grimme, J. Phys. Chem. A,
     2023, XX, XXXX-XXXX. DOI: 10.1021/acs.jpca.3c04382
   
   for DFT-D4:
   * E. Caldeweyher, C. Bannwarth and S. Grimme, J. Chem. Phys., 2017,
     147, 034112. DOI: 10.1063/1.4993215
   * E. Caldeweyher, S. Ehlert, A. Hansen, H. Neugebauer, S. Spicher,
     C. Bannwarth and S. Grimme, J. Chem. Phys., 2019, 150, 154122.
     DOI: 10.1063/1.5090222
   * E. Caldeweyher, J.-M. Mewes, S. Ehlert and S. Grimme, Phys. Chem. Chem. Phys.
     2020, 22, 8499-8512. DOI: 10.1039/D0CP00502A
   
   for sTDA-xTB:
   * S. Grimme and C. Bannwarth, J. Chem. Phys., 2016, 145, 054103.
     DOI: 10.1063/1.4959605
   
   in the mass-spec context:
   * V. Asgeirsson, C. Bauer and S. Grimme, Chem. Sci., 2017, 8, 4879.
     DOI: 10.1039/c7sc00601b
   * J. Koopman and S. Grimme, ACS Omega 2019, 4, 12, 15120-15133.
     DOI: 10.1021/acsomega.9b02011
   
   for metadynamics refer to:
   * S. Grimme, J. Chem. Theory Comput., 2019, 155, 2847-2862
     DOI: 10.1021/acs.jctc.9b00143
   
   for SPH calculations refer to:
   * S. Spicher and S. Grimme, J. Chem. Theory Comput., 2021, 17, 1701-1714
     DOI: 10.1021/acs.jctc.0c01306
   
   for ONIOM refer to:
   * C. Plett, A. Katbashev, S. Ehlert, S. Grimme, M. Bursch,
     Phys. Chem. Chem. Phys., 2023, 25, 17860-17868. DOI: 10.1039/D3CP02178E
   
   for DIPRO refer to:
   * J. Kohn, N. Gildemeister, S. Grimme, D. Fazzi, A. Hansen,
     J. Chem. Phys., 2023, just accepted.
   
   for PTB refer to:
   * S. Grimme, M. Mueller, A. Hansen, J. Chem. Phys., 2023, 158, 124111.
     DOI: 10.1063/5.0137838
   
   with help from (in alphabetical order)
   P. Atkinson, C. Bannwarth, F. Bohle, G. Brandenburg, E. Caldeweyher
   M. Checinski, S. Dohm, S. Ehlert, S. Ehrlich, I. Gerasimov, C. Hölzer
   A. Katbashev, J. Kohn, J. Koopman, C. Lavigne, S. Lehtola, F. März, M. Müller,
   F. Musil, H. Neugebauer, J. Pisarek, C. Plett, P. Pracht, F. Pultar,
   J. Seibert, P. Shushkov, S. Spicher, M. Stahn, M. Steiner, T. Strunk,
   J. Stückrath, T. Rose, and J. Unsleber
   
 * started run on 2025/12/01 at 14:23:10.693     
   ID    Z sym.   atoms
    1    8 O      1, 4, 6, 12, 15
    2    6 C      2, 3, 5, 7-11, 13, 14, 16-25
    3    1 H      26-47

           -------------------------------------------------
          |                Calculation Setup                |
           -------------------------------------------------

          program call               : xtb pipeline_data/3_conformer_xyz/acrylates/rdkit/UUHZUEBKUREPBP-MDWZMJQESA-N_conf125.xyz --opt --gfn 2-xTB --iterations 250
          coordinate file            : pipeline_data/3_conformer_xyz/acrylates/rdkit/UUHZUEBKUREPBP-MDWZMJQESA-N_conf125.xyz
          omp threads                :                    24

########################################################################
[WARNING] Please study the warnings concerning your input carefully
-1- readin_getIntValue: could not parse '2-xTB'
########################################################################

           -------------------------------------------------
          |                 G F N 2 - x T B                 |
           -------------------------------------------------

        Reference                      10.1021/acs.jctc.8b01176
      * Hamiltonian:
        H0-scaling (s, p, d)           1.850000    2.230000    2.230000
        zeta-weighting                 0.500000
      * Dispersion:
        s8                             2.700000
        a1                             0.520000
        a2                             5.000000
        s9                             5.000000
      * Repulsion:
        kExp                           1.500000    1.000000
        rExp                           1.000000
      * Coulomb:
        alpha                          2.000000
        third order                    shell-resolved
        anisotropic                    true
        a3                             3.000000
        a5                             4.000000
        cn-shift                       1.200000
        cn-exp                         4.000000
        max-rad                        5.000000

q/qsh data taken from xtbrestart
CAMM data taken from xtbrestart

          ...................................................
          :                      SETUP                      :
          :.................................................:
          :  # basis functions                 122          :
          :  # atomic orbitals                 122          :
          :  # shells                           72          :
          :  # electrons                       132          :
          :  max. iterations                   250          :
          :  Hamiltonian                  GFN2-xTB          :
          :  restarted?                       true          :
          :  GBSA solvation                  false          :
          :  PC potential                    false          :
          :  electronic temp.          300.0000000     K    :
          :  accuracy                    1.0000000          :
          :  -> integral cutoff          0.2500000E+02      :
          :  -> integral neglect         0.1000000E-07      :
          :  -> SCF convergence          0.1000000E-05 Eh   :
          :  -> wf. convergence          0.1000000E-03 e    :
          :  Broyden damping             0.4000000          :
          :  net charge                          0          :
          :  unpaired electrons                  0          :
          ...................................................

 iter      E             dE          RMSdq      gap      omega  full diag
   1    -75.2589717 -0.752590E+02  0.350E+00    2.00       0.0  T
   2    -75.2704842 -0.115126E-01  0.210E+00    2.07       1.0  T
   3    -75.2264779  0.440063E-01  0.103E+00    2.03       1.0  T
   4    -75.2791312 -0.526533E-01  0.173E-01    2.10       1.0  T
   5    -75.2795404 -0.409186E-03  0.101E-01    2.07       1.0  T
   6    -75.2796469 -0.106501E-03  0.468E-02    2.09       1.0  T
   7    -75.2796812 -0.342889E-04  0.151E-02    2.09       1.0  T
   8    -75.2796842 -0.304624E-05  0.647E-03    2.09       2.3  T
   9    -75.2796849 -0.644023E-06  0.270E-03    2.09       5.4  T
  10    -75.2796849 -0.907495E-07  0.119E-03    2.09      12.3  T
  11    -75.2796850 -0.202269E-07  0.442E-04    2.09      33.0  T
  12    -75.2796850 -0.272188E-08  0.195E-04    2.09      74.6  T

   *** convergence criteria satisfied after 12 iterations ***

         #    Occupation            Energy/Eh            Energy/eV
      -------------------------------------------------------------
         1        2.0000           -0.7290542             -19.8386
       ...           ...                  ...                  ...
        60        2.0000           -0.4217365             -11.4760
        61        2.0000           -0.4214635             -11.4686
        62        2.0000           -0.4169485             -11.3457
        63        2.0000           -0.4099395             -11.1550
        64        2.0000           -0.4036181             -10.9830
        65        2.0000           -0.3955896             -10.7645
        66        2.0000           -0.3849027             -10.4737 (HOMO)
        67                         -0.3082585              -8.3881 (LUMO)
        68                         -0.2400131              -6.5311
        69                         -0.2372225              -6.4552
        70                         -0.2347743              -6.3885
        71                         -0.2279684              -6.2033
       ...                                ...                  ...
       122                          0.6998346              19.0435
      -------------------------------------------------------------
                  HL-Gap            0.0766442 Eh            2.0856 eV
             Fermi-level           -0.3465806 Eh           -9.4309 eV

 SCC (total)                   0 d,  0 h,  0 min,  0.075 sec
 SCC setup                      ...        0 min,  0.000 sec (  0.292%)
 Dispersion                     ...        0 min,  0.001 sec (  0.919%)
 classical contributions        ...        0 min,  0.000 sec (  0.173%)
 integral evaluation            ...        0 min,  0.002 sec (  3.244%)
 iterations                     ...        0 min,  0.063 sec ( 84.783%)
 molecular gradient             ...        0 min,  0.007 sec (  9.931%)
 printout                       ...        0 min,  0.000 sec (  0.609%)

         :::::::::::::::::::::::::::::::::::::::::::::::::::::
         ::                     SUMMARY                     ::
         :::::::::::::::::::::::::::::::::::::::::::::::::::::
         :: total energy             -74.281966926581 Eh    ::
         :: gradient norm              0.168019850491 Eh/a0 ::
         :: HOMO-LUMO gap              2.085593684877 eV    ::
         ::.................................................::
         :: SCC energy               -75.279140956700 Eh    ::
         :: -> isotropic ES            0.103361119696 Eh    ::
         :: -> anisotropic ES          0.004395658290 Eh    ::
         :: -> anisotropic XC          0.019599035536 Eh    ::
         :: -> dispersion             -0.049528650932 Eh    ::
         :: repulsion energy           0.997174030119 Eh    ::
         :: add. restraining           0.000000000000 Eh    ::
         :: total charge              -0.000000000000 e     ::
         :::::::::::::::::::::::::::::::::::::::::::::::::::::

      ----------------------------------------------------------- 
     |                   =====================                   |
     |                        A N C O P T                        |
     |                   =====================                   |
     |               Approximate Normal Coordinate               |
     |                Rational Function Optimizer                |
      ----------------------------------------------------------- 
      ----------------------------------------------------------- 
     |                   =====================                   |
     |                        A N C O P T                        |
     |                   =====================                   |
     |               Approximate Normal Coordinate               |
     |                Rational Function Optimizer                |
      ----------------------------------------------------------- 

          ...................................................
          :                      SETUP                      :
          :.................................................:
          :   optimization level            normal          :
          :   max. optcycles                   200          :
          :   ANC micro-cycles                  20          :
          :   degrees of freedom               135          :
          :.................................................:
          :   RF solver                   davidson          :
          :   write xtbopt.log                true          :
          :   linear?                        false          :
          :   energy convergence         0.5000000E-05 Eh   :
          :   grad. convergence          0.1000000E-02 Eh/α :
          :   maxmium RF displ.          1.0000000          :
          :   Hlow (freq-cutoff)         0.1000000E-01      :
          :   Hmax (freq-cutoff)         5.0000000          :
          :   S6 in model hess.         20.0000000          :
          ...................................................

generating ANC from exact Hessian ...
Using Lindh-Hessian (1995)
 Shifting diagonal of input Hessian by   9.894818935120961E-003
 Lowest  eigenvalues of input Hessian
    0.000000    0.000000    0.000000    0.000000    0.000000    0.000000
    0.010000    0.010298    0.010527    0.010736    0.011104    0.011553
    0.012034    0.012520    0.012940    0.013129    0.013798    0.015471
 Highest eigenvalues
    1.940809    2.005859    2.018093    2.076545    2.101084    2.161549
 

........................................................................
.............................. CYCLE    1 ..............................
........................................................................

 iter      E             dE          RMSdq      gap      omega  full diag
   1    -75.2796850 -0.752797E+02  0.546E-05    2.09       0.0  T
   2    -75.2796850 -0.146088E-10  0.337E-05    2.09     432.4  T
   3    -75.2796850  0.781597E-12  0.224E-05    2.09     651.2  T
     SCC iter.                  ...        0 min,  0.012 sec
     gradient                   ...        0 min,  0.007 sec
 * total energy  :   -74.2819669 Eh     change       -0.4160086E-09 Eh
   gradient norm :     0.1680199 Eh/α   predicted     0.0000000E+00 (-100.00%)
   displ. norm   :     0.3546420 α      lambda       -0.3068609E-01
   maximum displ.:     0.0915950 α      in ANC's #28, #48, #26, ...

........................................................................
.............................. CYCLE    2 ..............................
........................................................................

 iter      E             dE          RMSdq      gap      omega  full diag
   1    -75.3037511 -0.753038E+02  0.229E-01    2.12       0.0  T
   2    -75.3042687 -0.517606E-03  0.152E-01    2.14       1.0  T
   3    -75.3042777 -0.902283E-05  0.829E-02    2.12       1.0  T
   4    -75.3043657 -0.879954E-04  0.354E-02    2.13       1.0  T
   5    -75.3044102 -0.445102E-04  0.922E-03    2.12       1.6  T
   6    -75.3044127 -0.247744E-05  0.419E-03    2.12       3.5  T
   7    -75.3044131 -0.420610E-06  0.182E-03    2.12       8.0  T
   8    -75.3044131 -0.224185E-07  0.755E-04    2.12      19.3  T
   9    -75.3044132 -0.540538E-08  0.263E-04    2.12      55.5  T
     SCC iter.                  ...        0 min,  0.024 sec
     gradient                   ...        0 min,  0.009 sec
 * total energy  :   -74.3032193 Eh     change       -0.2125239E-01 Eh
   gradient norm :     0.0678705 Eh/α   predicted    -0.1728799E-01 ( -18.65%)
   displ. norm   :     0.3196915 α      lambda       -0.9356424E-02
   maximum displ.:     0.0993451 α      in ANC's #34, #17, #13, ...

........................................................................
.............................. CYCLE    3 ..............................
........................................................................

 iter      E             dE          RMSdq      gap      omega  full diag
   1    -75.3164842 -0.753165E+02  0.156E-01    2.15       0.0  T
   2    -75.3167679 -0.283690E-03  0.991E-02    2.16       1.0  T
   3    -75.3167741 -0.619171E-05  0.545E-02    2.15       1.0  T
   4    -75.3167981 -0.239864E-04  0.265E-02    2.15       1.0  T
   5    -75.3168237 -0.256196E-04  0.654E-03    2.15       2.2  T
   6    -75.3168251 -0.136482E-05  0.259E-03    2.15       5.6  T
   7    -75.3168253 -0.219372E-06  0.983E-04    2.15      14.8  T
   8    -75.3168253 -0.863119E-08  0.441E-04    2.15      33.1  T
     SCC iter.                  ...        0 min,  0.040 sec
     gradient                   ...        0 min,  0.013 sec
 * total energy  :   -74.3088248 Eh     change       -0.5605510E-02 Eh
   gradient norm :     0.0193703 Eh/α   predicted    -0.5156339E-02 (  -8.01%)
   displ. norm   :     0.2902261 α      lambda       -0.1905362E-02
   maximum displ.:     0.1114535 α      in ANC's #6, #17, #13, ...

........................................................................
.............................. CYCLE    4 ..............................
........................................................................

 iter      E             dE          RMSdq      gap      omega  full diag
   1    -75.3152702 -0.753153E+02  0.766E-02    2.16       0.0  T
   2    -75.3152780 -0.778617E-05  0.460E-02    2.16       1.0  T
   3    -75.3152678  0.101869E-04  0.162E-02    2.16       1.0  T
   4    -75.3152795 -0.116268E-04  0.494E-03    2.15       3.0  T
   5    -75.3152802 -0.793688E-06  0.195E-03    2.16       7.5  T
   6    -75.3152803 -0.966771E-07  0.847E-04    2.16      17.2  T
   7    -75.3152804 -0.104515E-07  0.414E-04    2.16      35.2  T
     SCC iter.                  ...        0 min,  0.040 sec
     gradient                   ...        0 min,  0.009 sec
 * total energy  :   -74.3101741 Eh     change       -0.1349318E-02 Eh
   gradient norm :     0.0108406 Eh/α   predicted    -0.1032949E-02 ( -23.45%)
   displ. norm   :     0.3375278 α      lambda       -0.1070725E-02
   maximum displ.:     0.1480544 α      in ANC's #6, #5, #13, ...

........................................................................
.............................. CYCLE    5 ..............................
........................................................................

 iter      E             dE          RMSdq      gap      omega  full diag
   1    -75.3151471 -0.753151E+02  0.748E-02    2.17       0.0  T
   2    -75.3151504 -0.335843E-05  0.444E-02    2.16       1.0  T
   3    -75.3151495  0.874745E-06  0.605E-03    2.16       2.4  T
   4    -75.3151507 -0.113643E-05  0.283E-03    2.16       5.2  T
   5    -75.3151510 -0.287649E-06  0.123E-03    2.16      11.8  T
   6    -75.3151510 -0.296215E-07  0.556E-04    2.16      26.2  T
   7    -75.3151510 -0.242015E-08  0.267E-04    2.16      54.7  T
     SCC iter.                  ...        0 min,  0.032 sec
     gradient                   ...        0 min,  0.006 sec
 * total energy  :   -74.3109354 Eh     change       -0.7612096E-03 Eh
   gradient norm :     0.0101838 Eh/α   predicted    -0.5963554E-03 ( -21.66%)
   displ. norm   :     0.3404064 α      lambda       -0.6789120E-03
   maximum displ.:     0.1582128 α      in ANC's #6, #5, #13, ...

........................................................................
.............................. CYCLE    6 ..............................
........................................................................

 iter      E             dE          RMSdq      gap      omega  full diag
   1    -75.3162315 -0.753162E+02  0.726E-02    2.17       0.0  T
   2    -75.3162339 -0.238800E-05  0.432E-02    2.16       1.0  T
   3    -75.3162325  0.143602E-05  0.650E-03    2.17       2.2  T
   4    -75.3162344 -0.185928E-05  0.180E-03    2.16       8.1  T
   5    -75.3162344 -0.811173E-07  0.907E-04    2.17      16.1  T
   6    -75.3162345 -0.105130E-07  0.474E-04    2.17      30.8  T
     SCC iter.                  ...        0 min,  0.022 sec
     gradient                   ...        0 min,  0.006 sec
 * total energy  :   -74.3114396 Eh     change       -0.5042737E-03 Eh
   gradient norm :     0.0092603 Eh/α   predicted    -0.3788124E-03 ( -24.88%)
   displ. norm   :     0.3701291 α      lambda       -0.5520377E-03
   maximum displ.:     0.1787053 α      in ANC's #6, #5, #2, ...

........................................................................
.............................. CYCLE    7 ..............................
........................................................................

 iter      E             dE          RMSdq      gap      omega  full diag
   1    -75.3170168 -0.753170E+02  0.773E-02    2.16       0.0  T
   2    -75.3170190 -0.217546E-05  0.460E-02    2.16       1.0  T
   3    -75.3170169  0.207418E-05  0.764E-03    2.17       1.9  T
   4    -75.3170196 -0.265485E-05  0.184E-03    2.17       7.9  T
   5    -75.3170196 -0.589296E-07  0.100E-03    2.17      14.5  T
   6    -75.3170197 -0.134201E-07  0.512E-04    2.17      28.5  T
   7    -75.3170197 -0.321033E-08  0.260E-04    2.17      56.0  T
     SCC iter.                  ...        0 min,  0.026 sec
     gradient                   ...        0 min,  0.006 sec
 * total energy  :   -74.3118483 Eh     change       -0.4086836E-03 Eh
   gradient norm :     0.0089418 Eh/α   predicted    -0.3138476E-03 ( -23.21%)
   displ. norm   :     0.3499717 α      lambda       -0.4496553E-03
   maximum displ.:     0.1716355 α      in ANC's #5, #6, #2, ...

........................................................................
.............................. CYCLE    8 ..............................
........................................................................

 iter      E             dE          RMSdq      gap      omega  full diag
   1    -75.3192361 -0.753192E+02  0.753E-02    2.16       0.0  T
   2    -75.3192382 -0.203152E-05  0.448E-02    2.16       1.0  T
   3    -75.3192364  0.175148E-05  0.730E-03    2.16       2.0  T
   4    -75.3192386 -0.214819E-05  0.228E-03    2.16       6.4  T
   5    -75.3192387 -0.132123E-06  0.114E-03    2.16      12.8  T
   6    -75.3192387 -0.254293E-07  0.569E-04    2.16      25.6  T
   7    -75.3192387 -0.526289E-08  0.249E-04    2.16      58.7  T
     SCC iter.                  ...        0 min,  0.022 sec
     gradient                   ...        0 min,  0.007 sec
 * total energy  :   -74.3121424 Eh     change       -0.2940674E-03 Eh
   gradient norm :     0.0073677 Eh/α   predicted    -0.2523662E-03 ( -14.18%)
   displ. norm   :     0.3616073 α      lambda       -0.3480545E-03
   maximum displ.:     0.1644556 α      in ANC's #6, #5, #2, ...

........................................................................
.............................. CYCLE    9 ..............................
........................................................................

 iter      E             dE          RMSdq      gap      omega  full diag
   1    -75.3179643 -0.753180E+02  0.781E-02    2.16       0.0  T
   2    -75.3179660 -0.169639E-05  0.465E-02    2.16       1.0  T
   3    -75.3179641  0.187766E-05  0.747E-03    2.16       2.0  T
   4    -75.3179668 -0.262166E-05  0.222E-03    2.16       6.6  T
   5    -75.3179668 -0.477442E-07  0.133E-03    2.16      11.0  T
   6    -75.3179668 -0.199475E-07  0.687E-04    2.16      21.2  T
   7    -75.3179668 -0.115708E-07  0.210E-04    2.16      69.4  T
     SCC iter.                  ...        0 min,  0.019 sec
     gradient                   ...        0 min,  0.007 sec
 * total energy  :   -74.3123067 Eh     change       -0.1643343E-03 Eh
   gradient norm :     0.0092035 Eh/α   predicted    -0.1967839E-03 (  19.75%)
   displ. norm   :     0.1351881 α      lambda       -0.1877090E-03
   maximum displ.:     0.0707415 α      in ANC's #2, #14, #5, ...

........................................................................
.............................. CYCLE   10 ..............................
........................................................................

 iter      E             dE          RMSdq      gap      omega  full diag
   1    -75.3201504 -0.753202E+02  0.343E-02    2.16       0.0  T
   2    -75.3201513 -0.853329E-06  0.204E-02    2.16       1.0  T
   3    -75.3201511  0.148045E-06  0.299E-03    2.16       4.9  T
   4    -75.3201514 -0.272843E-06  0.101E-03    2.16      14.4  T
   5    -75.3201514 -0.146880E-07  0.661E-04    2.16      22.1  T
   6    -75.3201514 -0.120660E-07  0.275E-04    2.16      53.0  T
     SCC iter.                  ...        0 min,  0.016 sec
     gradient                   ...        0 min,  0.007 sec
 * total energy  :   -74.3124350 Eh     change       -0.1283087E-03 Eh
   gradient norm :     0.0041295 Eh/α   predicted    -0.9558603E-04 ( -25.50%)
   displ. norm   :     0.1800625 α      lambda       -0.1149758E-03
   maximum displ.:     0.1003442 α      in ANC's #2, #14, #4, ...

........................................................................
.............................. CYCLE   11 ..............................
........................................................................

 iter      E             dE          RMSdq      gap      omega  full diag
   1    -75.3202442 -0.753202E+02  0.408E-02    2.17       0.0  T
   2    -75.3202448 -0.618363E-06  0.243E-02    2.17       1.0  T
   3    -75.3202444  0.388256E-06  0.343E-03    2.17       4.2  T
   4    -75.3202449 -0.489654E-06  0.120E-03    2.17      12.1  T
   5    -75.3202450 -0.409148E-07  0.656E-04    2.17      22.2  T
   6    -75.3202450 -0.930835E-08  0.295E-04    2.17      49.5  T
     SCC iter.                  ...        0 min,  0.016 sec
     gradient                   ...        0 min,  0.007 sec
 * total energy  :   -74.3125170 Eh     change       -0.8199651E-04 Eh
   gradient norm :     0.0036246 Eh/α   predicted    -0.5935248E-04 ( -27.62%)
   displ. norm   :     0.1552085 α      lambda       -0.8267805E-04
   maximum displ.:     0.0911345 α      in ANC's #2, #4, #14, ...

........................................................................
.............................. CYCLE   12 ..............................
........................................................................

 iter      E             dE          RMSdq      gap      omega  full diag
   1    -75.3208709 -0.753209E+02  0.324E-02    2.17       0.0  T
   2    -75.3208715 -0.632879E-06  0.193E-02    2.17       1.0  T
   3    -75.3208698  0.174213E-05  0.632E-03    2.17       2.3  T
   4    -75.3208717 -0.190958E-05  0.137E-03    2.17      10.6  T
   5    -75.3208718 -0.664305E-07  0.520E-04    2.17      28.0  T
   6    -75.3208718 -0.554127E-08  0.243E-04    2.17      59.9  T
     SCC iter.                  ...        0 min,  0.016 sec
     gradient                   ...        0 min,  0.006 sec
 * total energy  :   -74.3125737 Eh     change       -0.5666024E-04 Eh
   gradient norm :     0.0030187 Eh/α   predicted    -0.4233653E-04 ( -25.28%)
   displ. norm   :     0.1480881 α      lambda       -0.6017268E-04
   maximum displ.:     0.0891656 α      in ANC's #2, #4, #14, ...

........................................................................
.............................. CYCLE   13 ..............................
........................................................................

 iter      E             dE          RMSdq      gap      omega  full diag
   1    -75.3199951 -0.753200E+02  0.294E-02    2.18       0.0  T
   2    -75.3199954 -0.298811E-06  0.176E-02    2.18       1.0  T
   3    -75.3199944  0.102425E-05  0.458E-03    2.18       3.2  T
   4    -75.3199955 -0.114802E-05  0.975E-04    2.18      15.0  T
   5    -75.3199955 -0.271799E-07  0.473E-04    2.18      30.8  T
   6    -75.3199955 -0.297129E-08  0.228E-04    2.18      63.9  T
     SCC iter.                  ...        0 min,  0.030 sec
     gradient                   ...        0 min,  0.010 sec
 * total energy  :   -74.3126163 Eh     change       -0.4258523E-04 Eh
   gradient norm :     0.0030257 Eh/α   predicted    -0.3074987E-04 ( -27.79%)
   displ. norm   :     0.1386214 α      lambda       -0.5830356E-04
   maximum displ.:     0.0831720 α      in ANC's #2, #4, #14, ...

........................................................................
.............................. CYCLE   14 ..............................
........................................................................

 iter      E             dE          RMSdq      gap      omega  full diag
   1    -75.3201871 -0.753202E+02  0.305E-02    2.18       0.0  T
   2    -75.3201874 -0.299168E-06  0.183E-02    2.18       1.0  T
   3    -75.3201864  0.982153E-06  0.448E-03    2.18       3.3  T
   4    -75.3201875 -0.110295E-05  0.104E-03    2.18      14.1  T
   5    -75.3201876 -0.325005E-07  0.476E-04    2.18      30.6  T
   6    -75.3201876 -0.153091E-08  0.205E-04    2.18      71.0  T
     SCC iter.                  ...        0 min,  0.022 sec
     gradient                   ...        0 min,  0.006 sec
 * total energy  :   -74.3126600 Eh     change       -0.4369439E-04 Eh
   gradient norm :     0.0028109 Eh/α   predicted    -0.2971364E-04 ( -32.00%)
   displ. norm   :     0.1619298 α      lambda       -0.5663074E-04
   maximum displ.:     0.1016988 α      in ANC's #2, #4, #14, ...

........................................................................
.............................. CYCLE   15 ..............................
........................................................................

 iter      E             dE          RMSdq      gap      omega  full diag
   1    -75.3199627 -0.753200E+02  0.375E-02    2.18       0.0  T
   2    -75.3199630 -0.315778E-06  0.224E-02    2.18       1.0  T
   3    -75.3199626  0.428113E-06  0.319E-03    2.18       4.6  T
   4    -75.3199631 -0.523320E-06  0.107E-03    2.18      13.7  T
   5    -75.3199631 -0.263427E-07  0.573E-04    2.18      25.5  T
   6    -75.3199631 -0.455290E-08  0.204E-04    2.18      71.5  T
     SCC iter.                  ...        0 min,  0.023 sec
     gradient                   ...        0 min,  0.006 sec
 * total energy  :   -74.3127016 Eh     change       -0.4160976E-04 Eh
   gradient norm :     0.0024367 Eh/α   predicted    -0.2906274E-04 ( -30.15%)
   displ. norm   :     0.1393724 α      lambda       -0.4009119E-04
   maximum displ.:     0.0903605 α      in ANC's #2, #4, #9, ...

........................................................................
.............................. CYCLE   16 ..............................
........................................................................

 iter      E             dE          RMSdq      gap      omega  full diag
   1    -75.3200193 -0.753200E+02  0.333E-02    2.18       0.0  T
   2    -75.3200195 -0.229356E-06  0.198E-02    2.18       1.0  T
   3    -75.3200194  0.111710E-06  0.215E-03    2.18       6.8  T
   4    -75.3200195 -0.166766E-06  0.926E-04    2.18      15.8  T
   5    -75.3200196 -0.190542E-07  0.447E-04    2.18      32.6  T
     SCC iter.                  ...        0 min,  0.019 sec
     gradient                   ...        0 min,  0.007 sec
 * total energy  :   -74.3127313 Eh     change       -0.2973585E-04 Eh
   gradient norm :     0.0019197 Eh/α   predicted    -0.2043999E-04 ( -31.26%)
   displ. norm   :     0.1916983 α      lambda       -0.3141467E-04
   maximum displ.:     0.1263312 α      in ANC's #2, #4, #9, ...

........................................................................
.............................. CYCLE   17 ..............................
........................................................................

 iter      E             dE          RMSdq      gap      omega  full diag
   1    -75.3203002 -0.753203E+02  0.461E-02    2.17       0.0  T
   2    -75.3203007 -0.438961E-06  0.274E-02    2.17       1.0  T
   3    -75.3203004  0.224986E-06  0.262E-03    2.17       5.6  T
   4    -75.3203008 -0.352219E-06  0.970E-04    2.17      15.0  T
   5    -75.3203008 -0.167403E-07  0.520E-04    2.17      28.1  T
     SCC iter.                  ...        0 min,  0.019 sec
     gradient                   ...        0 min,  0.006 sec
 * total energy  :   -74.3127625 Eh     change       -0.3115453E-04 Eh
   gradient norm :     0.0020035 Eh/α   predicted    -0.1596654E-04 ( -48.75%)
   displ. norm   :     0.0926029 α      lambda       -0.2314218E-04
   maximum displ.:     0.0610288 α      in ANC's #2, #4, #1, ...

........................................................................
.............................. CYCLE   18 ..............................
........................................................................

 iter      E             dE          RMSdq      gap      omega  full diag
   1    -75.3203076 -0.753203E+02  0.229E-02    2.17       0.0  T
   2    -75.3203077 -0.124357E-06  0.136E-02    2.17       1.1  T
   3    -75.3203074  0.305413E-06  0.258E-03    2.17       5.7  T
   4    -75.3203078 -0.347788E-06  0.631E-04    2.17      23.1  T
   5    -75.3203078 -0.980243E-08  0.290E-04    2.17      50.2  T
     SCC iter.                  ...        0 min,  0.020 sec
     gradient                   ...        0 min,  0.006 sec
 * total energy  :   -74.3127821 Eh     change       -0.1969156E-04 Eh
   gradient norm :     0.0019353 Eh/α   predicted    -0.1167269E-04 ( -40.72%)
   displ. norm   :     0.2916190 α      lambda       -0.4825665E-04
   maximum displ.:     0.1835190 α      in ANC's #2, #4, #7, ...

........................................................................
.............................. CYCLE   19 ..............................
........................................................................

 iter      E             dE          RMSdq      gap      omega  full diag
   1    -75.3204060 -0.753204E+02  0.741E-02    2.16       0.0  T
   2    -75.3204070 -0.937261E-06  0.438E-02    2.16       1.0  T
   3    -75.3204057  0.129283E-05  0.608E-03    2.16       2.4  T
   4    -75.3204073 -0.162316E-05  0.172E-03    2.16       8.5  T
   5    -75.3204074 -0.616378E-07  0.980E-04    2.16      14.9  T
   6    -75.3204074 -0.162174E-07  0.348E-04    2.16      41.9  T
     SCC iter.                  ...        0 min,  0.016 sec
     gradient                   ...        0 min,  0.007 sec
 * total energy  :   -74.3128296 Eh     change       -0.4749257E-04 Eh
   gradient norm :     0.0022418 Eh/α   predicted    -0.2504286E-04 ( -47.27%)
   displ. norm   :     0.1523783 α      lambda       -0.2694643E-04
   maximum displ.:     0.0956298 α      in ANC's #2, #4, #7, ...

........................................................................
.............................. CYCLE   20 ..............................
........................................................................

 iter      E             dE          RMSdq      gap      omega  full diag
   1    -75.3199998 -0.753200E+02  0.393E-02    2.16       0.0  T
   2    -75.3199999 -0.182846E-06  0.233E-02    2.16       1.0  T
   3    -75.3199994  0.565557E-06  0.366E-03    2.16       4.0  T
   4    -75.3200000 -0.678313E-06  0.835E-04    2.16      17.5  T
   5    -75.3200001 -0.949518E-08  0.506E-04    2.16      28.8  T
     SCC iter.                  ...        0 min,  0.013 sec
     gradient                   ...        0 min,  0.006 sec
 * total energy  :   -74.3128529 Eh     change       -0.2325523E-04 Eh
   gradient norm :     0.0021602 Eh/α   predicted    -0.1378622E-04 ( -40.72%)
   displ. norm   :     0.2956345 α      lambda       -0.5486791E-04
   maximum displ.:     0.1829688 α      in ANC's #2, #4, #7, ...
 * RMSD in coord.:     0.4893761 α      energy gain  -0.3088597E-01 Eh

generating ANC from exact Hessian ...
Using Lindh-Hessian (1995)
 Shifting diagonal of input Hessian by   9.895321716655020E-003
 Lowest  eigenvalues of input Hessian
    0.000000    0.000000    0.000000    0.000000    0.000000    0.000000
    0.010000    0.010255    0.010494    0.010670    0.011001    0.011533
    0.011857    0.012330    0.012414    0.012705    0.013693    0.014802
 Highest eigenvalues
    1.910940    2.008571    2.015584    2.062614    2.117770    2.219099
 

........................................................................
.............................. CYCLE   21 ..............................
........................................................................

 iter      E             dE          RMSdq      gap      omega  full diag
   1    -75.3199094 -0.753199E+02  0.775E-02    2.16       0.0  T
   2    -75.3199102 -0.728819E-06  0.459E-02    2.16       1.0  T
   3    -75.3199059  0.428737E-05  0.962E-03    2.16       1.5  T
   4    -75.3199108 -0.489903E-05  0.167E-03    2.16       8.7  T
   5    -75.3199108 -0.365808E-07  0.101E-03    2.16      14.4  T
   6    -75.3199108 -0.106073E-07  0.313E-04    2.16      46.6  T
   7    -75.3199108 -0.254884E-08  0.115E-04    2.16     127.4  T
     SCC iter.                  ...        0 min,  0.018 sec
     gradient                   ...        0 min,  0.007 sec
 * total energy  :   -74.3128936 Eh     change       -0.4068778E-04 Eh
   gradient norm :     0.0021679 Eh/α   predicted     0.0000000E+00 (-100.00%)
   displ. norm   :     0.0260534 α      lambda       -0.1719817E-04
   maximum displ.:     0.0106834 α      in ANC's #7, #5, #17, ...

........................................................................
.............................. CYCLE   22 ..............................
........................................................................

 iter      E             dE          RMSdq      gap      omega  full diag
   1    -75.3206488 -0.753206E+02  0.760E-03    2.16       0.0  T
   2    -75.3206489 -0.526478E-07  0.460E-03    2.16       3.2  T
   3    -75.3206487  0.185891E-06  0.203E-03    2.16       7.2  T
   4    -75.3206489 -0.211973E-06  0.409E-04    2.16      35.7  T
   5    -75.3206489 -0.503753E-08  0.163E-04    2.16      89.5  T
     SCC iter.                  ...        0 min,  0.013 sec
     gradient                   ...        0 min,  0.007 sec
 * total energy  :   -74.3129075 Eh     change       -0.1395487E-04 Eh
   gradient norm :     0.0008574 Eh/α   predicted    -0.8713590E-05 ( -37.56%)
   displ. norm   :     0.1140819 α      lambda       -0.2915903E-04
   maximum displ.:     0.0490446 α      in ANC's #7, #5, #14, ...

........................................................................
.............................. CYCLE   23 ..............................
........................................................................

 iter      E             dE          RMSdq      gap      omega  full diag
   1    -75.3218380 -0.753218E+02  0.317E-02    2.16       0.0  T
   2    -75.3218385 -0.447123E-06  0.190E-02    2.16       1.0  T
   3    -75.3218370  0.148335E-05  0.551E-03    2.17       2.6  T
   4    -75.3218387 -0.170043E-05  0.122E-03    2.17      12.0  T
   5    -75.3218387 -0.371868E-07  0.619E-04    2.17      23.6  T
   6    -75.3218387 -0.460730E-08  0.278E-04    2.17      52.5  T
     SCC iter.                  ...        0 min,  0.016 sec
     gradient                   ...        0 min,  0.007 sec
 * total energy  :   -74.3129302 Eh     change       -0.2268944E-04 Eh
   gradient norm :     0.0024163 Eh/α   predicted    -0.1466418E-04 ( -35.37%)
   displ. norm   :     0.0448224 α      lambda       -0.1178533E-04
   maximum displ.:     0.0205333 α      in ANC's #5, #7, #14, ...

........................................................................
.............................. CYCLE   24 ..............................
........................................................................

 iter      E             dE          RMSdq      gap      omega  full diag
   1    -75.3215020 -0.753215E+02  0.135E-02    2.17       0.0  T
   2    -75.3215020 -0.417022E-07  0.805E-03    2.17       1.8  T
   3    -75.3215020  0.149077E-07  0.832E-04    2.17      17.5  T
   4    -75.3215020 -0.302083E-07  0.340E-04    2.17      42.8  T
     SCC iter.                  ...        0 min,  0.012 sec
     gradient                   ...        0 min,  0.006 sec
 * total energy  :   -74.3129412 Eh     change       -0.1093881E-04 Eh
   gradient norm :     0.0018136 Eh/α   predicted    -0.6155101E-05 ( -43.73%)
   displ. norm   :     0.2427254 α      lambda       -0.3824271E-04
   maximum displ.:     0.1137950 α      in ANC's #5, #7, #14, ...

........................................................................
.............................. CYCLE   25 ..............................
........................................................................

 iter      E             dE          RMSdq      gap      omega  full diag
   1    -75.3194223 -0.753194E+02  0.737E-02    2.16       0.0  T
   2    -75.3194236 -0.125925E-05  0.440E-02    2.16       1.0  T
   3    -75.3194227  0.903391E-06  0.517E-03    2.17       2.8  T
   4    -75.3194240 -0.136176E-05  0.184E-03    2.16       7.9  T
   5    -75.3194241 -0.495418E-07  0.100E-03    2.16      14.6  T
   6    -75.3194241 -0.237185E-08  0.491E-04    2.16      29.7  T
   7    -75.3194241 -0.780403E-08  0.187E-04    2.16      78.1  T
     SCC iter.                  ...        0 min,  0.027 sec
     gradient                   ...        0 min,  0.006 sec
 * total energy  :   -74.3129630 Eh     change       -0.2184830E-04 Eh
   gradient norm :     0.0028800 Eh/α   predicted    -0.1963608E-04 ( -10.13%)
   displ. norm   :     0.0174877 α      lambda       -0.1162387E-04
   maximum displ.:     0.0069962 α      in ANC's #11, #17, #9, ...

........................................................................
.............................. CYCLE   26 ..............................
........................................................................

 iter      E             dE          RMSdq      gap      omega  full diag
   1    -75.3201076 -0.753201E+02  0.533E-03    2.16       0.0  T
   2    -75.3201077 -0.343504E-07  0.324E-03    2.16       4.5  T
   3    -75.3201076  0.427351E-07  0.104E-03    2.16      14.0  T
   4    -75.3201077 -0.462894E-07  0.324E-04    2.16      45.0  T
   5    -75.3201077 -0.435827E-08  0.101E-04    2.16     145.0  T
     SCC iter.                  ...        0 min,  0.019 sec
     gradient                   ...        0 min,  0.006 sec
 * total energy  :   -74.3129724 Eh     change       -0.9386629E-05 Eh
   gradient norm :     0.0017076 Eh/α   predicted    -0.5815378E-05 ( -38.05%)
   displ. norm   :     0.0890172 α      lambda       -0.2065340E-04
   maximum displ.:     0.0450421 α      in ANC's #2, #5, #7, ...

........................................................................
.............................. CYCLE   27 ..............................
........................................................................

 iter      E             dE          RMSdq      gap      omega  full diag
   1    -75.3217682 -0.753218E+02  0.226E-02    2.16       0.0  T
   2    -75.3217684 -0.181585E-06  0.135E-02    2.16       1.1  T
   3    -75.3217681  0.357607E-06  0.296E-03    2.16       4.9  T
   4    -75.3217685 -0.409818E-06  0.804E-04    2.16      18.2  T
   5    -75.3217685 -0.186836E-07  0.367E-04    2.16      39.8  T
     SCC iter.                  ...        0 min,  0.019 sec
     gradient                   ...        0 min,  0.006 sec
 * total energy  :   -74.3129886 Eh     change       -0.1620030E-04 Eh
   gradient norm :     0.0015891 Eh/α   predicted    -0.1039546E-04 ( -35.83%)
   displ. norm   :     0.0972988 α      lambda       -0.8692070E-05
   maximum displ.:     0.0524228 α      in ANC's #5, #2, #7, ...

........................................................................
.............................. CYCLE   28 ..............................
........................................................................

 iter      E             dE          RMSdq      gap      omega  full diag
   1    -75.3214126 -0.753214E+02  0.274E-02    2.16       0.0  T
   2    -75.3214127 -0.115932E-06  0.164E-02    2.16       1.0  T
   3    -75.3214127  0.382691E-07  0.146E-03    2.16      10.0  T
   4    -75.3214128 -0.961530E-07  0.646E-04    2.16      22.6  T
   5    -75.3214128 -0.236412E-08  0.362E-04    2.16      40.3  T
     SCC iter.                  ...        0 min,  0.019 sec
     gradient                   ...        0 min,  0.006 sec
 * total energy  :   -74.3130006 Eh     change       -0.1199611E-04 Eh
   gradient norm :     0.0011149 Eh/α   predicted    -0.4392163E-05 ( -63.39%)
   displ. norm   :     0.1959101 α      lambda       -0.1697585E-04
   maximum displ.:     0.1042580 α      in ANC's #5, #2, #7, ...

........................................................................
.............................. CYCLE   29 ..............................
........................................................................

 iter      E             dE          RMSdq      gap      omega  full diag
   1    -75.3203943 -0.753204E+02  0.553E-02    2.16       0.0  T
   2    -75.3203948 -0.531787E-06  0.330E-02    2.16       1.0  T
   3    -75.3203946  0.228533E-06  0.317E-03    2.16       4.6  T
   4    -75.3203950 -0.464793E-06  0.129E-03    2.16      11.3  T
   5    -75.3203950 -0.116702E-07  0.736E-04    2.16      19.8  T
   6    -75.3203951 -0.836118E-08  0.311E-04    2.16      46.8  T
     SCC iter.                  ...        0 min,  0.022 sec
     gradient                   ...        0 min,  0.006 sec
 * total energy  :   -74.3130195 Eh     change       -0.1894628E-04 Eh
   gradient norm :     0.0009745 Eh/α   predicted    -0.8634988E-05 ( -54.42%)
   displ. norm   :     0.1774802 α      lambda       -0.1024180E-04
   maximum displ.:     0.0964480 α      in ANC's #2, #5, #7, ...

........................................................................
.............................. CYCLE   30 ..............................
........................................................................

 iter      E             dE          RMSdq      gap      omega  full diag
   1    -75.3197325 -0.753197E+02  0.490E-02    2.15       0.0  T
   2    -75.3197329 -0.337475E-06  0.292E-02    2.15       1.0  T
   3    -75.3197325  0.335340E-06  0.333E-03    2.15       4.4  T
   4    -75.3197331 -0.515534E-06  0.122E-03    2.15      11.9  T
   5    -75.3197331 -0.117315E-07  0.735E-04    2.15      19.9  T
   6    -75.3197331 -0.103466E-07  0.217E-04    2.15      67.2  T
     SCC iter.                  ...        0 min,  0.016 sec
     gradient                   ...        0 min,  0.006 sec
 * total energy  :   -74.3130304 Eh     change       -0.1082872E-04 Eh
   gradient norm :     0.0017927 Eh/α   predicted    -0.5194973E-05 ( -52.03%)
   displ. norm   :     0.1168585 α      lambda       -0.8912144E-05
   maximum displ.:     0.0697437 α      in ANC's #2, #5, #7, ...

........................................................................
.............................. CYCLE   31 ..............................
........................................................................

 iter      E             dE          RMSdq      gap      omega  full diag
   1    -75.3200716 -0.753201E+02  0.314E-02    2.15       0.0  T
   2    -75.3200718 -0.119821E-06  0.186E-02    2.15       1.0  T
   3    -75.3200714  0.320985E-06  0.281E-03    2.15       5.2  T
   4    -75.3200718 -0.397803E-06  0.730E-04    2.15      20.0  T
   5    -75.3200718 -0.501606E-08  0.447E-04    2.15      32.6  T
     SCC iter.                  ...        0 min,  0.013 sec
     gradient                   ...        0 min,  0.005 sec
 * total energy  :   -74.3130410 Eh     change       -0.1065315E-04 Eh
   gradient norm :     0.0013130 Eh/α   predicted    -0.4486098E-05 ( -57.89%)
   displ. norm   :     0.1643683 α      lambda       -0.1160001E-04
   maximum displ.:     0.1027448 α      in ANC's #2, #5, #4, ...

........................................................................
.............................. CYCLE   32 ..............................
........................................................................

 iter      E             dE          RMSdq      gap      omega  full diag
   1    -75.3206575 -0.753207E+02  0.451E-02    2.15       0.0  T
   2    -75.3206578 -0.245294E-06  0.267E-02    2.15       1.0  T
   3    -75.3206566  0.120510E-05  0.504E-03    2.15       2.9  T
   4    -75.3206580 -0.140389E-05  0.102E-03    2.15      14.3  T
   5    -75.3206580 -0.827472E-08  0.636E-04    2.15      22.9  T
   6    -75.3206580 -0.622379E-08  0.157E-04    2.15      92.9  T
     SCC iter.                  ...        0 min,  0.016 sec
     gradient                   ...        0 min,  0.005 sec
 * total energy  :   -74.3130543 Eh     change       -0.1324474E-04 Eh
   gradient norm :     0.0005823 Eh/α   predicted    -0.5870881E-05 ( -55.67%)
   displ. norm   :     0.1669960 α      lambda       -0.8996014E-05
   maximum displ.:     0.1076272 α      in ANC's #2, #4, #5, ...

........................................................................
.............................. CYCLE   33 ..............................
........................................................................

 iter      E             dE          RMSdq      gap      omega  full diag
   1    -75.3208591 -0.753209E+02  0.465E-02    2.15       0.0  T
   2    -75.3208594 -0.270243E-06  0.276E-02    2.15       1.0  T
   3    -75.3208585  0.936689E-06  0.443E-03    2.15       3.3  T
   4    -75.3208596 -0.112129E-05  0.104E-03    2.15      14.1  T
   5    -75.3208596 -0.890304E-08  0.656E-04    2.15      22.2  T
   6    -75.3208596 -0.771982E-08  0.174E-04    2.15      84.0  T
     SCC iter.                  ...        0 min,  0.016 sec
     gradient                   ...        0 min,  0.006 sec
 * total energy  :   -74.3130648 Eh     change       -0.1056564E-04 Eh
   gradient norm :     0.0004450 Eh/α   predicted    -0.4557772E-05 ( -56.86%)
   displ. norm   :     0.1115442 α      lambda       -0.6261660E-05
   maximum displ.:     0.0764182 α      in ANC's #2, #4, #5, ...

........................................................................
.............................. CYCLE   34 ..............................
........................................................................

 iter      E             dE          RMSdq      gap      omega  full diag
   1    -75.3211936 -0.753212E+02  0.306E-02    2.15       0.0  T
   2    -75.3211937 -0.105552E-06  0.182E-02    2.15       1.0  T
   3    -75.3211932  0.466622E-06  0.308E-03    2.15       4.7  T
   4    -75.3211938 -0.546000E-06  0.638E-04    2.15      22.9  T
   5    -75.3211938 -0.339762E-08  0.405E-04    2.15      36.0  T
     SCC iter.                  ...        0 min,  0.013 sec
     gradient                   ...        0 min,  0.006 sec
 * total energy  :   -74.3130725 Eh     change       -0.7678406E-05 Eh
   gradient norm :     0.0003888 Eh/α   predicted    -0.3149714E-05 ( -58.98%)
   displ. norm   :     0.1023150 α      lambda       -0.5554387E-05
   maximum displ.:     0.0704431 α      in ANC's #2, #4, #7, ...

........................................................................
.............................. CYCLE   35 ..............................
........................................................................

 iter      E             dE          RMSdq      gap      omega  full diag
   1    -75.3211822 -0.753212E+02  0.277E-02    2.15       0.0  T
   2    -75.3211823 -0.845290E-07  0.164E-02    2.15       1.0  T
   3    -75.3211819  0.351415E-06  0.267E-03    2.15       5.5  T
   4    -75.3211823 -0.414719E-06  0.575E-04    2.15      25.4  T
   5    -75.3211823 -0.171075E-08  0.372E-04    2.15      39.2  T
     SCC iter.                  ...        0 min,  0.014 sec
     gradient                   ...        0 min,  0.005 sec
 * total energy  :   -74.3130795 Eh     change       -0.7004348E-05 Eh
   gradient norm :     0.0003527 Eh/α   predicted    -0.2792451E-05 ( -60.13%)
   displ. norm   :     0.1015843 α      lambda       -0.5408911E-05
   maximum displ.:     0.0695501 α      in ANC's #2, #4, #9, ...

........................................................................
.............................. CYCLE   36 ..............................
........................................................................

 iter      E             dE          RMSdq      gap      omega  full diag
   1    -75.3212176 -0.753212E+02  0.260E-02    2.15       0.0  T
   2    -75.3212176 -0.638569E-07  0.154E-02    2.15       1.0  T
   3    -75.3212174  0.219622E-06  0.218E-03    2.15       6.7  T
   4    -75.3212177 -0.263590E-06  0.498E-04    2.15      29.3  T
   5    -75.3212177 -0.106837E-08  0.319E-04    2.15      45.8  T
     SCC iter.                  ...        0 min,  0.014 sec
     gradient                   ...        0 min,  0.004 sec
 * total energy  :   -74.3130859 Eh     change       -0.6366500E-05 Eh
   gradient norm :     0.0003626 Eh/α   predicted    -0.2718322E-05 ( -57.30%)
   displ. norm   :     0.0926840 α      lambda       -0.3717904E-05
   maximum displ.:     0.0632008 α      in ANC's #2, #4, #15, ...

........................................................................
.............................. CYCLE   37 ..............................
........................................................................

 iter      E             dE          RMSdq      gap      omega  full diag
   1    -75.3209729 -0.753210E+02  0.237E-02    2.15       0.0  T
   2    -75.3209729 -0.529903E-07  0.141E-02    2.15       1.0  T
   3    -75.3209727  0.225327E-06  0.223E-03    2.15       6.5  T
   4    -75.3209730 -0.266604E-06  0.470E-04    2.15      31.0  T
   5    -75.3209730 -0.476319E-09  0.285E-04    2.15      51.2  T
     SCC iter.                  ...        0 min,  0.035 sec
     gradient                   ...        0 min,  0.025 sec
 * total energy  :   -74.3130899 Eh     change       -0.4041286E-05 Eh
   gradient norm :     0.0003468 Eh/α   predicted    -0.1868615E-05 ( -53.76%)
   displ. norm   :     0.0657429 α      lambda       -0.1987096E-05
   maximum displ.:     0.0453935 α      in ANC's #2, #4, #15, ...

   *** GEOMETRY OPTIMIZATION CONVERGED AFTER 37 ITERATIONS ***

------------------------------------------------------------------------
 total energy gain   :        -0.0311230 Eh      -19.5300 kcal/mol
 total RMSD          :         0.6326562 a0        0.3348 Å
 total power (kW/mol):        -2.2084708 (step)  -69.0363 (real)
------------------------------------------------------------------------

 ANCopt (total)                0 d,  0 h,  0 min,  1.184 sec
 optimizer setup                ...        0 min,  0.000 sec (  0.010%)
 model hessian                  ...        0 min,  0.052 sec (  4.423%)
 ANC generation                 ...        0 min,  0.004 sec (  0.335%)
 coordinate transformation      ...        0 min,  0.001 sec (  0.077%)
 single point calculation       ...        0 min,  1.103 sec ( 93.170%)
 optimization log               ...        0 min,  0.014 sec (  1.185%)
 hessian update                 ...        0 min,  0.004 sec (  0.370%)
 rational function              ...        0 min,  0.003 sec (  0.293%)

================
 final structure:
================
47
 xtb: 6.7.1 (edcfbbe)
O            1.81673364301757       -2.39791393849627        2.41380172745951
C            1.65012526052538       -1.87540564017787        1.33483419944837
C            0.51310586764470       -2.35872735627468        0.39475845963415
O            0.11218798402935       -3.61246187354155        0.89121882213862
C           -1.05547354161245       -4.13937371636322        0.29867752605821
O            0.92214672227956       -2.45629769565313       -0.95445350227379
C            2.00664909899308       -3.33756325493598       -1.16670771750997
C           -0.60027027254213       -1.32837048056127        0.50124307651793
C           -1.09564167007827       -1.00972268382790        1.76244403823460
C           -2.11349795912997       -0.09207830384388        1.89788887243769
C           -2.66053024783285        0.52927682508404        0.77360807047566
O           -3.65553386558004        1.42636113080933        1.01690883163699
C           -4.26634268800253        2.08729184221543       -0.07506854615742
C           -5.33173990959849        3.01429582888020        0.51404725890287
O           -6.35914150582534        2.29665628903625        1.14072065778367
C           -2.17625441938686        0.20099294682727       -0.48697855494526
C           -1.15542031097919       -0.72585107896468       -0.61554107128078
C            2.46879700904309       -0.74286841940142        0.90416725364765
C            2.24100940284047        0.04810530331939       -0.15506517689015
C            3.03584939505725        1.19081974300200       -0.56124847105668
C            2.59976218329588        1.94917099731319       -1.65283770248946
C            3.31366962052985        3.04924878162049       -2.08504105972965
C            4.48257852356334        3.41578679992935       -1.43739674485274
C            4.93015645419648        2.67356795203899       -0.35542479141418
C            4.21722888962966        1.57439140537180        0.08038480200411
H           -0.98203658174260       -4.13303595384840       -0.79329785233013
H           -1.13212602236143       -5.16355041213140        0.65769450718008
H           -1.94402112418337       -3.57463197175182        0.60022225426017
H            2.08676192695197       -3.45880240761867       -2.24522131887041
H            2.93787215627037       -2.91762998790937       -0.77160684989711
H            1.82401430892790       -4.30605821024089       -0.69456807418806
H           -0.68125891222245       -1.49564048708524        2.63263876765558
H           -2.50403650345845        0.16373306926209        2.87001074376848
H           -4.74145305589693        1.35851558226688       -0.74487017319222
H           -3.52919576262705        2.67525880627699       -0.63672249383401
H           -4.84837771097249        3.70240288936409        1.22210496994206
H           -5.79921236967663        3.59312587817413       -0.28512155193771
H           -5.95062583611705        1.70471438150078        1.78447807995847
H           -2.58727855407626        0.65218061214746       -1.37625964525697
H           -0.79271624564245       -0.99118549372588       -1.59638410269765
H            3.30058608796380       -0.55955325920147        1.57205028814758
H            1.38665166826728       -0.15590915684009       -0.78405267882015
H            1.68856869634251        1.66481587847822       -2.15959822728645
H            2.96113546786458        3.62362548787968       -2.92915199847345
H            5.04306137482389        4.27510016941212       -1.77409108571982
H            5.84170829582227        2.95591322281213        0.15047428873544
H            4.58182403166215        1.00728095937623        0.92232889506371
 
 Bond Distances (Angstroems)
 ---------------------------
O1-C2=1.2103         C2-O1=1.2103         C2-C3=1.5525         C2-C18=1.4623        C3-C2=1.5525         C3-O4=1.4068         
C3-O6=1.4132         C3-C8=1.5207         O4-C3=1.4068         O4-C5=1.4114         C5-O4=1.4114         C5-H26=1.0945        
C5-H27=1.0880        C5-H28=1.0952        O6-C3=1.4132         O6-C7=1.4134         C7-O6=1.4134         C7-H29=1.0883        
C7-H30=1.0953        C7-H31=1.0928        C8-C3=1.5207         C8-C9=1.3920         C8-C17=1.3851        C9-C8=1.3920         
C9-C10=1.3771        C9-H32=1.0794        C10-C9=1.3771        C10-C11=1.3962       C10-H33=1.0784       C11-C10=1.3962       
C11-O12=1.3616       C11-C16=1.3897       O12-C11=1.3616       O12-C13=1.4150       C13-O12=1.4150       C13-C14=1.5302       
C13-H34=1.0979       C13-H35=1.0975       C14-C13=1.5302       C14-O15=1.4012       C14-H36=1.0993       C14-H37=1.0919       
O15-C14=1.4012       O15-H38=0.9652       C16-C11=1.3897       C16-C17=1.3848       C16-H39=1.0786       C17-C8=1.3851        
C17-C16=1.3848       C17-H40=1.0789       C18-C2=1.4623        C18-C19=1.3415       C18-H41=1.0824       C19-C18=1.3415       
C19-C20=1.4500       C19-H42=1.0804       C20-C19=1.4500       C20-C21=1.3989       C20-C25=1.3980       C21-C20=1.3989       
C21-C22=1.3808       C21-H43=1.0807       C22-C21=1.3808       C22-C23=1.3857       C22-H44=1.0801       C23-C22=1.3857       
C23-C24=1.3863       C23-H45=1.0798       C24-C23=1.3863       C24-C25=1.3807       C24-H46=1.0801       C25-C20=1.3980       
C25-C24=1.3807       C25-H47=1.0786       H26-C5=1.0945        H27-C5=1.0880        H28-C5=1.0952        H29-C7=1.0883        
H30-C7=1.0953        H31-C7=1.0928        H32-C9=1.0794        H33-C10=1.0784       H34-C13=1.0979       H35-C13=1.0975       
H36-C14=1.0993       H37-C14=1.0919       H38-O15=0.9652       H39-C16=1.0786       H40-C17=1.0789       H41-C18=1.0824       
H42-C19=1.0804       H43-C21=1.0807       H44-C22=1.0801       H45-C23=1.0798       H46-C24=1.0801       H47-C25=1.0786       
 C  H  Rav=1.0866 sigma=0.0076  Rmin=1.0784  Rmax=1.0993    21
 C  C  Rav=1.4174 sigma=0.0584  Rmin=1.3415  Rmax=1.5525    18
 O  H  Rav=0.9652 sigma=0.0000  Rmin=0.9652  Rmax=0.9652     1
 O  C  Rav=1.3791 sigma=0.0659  Rmin=1.2103  Rmax=1.4150     8
 
 selected bond angles (degree)
 --------------------
C3-C2-O1=120.41                C18-C2-O1=121.32               C18-C2-C3=118.22               O4-C3-C2=105.81                
O6-C3-C2=112.81                O6-C3-O4=110.97                C8-C3-C2=106.43                C8-C3-O4=111.74                
C8-C3-O6=109.00                C5-O4-C3=114.85                H26-C5-O4=111.17               H27-C5-O4=105.73               
H27-C5-H26=109.84              H28-C5-O4=111.29               H28-C5-H26=109.04              H28-C5-H27=109.72              
C7-O6-C3=114.11                H29-C7-O6=105.95               H30-C7-O6=111.05               H30-C7-H29=109.73              
H31-C7-O6=111.07               H31-C7-H29=109.98              H31-C7-H30=109.03              C9-C8-C3=118.63                
C17-C8-C3=122.12               C17-C8-C9=119.23               C10-C9-C8=120.31               H32-C9-C8=119.39               
H32-C9-C10=120.29              C11-C10-C9=120.46              H33-C10-C9=120.96              H33-C10-C11=118.58             
 
 selected dihedral angles (degree)
 ---------------------------------
O4-C3-C2-O1=344.10            O4-C3-C2-C18=166.64           O6-C3-C2-O1=222.60            O6-C3-C2-C18= 45.13           
C8-C3-C2-O1=103.11            C8-C3-C2-C18=285.65           C5-O4-C3-C2=170.80            C5-O4-C3-O6=293.48            
C5-O4-C3-C8= 55.36            H26-C5-O4-C3= 51.37           H27-C5-O4-C3=170.53           H28-C5-O4-C3=289.61           
C7-O6-C3-C2= 58.85            C7-O6-C3-O4=300.31            C7-O6-C3-C8=176.84            H29-C7-O6-C3=169.49           
H30-C7-O6-C3=288.58           H31-C7-O6-C3= 50.09           C9-C8-C3-C2=306.00            C9-C8-C3-O4= 61.05            
C9-C8-C3-O6=184.06            C17-C8-C3-C2=127.63           C17-C8-C3-O4=242.68           C17-C8-C3-O6=  5.69           
C10-C9-C8-C3=180.70           C10-C9-C8-C17=359.11          H32-C9-C8-C3=  0.10           H32-C9-C8-C17=178.52          
C11-C10-C9-C8=  0.00          C11-C10-C9-H32=180.60         H33-C10-C9-C8=180.10          H33-C10-C9-H32=  0.70         
           -------------------------------------------------
          |                Final Singlepoint                |
           -------------------------------------------------

          ...................................................
          :                      SETUP                      :
          :.................................................:
          :  # basis functions                 122          :
          :  # atomic orbitals                 122          :
          :  # shells                           72          :
          :  # electrons                       132          :
          :  max. iterations                   250          :
          :  Hamiltonian                  GFN2-xTB          :
          :  restarted?                      false          :
          :  GBSA solvation                  false          :
          :  PC potential                    false          :
          :  electronic temp.          300.0000000     K    :
          :  accuracy                    1.0000000          :
          :  -> integral cutoff          0.2500000E+02      :
          :  -> integral neglect         0.1000000E-07      :
          :  -> SCF convergence          0.1000000E-05 Eh   :
          :  -> wf. convergence          0.1000000E-03 e    :
          :  Broyden damping             0.4000000          :
          :  net charge                          0          :
          :  unpaired electrons                  0          :
          ...................................................

 iter      E             dE          RMSdq      gap      omega  full diag
   1    -75.3209730 -0.753210E+02  0.774E-05    2.15       0.0  T
   2    -75.3209730 -0.529212E-10  0.515E-05    2.15     283.4  T
   3    -75.3209730 -0.364224E-10  0.337E-05    2.15     432.4  T

   *** convergence criteria satisfied after 3 iterations ***

         #    Occupation            Energy/Eh            Energy/eV
      -------------------------------------------------------------
         1        2.0000           -0.7285982             -19.8262
       ...           ...                  ...                  ...
        60        2.0000           -0.4209499             -11.4546
        61        2.0000           -0.4201780             -11.4336
        62        2.0000           -0.4163774             -11.3302
        63        2.0000           -0.4084069             -11.1133
        64        2.0000           -0.4033101             -10.9746
        65        2.0000           -0.3956732             -10.7668
        66        2.0000           -0.3790752             -10.3152 (HOMO)
        67                         -0.2999815              -8.1629 (LUMO)
        68                         -0.2370939              -6.4517
        69                         -0.2353988              -6.4055
        70                         -0.2310590              -6.2874
        71                         -0.2244207              -6.1068
       ...                                ...                  ...
       122                          0.6960400              18.9402
      -------------------------------------------------------------
                  HL-Gap            0.0790937 Eh            2.1522 eV
             Fermi-level           -0.3395283 Eh           -9.2390 eV

 SCC (total)                   0 d,  0 h,  0 min,  0.018 sec
 SCC setup                      ...        0 min,  0.000 sec (  0.531%)
 Dispersion                     ...        0 min,  0.000 sec (  1.424%)
 classical contributions        ...        0 min,  0.000 sec (  0.234%)
 integral evaluation            ...        0 min,  0.002 sec (  9.171%)
 iterations                     ...        0 min,  0.009 sec ( 49.788%)
 molecular gradient             ...        0 min,  0.007 sec ( 37.780%)
 printout                       ...        0 min,  0.000 sec (  0.933%)

         :::::::::::::::::::::::::::::::::::::::::::::::::::::
         ::                     SUMMARY                     ::
         :::::::::::::::::::::::::::::::::::::::::::::::::::::
         :: total energy             -74.313089926796 Eh    ::
         :: gradient norm              0.000346626862 Eh/a0 ::
         :: HOMO-LUMO gap              2.152248303740 eV    ::
         ::.................................................::
         :: SCC energy               -75.320386750323 Eh    ::
         :: -> isotropic ES            0.101574867528 Eh    ::
         :: -> anisotropic ES          0.002854677740 Eh    ::
         :: -> anisotropic XC          0.020461847516 Eh    ::
         :: -> dispersion             -0.049469195669 Eh    ::
         :: repulsion energy           1.007296823527 Eh    ::
         :: add. restraining           0.000000000000 Eh    ::
         :: total charge              -0.000000000000 e     ::
         :::::::::::::::::::::::::::::::::::::::::::::::::::::

           -------------------------------------------------
          |                Property Printout                |
           -------------------------------------------------

    * Orbital Energies and Occupations

         #    Occupation            Energy/Eh            Energy/eV
      -------------------------------------------------------------
         1        2.0000           -0.7285982             -19.8262
       ...           ...                  ...                  ...
        54        2.0000           -0.4521392             -12.3033
        55        2.0000           -0.4467124             -12.1557
        56        2.0000           -0.4403399             -11.9823
        57        2.0000           -0.4343205             -11.8185
        58        2.0000           -0.4308985             -11.7253
        59        2.0000           -0.4251561             -11.5691
        60        2.0000           -0.4209499             -11.4546
        61        2.0000           -0.4201780             -11.4336
        62        2.0000           -0.4163774             -11.3302
        63        2.0000           -0.4084069             -11.1133
        64        2.0000           -0.4033101             -10.9746
        65        2.0000           -0.3956732             -10.7668
        66        2.0000           -0.3790752             -10.3152 (HOMO)
        67                         -0.2999815              -8.1629 (LUMO)
        68                         -0.2370939              -6.4517
        69                         -0.2353988              -6.4055
        70                         -0.2310590              -6.2874
        71                         -0.2244207              -6.1068
        72                         -0.1681770              -4.5763
        73                         -0.1038503              -2.8259
        74                         -0.0922895              -2.5113
        75                          0.0001426               0.0039
        76                          0.0071397               0.1943
        77                          0.0268770               0.7314
       ...                                ...                  ...
       122                          0.6960400              18.9402
      -------------------------------------------------------------
                  HL-Gap            0.0790937 Eh            2.1522 eV
             Fermi-level           -0.3395283 Eh           -9.2390 eV

     #   Z          covCN         q      C6AA      α(0)
     1   8 O        0.858    -0.339    20.504     6.071
     2   6 C        2.818     0.211    23.531     7.948
     3   6 C        3.701     0.249    16.896     5.878
     4   8 O        1.702    -0.315    19.266     5.926
     5   6 C        3.645     0.045    20.145     6.450
     6   8 O        1.700    -0.336    19.625     5.981
     7   6 C        3.646     0.044    20.155     6.451
     8   6 C        2.975    -0.021    28.517     8.760
     9   6 C        2.923    -0.033    28.817     8.803
    10   6 C        2.920    -0.053    29.324     8.880
    11   6 C        2.863     0.143    24.876     8.175
    12   8 O        1.706    -0.278    18.611     5.825
    13   6 C        3.690     0.069    19.602     6.336
    14   6 C        3.674     0.075    19.549     6.336
    15   8 O        1.656    -0.432    21.478     6.256
    16   6 C        2.917    -0.067    29.678     8.934
    17   6 C        2.922    -0.032    28.802     8.801
    18   6 C        2.892    -0.063    29.575     8.916
    19   6 C        2.901    -0.019    28.470     8.749
    20   6 C        2.970     0.017    27.628     8.622
    21   6 C        2.929    -0.029    28.722     8.789
    22   6 C        2.916    -0.027    28.683     8.782
    23   6 C        2.920    -0.024    28.614     8.772
    24   6 C        2.917    -0.027    28.670     8.780
    25   6 C        2.923    -0.028    28.694     8.784
    26   1 H        0.924     0.039     2.462     2.454
    27   1 H        0.925     0.061     2.187     2.313
    28   1 H        0.924     0.030     2.585     2.514
    29   1 H        0.925     0.057     2.234     2.337
    30   1 H        0.924     0.027     2.628     2.535
    31   1 H        0.924     0.050     2.319     2.381
    32   1 H        0.926     0.057     2.232     2.336
    33   1 H        0.926     0.054     2.268     2.355
    34   1 H        0.923     0.045     2.388     2.417
    35   1 H        0.924     0.033     2.549     2.497
    36   1 H        0.923     0.038     2.476     2.461
    37   1 H        0.924     0.055     2.254     2.348
    38   1 H        0.805     0.304     0.709     1.323
    39   1 H        0.926     0.038     2.470     2.458
    40   1 H        0.926     0.054     2.270     2.356
    41   1 H        0.925     0.065     2.138     2.286
    42   1 H        0.926     0.065     2.138     2.286
    43   1 H        0.926     0.038     2.474     2.459
    44   1 H        0.926     0.037     2.488     2.467
    45   1 H        0.926     0.038     2.471     2.458
    46   1 H        0.926     0.039     2.465     2.455
    47   1 H        0.926     0.043     2.408     2.427

 Mol. C6AA /au·bohr⁶  :      24539.105769
 Mol. C8AA /au·bohr⁸  :     577421.316338
 Mol. α(0) /au        :        243.931302


Wiberg/Mayer (AO) data.
largest (>0.10) Wiberg bond orders for each atom

 ---------------------------------------------------------------------------
     #   Z sym  total        # sym  WBO       # sym  WBO       # sym  WBO
 ---------------------------------------------------------------------------
     1   8 O    2.063 --     2 C    1.818
     2   6 C    3.926 --     1 O    1.818    18 C    1.079     3 C    0.902
     3   6 C    3.924 --     4 O    0.971     6 O    0.960     8 C    0.947
                             2 C    0.902
     4   8 O    2.094 --     5 C    0.984     3 C    0.971
     5   6 C    3.947 --     4 O    0.984    27 H    0.980    26 H    0.979
                            28 H    0.978
     6   8 O    2.080 --     7 C    0.982     3 C    0.960
     7   6 C    3.945 --     6 O    0.982    29 H    0.981    31 H    0.978
                            30 H    0.977
     8   6 C    3.983 --    17 C    1.420     9 C    1.387     3 C    0.947
     9   6 C    3.989 --    10 C    1.477     8 C    1.387    32 H    0.966
                            16 C    0.102
    10   6 C    3.987 --     9 C    1.477    11 C    1.346    33 H    0.967
                            17 C    0.107
    11   6 C    3.933 --    16 C    1.377    10 C    1.346    12 O    1.059
    12   8 O    2.225 --    11 C    1.059    13 C    0.968
    13   6 C    3.947 --    14 C    0.990    12 O    0.968    35 H    0.967
                            34 H    0.967
    14   6 C    3.963 --    15 O    1.014    13 C    0.990    37 H    0.971
                            36 H    0.967
    15   8 O    1.965 --    14 C    1.014    38 H    0.892
    16   6 C    3.986 --    17 C    1.435    11 C    1.377    39 H    0.966
                             9 C    0.102
    17   6 C    3.990 --    16 C    1.435     8 C    1.420    40 H    0.965
                            10 C    0.107
    18   6 C    3.987 --    19 C    1.752     2 C    1.079    41 H    0.954
    19   6 C    3.982 --    18 C    1.752    20 C    1.119    42 H    0.953
    20   6 C    3.990 --    21 C    1.361    25 C    1.360    19 C    1.119
    21   6 C    3.981 --    22 C    1.462    20 C    1.361    43 H    0.968
                            24 C    0.103
    22   6 C    3.992 --    21 C    1.462    23 C    1.429    44 H    0.970
                            25 C    0.104
    23   6 C    3.980 --    22 C    1.429    24 C    1.425    45 H    0.971
    24   6 C    3.992 --    25 C    1.466    23 C    1.425    46 H    0.970
                            21 C    0.103
    25   6 C    3.990 --    24 C    1.466    20 C    1.360    47 H    0.965
                            22 C    0.104
    26   1 H    0.998 --     5 C    0.979
    27   1 H    0.996 --     5 C    0.980
    28   1 H    0.999 --     5 C    0.978
    29   1 H    0.996 --     7 C    0.981
    30   1 H    0.999 --     7 C    0.977
    31   1 H    0.997 --     7 C    0.978
    32   1 H    0.996 --     9 C    0.966
    33   1 H    0.997 --    10 C    0.967
    34   1 H    0.998 --    13 C    0.967
    35   1 H    0.999 --    13 C    0.967
    36   1 H    0.999 --    14 C    0.967
    37   1 H    0.996 --    14 C    0.971
    38   1 H    0.908 --    15 O    0.892
    39   1 H    0.998 --    16 C    0.966
    40   1 H    0.997 --    17 C    0.965
    41   1 H    0.995 --    18 C    0.954
    42   1 H    0.995 --    19 C    0.953
    43   1 H    0.999 --    21 C    0.968
    44   1 H    0.998 --    22 C    0.970
    45   1 H    0.998 --    23 C    0.971
    46   1 H    0.998 --    24 C    0.970
    47   1 H    0.998 --    25 C    0.965
 ---------------------------------------------------------------------------

Topologies differ in total number of bonds
Writing topology from bond orders to xtbtopo.mol

molecular dipole:
                 x           y           z       tot (Debye)
 q only:        0.342       1.165      -1.389
   full:        0.539       1.138      -1.625       5.226
molecular quadrupole (traceless):
                xx          xy          yy          xz          yz          zz
 q only:       -0.402      11.121       3.911      -4.195       6.311      -3.509
  q+dip:       -5.929      15.012       4.958      -0.691       5.432       0.971
   full:       -4.946      14.216       5.983      -2.955       7.542      -1.037

           -------------------------------------------------
          |                Geometry Summary                 |
           -------------------------------------------------

      molecular mass/u    :      342.3864391
   center of mass at/Å    :        0.0399524      -0.0752073       0.1932386
  moments of inertia/u·Å² :        0.2156708E+04   0.3711330E+04   0.5217053E+04
rotational constants/cm⁻¹ :        0.7816371E-02   0.4542208E-02   0.3231256E-02

 * 44 selected distances

     #   Z          #   Z                                           value/Å
     1   8 O        2   6 C                                       1.2103489
     3   6 C        4   8 O                                       1.4067902
     4   8 O        5   6 C                                       1.4114443
     3   6 C        6   8 O                                       1.4132260
     6   8 O        7   6 C                                       1.4134449
     8   6 C        9   6 C                                       1.3919617
     9   6 C       10   6 C                                       1.3771159
    10   6 C       11   6 C                                       1.3961856
    11   6 C       12   8 O                                       1.3616123
    12   8 O       13   6 C                                       1.4150377
    13   6 C       14   6 C                                       1.5301848 (max)
    14   6 C       15   8 O                                       1.4011711
    11   6 C       16   6 C                                       1.3897382
     8   6 C       17   6 C                                       1.3850734
    16   6 C       17   6 C                                       1.3847999
    18   6 C       19   6 C                                       1.3414545
    20   6 C       21   6 C                                       1.3988696
    21   6 C       22   6 C                                       1.3808096
    22   6 C       23   6 C                                       1.3856918
    23   6 C       24   6 C                                       1.3863183
    20   6 C       25   6 C                                       1.3980266
    24   6 C       25   6 C                                       1.3807191
     5   6 C       26   1 H                                       1.0944604
     5   6 C       27   1 H                                       1.0879830
     5   6 C       28   1 H                                       1.0951619
     7   6 C       29   1 H                                       1.0882595
     7   6 C       30   1 H                                       1.0952741
     7   6 C       31   1 H                                       1.0928193
     9   6 C       32   1 H                                       1.0793833
    10   6 C       33   1 H                                       1.0784160
    13   6 C       34   1 H                                       1.0979431
    13   6 C       35   1 H                                       1.0975182
    14   6 C       36   1 H                                       1.0993072
    14   6 C       37   1 H                                       1.0919001
    15   8 O       38   1 H                                       0.9652482 (min)
    16   6 C       39   1 H                                       1.0785788
    17   6 C       40   1 H                                       1.0788929
    18   6 C       41   1 H                                       1.0823795
    19   6 C       42   1 H                                       1.0803585
    21   6 C       43   1 H                                       1.0807117
    22   6 C       44   1 H                                       1.0801446
    23   6 C       45   1 H                                       1.0797795
    24   6 C       46   1 H                                       1.0800832
    25   6 C       47   1 H                                       1.0786167

 * 4 distinct bonds (by element types)

   Z      Z             #   av. dist./Å        max./Å        min./Å
   1 H    6 C          21     1.0865701     1.0993072     1.0784160
   6 C    6 C          14     1.3947821     1.5301848     1.3414545
   1 H    8 O           1     0.9652482     0.9652482     0.9652482
   6 C    8 O           8     1.3791344     1.4150377     1.2103489


optimized geometry written to: xtbopt.xyz


           -------------------------------------------------
          | TOTAL ENERGY              -74.313089926796 Eh   |
          | GRADIENT NORM               0.000346626862 Eh/α |
          | HOMO-LUMO GAP               2.152248303740 eV   |
           -------------------------------------------------

------------------------------------------------------------------------
 * finished run on 2025/12/01 at 14:23:11.980     
------------------------------------------------------------------------
 total:
 * wall-time:     0 d,  0 h,  0 min,  1.287 sec
 *  cpu-time:     0 d,  0 h,  0 min, 29.287 sec
 * ratio c/w:    22.761 speedup
 SCF:
 * wall-time:     0 d,  0 h,  0 min,  0.075 sec
 *  cpu-time:     0 d,  0 h,  0 min,  1.639 sec
 * ratio c/w:    21.927 speedup
 ANC optimizer:
 * wall-time:     0 d,  0 h,  0 min,  1.203 sec
 *  cpu-time:     0 d,  0 h,  0 min, 27.479 sec
 * ratio c/w:    22.849 speedup

normal termination of xtb
