      -----------------------------------------------------------      
     |                   =====================                   |     
     |                           x T B                           |     
     |                   =====================                   |     
     |                         S. Grimme                         |     
     |          Mulliken Center for Theoretical Chemistry        |     
     |                    University of Bonn                     |     
      -----------------------------------------------------------      

   * xtb version 6.7.1 (edcfbbe) compiled by 'albert@albert-system' on 2024-07-22

   xtb is free software: you can redistribute it and/or modify it under
   the terms of the GNU Lesser General Public License as published by
   the Free Software Foundation, either version 3 of the License, or
   (at your option) any later version.
   
   xtb is distributed in the hope that it will be useful,
   but WITHOUT ANY WARRANTY; without even the implied warranty of
   MERCHANTABILITY or FITNESS FOR A PARTICULAR PURPOSE.  See the
   GNU Lesser General Public License for more details.
   
   Cite this work as:
   * C. Bannwarth, E. Caldeweyher, S. Ehlert, A. Hansen, P. Pracht,
     J. Seibert, S. Spicher, S. Grimme, WIREs Comput. Mol. Sci., 2020, 11,
     e01493. DOI: 10.1002/wcms.1493
   
   for GFN2-xTB:
   * C. Bannwarth, S. Ehlert and S. Grimme., J. Chem. Theory Comput., 2019,
     15, 1652-1671. DOI: 10.1021/acs.jctc.8b01176
   for GFN1-xTB:
   * S. Grimme, C. Bannwarth, P. Shushkov, J. Chem. Theory Comput., 2017,
     13, 1989-2009. DOI: 10.1021/acs.jctc.7b00118
   for GFN0-xTB:
   * P. Pracht, E. Caldeweyher, S. Ehlert, S. Grimme, ChemRxiv, 2019, preprint.
     DOI: 10.26434/chemrxiv.8326202.v1
   for GFN-FF:
   * S. Spicher and S. Grimme, Angew. Chem. Int. Ed., 2020, 59, 15665-15673.
     DOI: 10.1002/anie.202004239
   
   for ALPB and GBSA implicit solvation:
   * S. Ehlert, M. Stahn, S. Spicher, S. Grimme, J. Chem. Theory Comput.,
     2021, 17, 4250-4261. DOI: 10.1021/acs.jctc.1c00471
   
   for ddCOSMO and CPCM-X implicit solvation:
   * M. Stahn, S. Ehlert, S. Grimme, J. Phys. Chem. A,
     2023, XX, XXXX-XXXX. DOI: 10.1021/acs.jpca.3c04382
   
   for DFT-D4:
   * E. Caldeweyher, C. Bannwarth and S. Grimme, J. Chem. Phys., 2017,
     147, 034112. DOI: 10.1063/1.4993215
   * E. Caldeweyher, S. Ehlert, A. Hansen, H. Neugebauer, S. Spicher,
     C. Bannwarth and S. Grimme, J. Chem. Phys., 2019, 150, 154122.
     DOI: 10.1063/1.5090222
   * E. Caldeweyher, J.-M. Mewes, S. Ehlert and S. Grimme, Phys. Chem. Chem. Phys.
     2020, 22, 8499-8512. DOI: 10.1039/D0CP00502A
   
   for sTDA-xTB:
   * S. Grimme and C. Bannwarth, J. Chem. Phys., 2016, 145, 054103.
     DOI: 10.1063/1.4959605
   
   in the mass-spec context:
   * V. Asgeirsson, C. Bauer and S. Grimme, Chem. Sci., 2017, 8, 4879.
     DOI: 10.1039/c7sc00601b
   * J. Koopman and S. Grimme, ACS Omega 2019, 4, 12, 15120-15133.
     DOI: 10.1021/acsomega.9b02011
   
   for metadynamics refer to:
   * S. Grimme, J. Chem. Theory Comput., 2019, 155, 2847-2862
     DOI: 10.1021/acs.jctc.9b00143
   
   for SPH calculations refer to:
   * S. Spicher and S. Grimme, J. Chem. Theory Comput., 2021, 17, 1701-1714
     DOI: 10.1021/acs.jctc.0c01306
   
   for ONIOM refer to:
   * C. Plett, A. Katbashev, S. Ehlert, S. Grimme, M. Bursch,
     Phys. Chem. Chem. Phys., 2023, 25, 17860-17868. DOI: 10.1039/D3CP02178E
   
   for DIPRO refer to:
   * J. Kohn, N. Gildemeister, S. Grimme, D. Fazzi, A. Hansen,
     J. Chem. Phys., 2023, just accepted.
   
   for PTB refer to:
   * S. Grimme, M. Mueller, A. Hansen, J. Chem. Phys., 2023, 158, 124111.
     DOI: 10.1063/5.0137838
   
   with help from (in alphabetical order)
   P. Atkinson, C. Bannwarth, F. Bohle, G. Brandenburg, E. Caldeweyher
   M. Checinski, S. Dohm, S. Ehlert, S. Ehrlich, I. Gerasimov, C. Hölzer
   A. Katbashev, J. Kohn, J. Koopman, C. Lavigne, S. Lehtola, F. März, M. Müller,
   F. Musil, H. Neugebauer, J. Pisarek, C. Plett, P. Pracht, F. Pultar,
   J. Seibert, P. Shushkov, S. Spicher, M. Stahn, M. Steiner, T. Strunk,
   J. Stückrath, T. Rose, and J. Unsleber
   
 * started run on 2025/12/01 at 14:23:07.346     
   ID    Z sym.   atoms
    1    8 O      1, 4, 6, 12, 15
    2    6 C      2, 3, 5, 7-11, 13, 14, 16-25
    3    1 H      26-47

           -------------------------------------------------
          |                Calculation Setup                |
           -------------------------------------------------

          program call               : xtb pipeline_data/3_conformer_xyz/acrylates/rdkit/UUHZUEBKUREPBP-MDWZMJQESA-N_conf238.xyz --opt --gfn 2-xTB --iterations 250
          coordinate file            : pipeline_data/3_conformer_xyz/acrylates/rdkit/UUHZUEBKUREPBP-MDWZMJQESA-N_conf238.xyz
          omp threads                :                    24

########################################################################
[WARNING] Please study the warnings concerning your input carefully
-1- readin_getIntValue: could not parse '2-xTB'
########################################################################

           -------------------------------------------------
          |                 G F N 2 - x T B                 |
           -------------------------------------------------

        Reference                      10.1021/acs.jctc.8b01176
      * Hamiltonian:
        H0-scaling (s, p, d)           1.850000    2.230000    2.230000
        zeta-weighting                 0.500000
      * Dispersion:
        s8                             2.700000
        a1                             0.520000
        a2                             5.000000
        s9                             5.000000
      * Repulsion:
        kExp                           1.500000    1.000000
        rExp                           1.000000
      * Coulomb:
        alpha                          2.000000
        third order                    shell-resolved
        anisotropic                    true
        a3                             3.000000
        a5                             4.000000
        cn-shift                       1.200000
        cn-exp                         4.000000
        max-rad                        5.000000


          ...................................................
          :                      SETUP                      :
          :.................................................:
          :  # basis functions                 122          :
          :  # atomic orbitals                 122          :
          :  # shells                           72          :
          :  # electrons                       132          :
          :  max. iterations                   250          :
          :  Hamiltonian                  GFN2-xTB          :
          :  restarted?                      false          :
          :  GBSA solvation                  false          :
          :  PC potential                    false          :
          :  electronic temp.          300.0000000     K    :
          :  accuracy                    1.0000000          :
          :  -> integral cutoff          0.2500000E+02      :
          :  -> integral neglect         0.1000000E-07      :
          :  -> SCF convergence          0.1000000E-05 Eh   :
          :  -> wf. convergence          0.1000000E-03 e    :
          :  Broyden damping             0.4000000          :
          :  net charge                          0          :
          :  unpaired electrons                  0          :
          ...................................................

 iter      E             dE          RMSdq      gap      omega  full diag
   1    -75.1883312 -0.751883E+02  0.446E+00    2.53       0.0  T
   2    -75.2769432 -0.886119E-01  0.244E+00    2.09       1.0  T
   3    -75.2707825  0.616062E-02  0.114E+00    2.33       1.0  T
   4    -75.2863358 -0.155533E-01  0.243E-01    2.15       1.0  T
   5    -75.2875329 -0.119704E-02  0.789E-02    2.22       1.0  T
   6    -75.2875707 -0.378738E-04  0.426E-02    2.22       1.0  T
   7    -75.2876007 -0.299631E-04  0.194E-02    2.22       1.0  T
   8    -75.2876040 -0.328390E-05  0.789E-03    2.22       1.8  T
   9    -75.2876062 -0.217787E-05  0.249E-03    2.22       5.9  T
  10    -75.2876063 -0.115555E-06  0.112E-03    2.22      13.0  T
  11    -75.2876063 -0.686687E-08  0.448E-04    2.22      32.6  T
  12    -75.2876063 -0.284854E-08  0.169E-04    2.22      86.5  T

   *** convergence criteria satisfied after 12 iterations ***

         #    Occupation            Energy/Eh            Energy/eV
      -------------------------------------------------------------
         1        2.0000           -0.7252457             -19.7349
       ...           ...                  ...                  ...
        60        2.0000           -0.4171387             -11.3509
        61        2.0000           -0.4160204             -11.3205
        62        2.0000           -0.4142417             -11.2721
        63        2.0000           -0.4051563             -11.0249
        64        2.0000           -0.4027843             -10.9603
        65        2.0000           -0.3911675             -10.6442
        66        2.0000           -0.3822108             -10.4005 (HOMO)
        67                         -0.3006364              -8.1807 (LUMO)
        68                         -0.2334694              -6.3530
        69                         -0.2331088              -6.3432
        70                         -0.2301976              -6.2640
        71                         -0.2232933              -6.0761
       ...                                ...                  ...
       122                          0.6996017              19.0371
      -------------------------------------------------------------
                  HL-Gap            0.0815744 Eh            2.2198 eV
             Fermi-level           -0.3414236 Eh           -9.2906 eV

 SCC (total)                   0 d,  0 h,  0 min,  0.056 sec
 SCC setup                      ...        0 min,  0.000 sec (  0.576%)
 Dispersion                     ...        0 min,  0.001 sec (  1.359%)
 classical contributions        ...        0 min,  0.000 sec (  0.236%)
 integral evaluation            ...        0 min,  0.003 sec (  4.978%)
 iterations                     ...        0 min,  0.047 sec ( 83.386%)
 molecular gradient             ...        0 min,  0.005 sec (  8.921%)
 printout                       ...        0 min,  0.000 sec (  0.483%)

         :::::::::::::::::::::::::::::::::::::::::::::::::::::
         ::                     SUMMARY                     ::
         :::::::::::::::::::::::::::::::::::::::::::::::::::::
         :: total energy             -74.281996911980 Eh    ::
         :: gradient norm              0.157389326537 Eh/a0 ::
         :: HOMO-LUMO gap              2.219753185968 eV    ::
         ::.................................................::
         :: SCC energy               -75.287358309477 Eh    ::
         :: -> isotropic ES            0.103679299624 Eh    ::
         :: -> anisotropic ES          0.004194675538 Eh    ::
         :: -> anisotropic XC          0.019251915125 Eh    ::
         :: -> dispersion             -0.047737151102 Eh    ::
         :: repulsion energy           1.005361397497 Eh    ::
         :: add. restraining           0.000000000000 Eh    ::
         :: total charge              -0.000000000000 e     ::
         :::::::::::::::::::::::::::::::::::::::::::::::::::::

      ----------------------------------------------------------- 
     |                   =====================                   |
     |                        A N C O P T                        |
     |                   =====================                   |
     |               Approximate Normal Coordinate               |
     |                Rational Function Optimizer                |
      ----------------------------------------------------------- 
      ----------------------------------------------------------- 
     |                   =====================                   |
     |                        A N C O P T                        |
     |                   =====================                   |
     |               Approximate Normal Coordinate               |
     |                Rational Function Optimizer                |
      ----------------------------------------------------------- 

          ...................................................
          :                      SETUP                      :
          :.................................................:
          :   optimization level            normal          :
          :   max. optcycles                   200          :
          :   ANC micro-cycles                  20          :
          :   degrees of freedom               135          :
          :.................................................:
          :   RF solver                   davidson          :
          :   write xtbopt.log                true          :
          :   linear?                        false          :
          :   energy convergence         0.5000000E-05 Eh   :
          :   grad. convergence          0.1000000E-02 Eh/α :
          :   maxmium RF displ.          1.0000000          :
          :   Hlow (freq-cutoff)         0.1000000E-01      :
          :   Hmax (freq-cutoff)         5.0000000          :
          :   S6 in model hess.         20.0000000          :
          ...................................................

generating ANC from exact Hessian ...
Using Lindh-Hessian (1995)
 Shifting diagonal of input Hessian by   9.904867691792376E-003
 Lowest  eigenvalues of input Hessian
    0.000000    0.000000    0.000000    0.000000    0.000000    0.000000
    0.010000    0.010304    0.010526    0.010745    0.011211    0.011504
    0.012193    0.012453    0.012485    0.013068    0.013722    0.015187
 Highest eigenvalues
    1.957591    2.028023    2.053976    2.076971    2.108457    2.134926
 

........................................................................
.............................. CYCLE    1 ..............................
........................................................................

 iter      E             dE          RMSdq      gap      omega  full diag
   1    -75.2876063 -0.752876E+02  0.723E-05    2.22       0.0  T
   2    -75.2876063 -0.388383E-10  0.473E-05    2.22     308.5  T
   3    -75.2876063 -0.155609E-10  0.309E-05    2.22     472.8  T
     SCC iter.                  ...        0 min,  0.009 sec
     gradient                   ...        0 min,  0.005 sec
 * total energy  :   -74.2819969 Eh     change       -0.4737757E-09 Eh
   gradient norm :     0.1573895 Eh/α   predicted     0.0000000E+00 (-100.00%)
   displ. norm   :     0.3502307 α      lambda       -0.2883240E-01
   maximum displ.:     0.1326524 α      in ANC's #40, #34, #26, ...

........................................................................
.............................. CYCLE    2 ..............................
........................................................................

 iter      E             dE          RMSdq      gap      omega  full diag
   1    -75.3060197 -0.753060E+02  0.257E-01    2.22       0.0  T
   2    -75.3064856 -0.465810E-03  0.160E-01    2.22       1.0  T
   3    -75.3064494  0.361421E-04  0.782E-02    2.21       1.0  T
   4    -75.3065579 -0.108476E-03  0.235E-02    2.20       1.0  T
   5    -75.3065815 -0.236082E-04  0.661E-03    2.21       2.2  T
   6    -75.3065826 -0.113835E-05  0.350E-03    2.21       4.2  T
   7    -75.3065830 -0.357572E-06  0.147E-03    2.21       9.9  T
   8    -75.3065830 -0.197792E-07  0.620E-04    2.21      23.5  T
   9    -75.3065830 -0.288519E-08  0.218E-04    2.21      67.0  T
     SCC iter.                  ...        0 min,  0.024 sec
     gradient                   ...        0 min,  0.005 sec
 * total energy  :   -74.3022654 Eh     change       -0.2026844E-01 Eh
   gradient norm :     0.0657909 Eh/α   predicted    -0.1619620E-01 ( -20.09%)
   displ. norm   :     0.3191427 α      lambda       -0.9772453E-02
   maximum displ.:     0.1043570 α      in ANC's #40, #32, #34, ...

........................................................................
.............................. CYCLE    3 ..............................
........................................................................

 iter      E             dE          RMSdq      gap      omega  full diag
   1    -75.3150574 -0.753151E+02  0.185E-01    2.19       0.0  T
   2    -75.3153291 -0.271632E-03  0.116E-01    2.18       1.0  T
   3    -75.3153179  0.111964E-04  0.591E-02    2.18       1.0  T
   4    -75.3153756 -0.577342E-04  0.202E-02    2.17       1.0  T
   5    -75.3153908 -0.152546E-04  0.612E-03    2.17       2.4  T
   6    -75.3153920 -0.117633E-05  0.280E-03    2.17       5.2  T
   7    -75.3153923 -0.259382E-06  0.999E-04    2.17      14.6  T
   8    -75.3153923 -0.743303E-08  0.458E-04    2.17      31.9  T
     SCC iter.                  ...        0 min,  0.021 sec
     gradient                   ...        0 min,  0.005 sec
 * total energy  :   -74.3080809 Eh     change       -0.5815587E-02 Eh
   gradient norm :     0.0180629 Eh/α   predicted    -0.5385961E-02 (  -7.39%)
   displ. norm   :     0.2230579 α      lambda       -0.1446428E-02
   maximum displ.:     0.0791779 α      in ANC's #6, #15, #16, ...

........................................................................
.............................. CYCLE    4 ..............................
........................................................................

 iter      E             dE          RMSdq      gap      omega  full diag
   1    -75.3145126 -0.753145E+02  0.705E-02    2.16       0.0  T
   2    -75.3145249 -0.122437E-04  0.430E-02    2.16       1.0  T
   3    -75.3145125  0.123720E-04  0.198E-02    2.16       1.0  T
   4    -75.3145287 -0.162323E-04  0.461E-03    2.16       3.2  T
   5    -75.3145292 -0.501021E-06  0.237E-03    2.16       6.2  T
   6    -75.3145294 -0.174312E-06  0.964E-04    2.16      15.1  T
   7    -75.3145294 -0.126226E-07  0.490E-04    2.16      29.8  T
     SCC iter.                  ...        0 min,  0.018 sec
     gradient                   ...        0 min,  0.005 sec
 * total energy  :   -74.3091112 Eh     change       -0.1030231E-02 Eh
   gradient norm :     0.0103620 Eh/α   predicted    -0.7592004E-03 ( -26.31%)
   displ. norm   :     0.2831299 α      lambda       -0.8917917E-03
   maximum displ.:     0.1218724 α      in ANC's #6, #13, #15, ...

........................................................................
.............................. CYCLE    5 ..............................
........................................................................

 iter      E             dE          RMSdq      gap      omega  full diag
   1    -75.3140600 -0.753141E+02  0.728E-02    2.15       0.0  T
   2    -75.3140637 -0.371398E-05  0.435E-02    2.15       1.0  T
   3    -75.3140598  0.393879E-05  0.113E-02    2.15       1.3  T
   4    -75.3140647 -0.493831E-05  0.306E-03    2.15       4.8  T
   5    -75.3140649 -0.151632E-06  0.173E-03    2.15       8.4  T
   6    -75.3140650 -0.807333E-07  0.793E-04    2.15      18.4  T
   7    -75.3140650 -0.535964E-08  0.330E-04    2.15      44.2  T
     SCC iter.                  ...        0 min,  0.018 sec
     gradient                   ...        0 min,  0.005 sec
 * total energy  :   -74.3097292 Eh     change       -0.6180187E-03 Eh
   gradient norm :     0.0092471 Eh/α   predicted    -0.4816406E-03 ( -22.07%)
   displ. norm   :     0.2810366 α      lambda       -0.5218324E-03
   maximum displ.:     0.1289872 α      in ANC's #6, #13, #5, ...

........................................................................
.............................. CYCLE    6 ..............................
........................................................................

 iter      E             dE          RMSdq      gap      omega  full diag
   1    -75.3146072 -0.753146E+02  0.687E-02    2.16       0.0  T
   2    -75.3146089 -0.174266E-05  0.412E-02    2.16       1.0  T
   3    -75.3145986  0.103268E-04  0.150E-02    2.16       1.0  T
   4    -75.3146102 -0.116297E-04  0.257E-03    2.16       5.7  T
   5    -75.3146104 -0.142628E-06  0.131E-03    2.16      11.1  T
   6    -75.3146104 -0.714080E-08  0.565E-04    2.16      25.8  T
   7    -75.3146104 -0.605834E-08  0.221E-04    2.16      66.1  T
     SCC iter.                  ...        0 min,  0.018 sec
     gradient                   ...        0 min,  0.006 sec
 * total energy  :   -74.3101216 Eh     change       -0.3924246E-03 Eh
   gradient norm :     0.0106920 Eh/α   predicted    -0.2815549E-03 ( -28.25%)
   displ. norm   :     0.3450948 α      lambda       -0.5345445E-03
   maximum displ.:     0.1590444 α      in ANC's #6, #5, #4, ...

........................................................................
.............................. CYCLE    7 ..............................
........................................................................

 iter      E             dE          RMSdq      gap      omega  full diag
   1    -75.3159120 -0.753159E+02  0.843E-02    2.17       0.0  T
   2    -75.3159151 -0.315525E-05  0.506E-02    2.17       1.0  T
   3    -75.3158960  0.191595E-04  0.199E-02    2.17       1.0  T
   4    -75.3159176 -0.216042E-04  0.328E-03    2.18       4.5  T
   5    -75.3159178 -0.236640E-06  0.169E-03    2.18       8.6  T
   6    -75.3159178 -0.263918E-07  0.805E-04    2.18      18.1  T
   7    -75.3159179 -0.841244E-08  0.308E-04    2.17      47.4  T
     SCC iter.                  ...        0 min,  0.018 sec
     gradient                   ...        0 min,  0.006 sec
 * total energy  :   -74.3105232 Eh     change       -0.4015346E-03 Eh
   gradient norm :     0.0101576 Eh/α   predicted    -0.2991023E-03 ( -25.51%)
   displ. norm   :     0.3534288 α      lambda       -0.4585648E-03
   maximum displ.:     0.1599025 α      in ANC's #6, #4, #5, ...

........................................................................
.............................. CYCLE    8 ..............................
........................................................................

 iter      E             dE          RMSdq      gap      omega  full diag
   1    -75.3171105 -0.753171E+02  0.893E-02    2.18       0.0  T
   2    -75.3171132 -0.277731E-05  0.533E-02    2.19       1.0  T
   3    -75.3170997  0.135337E-04  0.166E-02    2.19       1.0  T
   4    -75.3171150 -0.153237E-04  0.321E-03    2.19       4.5  T
   5    -75.3171152 -0.217265E-06  0.171E-03    2.19       8.5  T
   6    -75.3171153 -0.321087E-07  0.747E-04    2.19      19.5  T
   7    -75.3171153 -0.516479E-08  0.286E-04    2.19      51.0  T
     SCC iter.                  ...        0 min,  0.018 sec
     gradient                   ...        0 min,  0.005 sec
 * total energy  :   -74.3108658 Eh     change       -0.3426338E-03 Eh
   gradient norm :     0.0085690 Eh/α   predicted    -0.2579400E-03 ( -24.72%)
   displ. norm   :     0.3234954 α      lambda       -0.3523760E-03
   maximum displ.:     0.1442699 α      in ANC's #4, #6, #5, ...

........................................................................
.............................. CYCLE    9 ..............................
........................................................................

 iter      E             dE          RMSdq      gap      omega  full diag
   1    -75.3182910 -0.753183E+02  0.872E-02    2.19       0.0  T
   2    -75.3182929 -0.189947E-05  0.518E-02    2.19       1.0  T
   3    -75.3182892  0.378757E-05  0.936E-03    2.19       1.6  T
   4    -75.3182938 -0.467056E-05  0.252E-03    2.19       5.8  T
   5    -75.3182939 -0.106823E-06  0.156E-03    2.19       9.4  T
   6    -75.3182940 -0.311621E-07  0.627E-04    2.19      23.3  T
   7    -75.3182940 -0.548056E-08  0.213E-04    2.19      68.4  T
     SCC iter.                  ...        0 min,  0.019 sec
     gradient                   ...        0 min,  0.005 sec
 * total energy  :   -74.3111155 Eh     change       -0.2496675E-03 Eh
   gradient norm :     0.0054391 Eh/α   predicted    -0.1946455E-03 ( -22.04%)
   displ. norm   :     0.3104868 α      lambda       -0.2271901E-03
   maximum displ.:     0.1470528 α      in ANC's #4, #6, #14, ...

........................................................................
.............................. CYCLE   10 ..............................
........................................................................

 iter      E             dE          RMSdq      gap      omega  full diag
   1    -75.3168305 -0.753168E+02  0.889E-02    2.19       0.0  T
   2    -75.3168322 -0.167471E-05  0.528E-02    2.19       1.0  T
   3    -75.3168312  0.923428E-06  0.603E-03    2.19       2.4  T
   4    -75.3168328 -0.154841E-05  0.204E-03    2.19       7.2  T
   5    -75.3168328 -0.343125E-07  0.113E-03    2.19      12.9  T
   6    -75.3168328 -0.115995E-07  0.466E-04    2.19      31.3  T
   7    -75.3168328 -0.572750E-08  0.201E-04    2.19      72.4  T
     SCC iter.                  ...        0 min,  0.018 sec
     gradient                   ...        0 min,  0.005 sec
 * total energy  :   -74.3112294 Eh     change       -0.1139176E-03 Eh
   gradient norm :     0.0091474 Eh/α   predicted    -0.1245497E-03 (   9.33%)
   displ. norm   :     0.1984789 α      lambda       -0.2388850E-03
   maximum displ.:     0.1073266 α      in ANC's #4, #14, #15, ...

........................................................................
.............................. CYCLE   11 ..............................
........................................................................

 iter      E             dE          RMSdq      gap      omega  full diag
   1    -75.3193909 -0.753194E+02  0.628E-02    2.18       0.0  T
   2    -75.3193925 -0.159484E-05  0.371E-02    2.18       1.0  T
   3    -75.3193901  0.232204E-05  0.797E-03    2.18       1.8  T
   4    -75.3193930 -0.282759E-05  0.222E-03    2.18       6.6  T
   5    -75.3193931 -0.106055E-06  0.118E-03    2.18      12.4  T
   6    -75.3193931 -0.254381E-07  0.546E-04    2.18      26.7  T
   7    -75.3193931 -0.331893E-08  0.227E-04    2.18      64.4  T
     SCC iter.                  ...        0 min,  0.025 sec
     gradient                   ...        0 min,  0.023 sec
 * total energy  :   -74.3113185 Eh     change       -0.8914572E-04 Eh
   gradient norm :     0.0067398 Eh/α   predicted    -0.1241565E-03 (  39.27%)
   displ. norm   :     0.0641782 α      lambda       -0.8041896E-04
   maximum displ.:     0.0330730 α      in ANC's #4, #2, #14, ...

........................................................................
.............................. CYCLE   12 ..............................
........................................................................

 iter      E             dE          RMSdq      gap      omega  full diag
   1    -75.3185669 -0.753186E+02  0.207E-02    2.18       0.0  T
   2    -75.3185672 -0.240214E-06  0.123E-02    2.18       1.2  T
   3    -75.3185671  0.957534E-07  0.219E-03    2.18       6.7  T
   4    -75.3185672 -0.157815E-06  0.600E-04    2.18      24.3  T
   5    -75.3185672 -0.239287E-08  0.338E-04    2.18      43.2  T
     SCC iter.                  ...        0 min,  0.016 sec
     gradient                   ...        0 min,  0.004 sec
 * total energy  :   -74.3113815 Eh     change       -0.6299324E-04 Eh
   gradient norm :     0.0032436 Eh/α   predicted    -0.4037588E-04 ( -35.90%)
   displ. norm   :     0.1565154 α      lambda       -0.1176024E-03
   maximum displ.:     0.0781688 α      in ANC's #4, #5, #2, ...

........................................................................
.............................. CYCLE   13 ..............................
........................................................................

 iter      E             dE          RMSdq      gap      omega  full diag
   1    -75.3187520 -0.753188E+02  0.478E-02    2.17       0.0  T
   2    -75.3187528 -0.856768E-06  0.282E-02    2.17       1.0  T
   3    -75.3187525  0.388861E-06  0.415E-03    2.17       3.5  T
   4    -75.3187530 -0.563002E-06  0.135E-03    2.17      10.8  T
   5    -75.3187530 -0.310604E-07  0.667E-04    2.17      21.9  T
   6    -75.3187531 -0.908088E-08  0.350E-04    2.17      41.6  T
     SCC iter.                  ...        0 min,  0.016 sec
     gradient                   ...        0 min,  0.005 sec
 * total energy  :   -74.3114596 Eh     change       -0.7813441E-04 Eh
   gradient norm :     0.0039582 Eh/α   predicted    -0.6024592E-04 ( -22.89%)
   displ. norm   :     0.1811085 α      lambda       -0.7269067E-04
   maximum displ.:     0.0993151 α      in ANC's #4, #2, #5, ...

........................................................................
.............................. CYCLE   14 ..............................
........................................................................

 iter      E             dE          RMSdq      gap      omega  full diag
   1    -75.3174214 -0.753174E+02  0.570E-02    2.17       0.0  T
   2    -75.3174219 -0.551167E-06  0.336E-02    2.17       1.0  T
   3    -75.3174216  0.274263E-06  0.319E-03    2.16       4.6  T
   4    -75.3174221 -0.446153E-06  0.872E-04    2.17      16.7  T
   5    -75.3174221 -0.546366E-08  0.487E-04    2.17      29.9  T
     SCC iter.                  ...        0 min,  0.012 sec
     gradient                   ...        0 min,  0.017 sec
 * total energy  :   -74.3115133 Eh     change       -0.5365549E-04 Eh
   gradient norm :     0.0047796 Eh/α   predicted    -0.3753835E-04 ( -30.04%)
   displ. norm   :     0.2581712 α      lambda       -0.1037787E-03
   maximum displ.:     0.1324281 α      in ANC's #4, #5, #2, ...

........................................................................
.............................. CYCLE   15 ..............................
........................................................................

 iter      E             dE          RMSdq      gap      omega  full diag
   1    -75.3177359 -0.753177E+02  0.794E-02    2.16       0.0  T
   2    -75.3177367 -0.806124E-06  0.468E-02    2.16       1.0  T
   3    -75.3177365  0.140545E-06  0.324E-03    2.16       4.5  T
   4    -75.3177369 -0.360000E-06  0.128E-03    2.16      11.4  T
   5    -75.3177369 -0.216016E-07  0.669E-04    2.16      21.8  T
   6    -75.3177369 -0.568677E-08  0.341E-04    2.16      42.8  T
     SCC iter.                  ...        0 min,  0.015 sec
     gradient                   ...        0 min,  0.004 sec
 * total energy  :   -74.3115923 Eh     change       -0.7902869E-04 Eh
   gradient norm :     0.0047860 Eh/α   predicted    -0.5535375E-04 ( -29.96%)
   displ. norm   :     0.3383368 α      lambda       -0.1246457E-03
   maximum displ.:     0.1801169 α      in ANC's #4, #2, #5, ...

........................................................................
.............................. CYCLE   16 ..............................
........................................................................

 iter      E             dE          RMSdq      gap      omega  full diag
   1    -75.3169278 -0.753169E+02  0.105E-01    2.16       0.0  T
   2    -75.3169287 -0.894140E-06  0.617E-02    2.16       1.0  T
   3    -75.3169284  0.343010E-06  0.403E-03    2.16       3.6  T
   4    -75.3169291 -0.747102E-06  0.137E-03    2.16      10.6  T
   5    -75.3169291 -0.557262E-08  0.705E-04    2.16      20.7  T
   6    -75.3169291 -0.670602E-08  0.293E-04    2.16      49.7  T
     SCC iter.                  ...        0 min,  0.015 sec
     gradient                   ...        0 min,  0.004 sec
 * total energy  :   -74.3116863 Eh     change       -0.9396841E-04 Eh
   gradient norm :     0.0046074 Eh/α   predicted    -0.6946178E-04 ( -26.08%)
   displ. norm   :     0.3307727 α      lambda       -0.1281629E-03
   maximum displ.:     0.1728658 α      in ANC's #4, #5, #2, ...

........................................................................
.............................. CYCLE   17 ..............................
........................................................................

 iter      E             dE          RMSdq      gap      omega  full diag
   1    -75.3179032 -0.753179E+02  0.993E-02    2.15       0.0  T
   2    -75.3179043 -0.105765E-05  0.585E-02    2.15       1.0  T
   3    -75.3179037  0.539132E-06  0.443E-03    2.16       3.3  T
   4    -75.3179047 -0.934918E-06  0.148E-03    2.16       9.9  T
   5    -75.3179047 -0.237688E-07  0.782E-04    2.16      18.7  T
   6    -75.3179047 -0.457287E-08  0.392E-04    2.16      37.2  T
     SCC iter.                  ...        0 min,  0.027 sec
     gradient                   ...        0 min,  0.005 sec
 * total energy  :   -74.3117783 Eh     change       -0.9198125E-04 Eh
   gradient norm :     0.0041950 Eh/α   predicted    -0.7109969E-04 ( -22.70%)
   displ. norm   :     0.2929446 α      lambda       -0.1030371E-03
   maximum displ.:     0.1532789 α      in ANC's #4, #2, #5, ...

........................................................................
.............................. CYCLE   18 ..............................
........................................................................

 iter      E             dE          RMSdq      gap      omega  full diag
   1    -75.3186515 -0.753187E+02  0.846E-02    2.16       0.0  T
   2    -75.3186526 -0.109876E-05  0.499E-02    2.16       1.0  T
   3    -75.3186515  0.113496E-05  0.553E-03    2.16       2.6  T
   4    -75.3186530 -0.156277E-05  0.156E-03    2.16       9.4  T
   5    -75.3186530 -0.191012E-07  0.101E-03    2.16      14.4  T
   6    -75.3186531 -0.221433E-07  0.381E-04    2.16      38.3  T
   7    -75.3186531 -0.130126E-08  0.139E-04    2.16     104.9  T
     SCC iter.                  ...        0 min,  0.021 sec
     gradient                   ...        0 min,  0.006 sec
 * total energy  :   -74.3118516 Eh     change       -0.7335452E-04 Eh
   gradient norm :     0.0034270 Eh/α   predicted    -0.5594425E-04 ( -23.73%)
   displ. norm   :     0.2716888 α      lambda       -0.9219169E-04
   maximum displ.:     0.1371692 α      in ANC's #4, #2, #5, ...

........................................................................
.............................. CYCLE   19 ..............................
........................................................................

 iter      E             dE          RMSdq      gap      omega  full diag
   1    -75.3198251 -0.753198E+02  0.779E-02    2.16       0.0  T
   2    -75.3198274 -0.221598E-05  0.460E-02    2.16       1.0  T
   3    -75.3198262  0.112952E-05  0.565E-03    2.16       2.6  T
   4    -75.3198277 -0.150057E-05  0.191E-03    2.16       7.6  T
   5    -75.3198278 -0.103885E-06  0.886E-04    2.16      16.5  T
   6    -75.3198278 -0.699387E-08  0.492E-04    2.16      29.6  T
     SCC iter.                  ...        0 min,  0.018 sec
     gradient                   ...        0 min,  0.005 sec
 * total energy  :   -74.3119147 Eh     change       -0.6309009E-04 Eh
   gradient norm :     0.0033881 Eh/α   predicted    -0.4950092E-04 ( -21.54%)
   displ. norm   :     0.3270828 α      lambda       -0.7659552E-04
   maximum displ.:     0.1667788 α      in ANC's #4, #2, #5, ...

........................................................................
.............................. CYCLE   20 ..............................
........................................................................

 iter      E             dE          RMSdq      gap      omega  full diag
   1    -75.3183740 -0.753184E+02  0.933E-02    2.16       0.0  T
   2    -75.3183751 -0.114499E-05  0.550E-02    2.16       1.0  T
   3    -75.3183739  0.122424E-05  0.564E-03    2.16       2.6  T
   4    -75.3183756 -0.172915E-05  0.184E-03    2.16       7.9  T
   5    -75.3183757 -0.272946E-07  0.112E-03    2.16      13.0  T
   6    -75.3183757 -0.258029E-07  0.403E-04    2.16      36.2  T
   7    -75.3183757 -0.206487E-08  0.141E-04    2.16     103.6  T
     SCC iter.                  ...        0 min,  0.022 sec
     gradient                   ...        0 min,  0.005 sec
 * total energy  :   -74.3119677 Eh     change       -0.5301148E-04 Eh
   gradient norm :     0.0040168 Eh/α   predicted    -0.4240139E-04 ( -20.01%)
   displ. norm   :     0.2840416 α      lambda       -0.1395279E-03
   maximum displ.:     0.1495002 α      in ANC's #5, #2, #6, ...
 * RMSD in coord.:     0.5771600 α      energy gain  -0.2997082E-01 Eh

generating ANC from exact Hessian ...
Using Lindh-Hessian (1995)
 Shifting diagonal of input Hessian by   9.918246048448962E-003
 Lowest  eigenvalues of input Hessian
    0.000000    0.000000    0.000000    0.000000    0.000000    0.000000
    0.010000    0.010310    0.010533    0.010731    0.011353    0.011440
    0.012060    0.012304    0.012459    0.012509    0.013458    0.014952
 Highest eigenvalues
    1.942896    2.013858    2.023237    2.089842    2.129353    2.218584
 

........................................................................
.............................. CYCLE   21 ..............................
........................................................................

 iter      E             dE          RMSdq      gap      omega  full diag
   1    -75.3250628 -0.753251E+02  0.818E-02    2.16       0.0  T
   2    -75.3250649 -0.213442E-05  0.484E-02    2.16       1.0  T
   3    -75.3250578  0.716217E-05  0.122E-02    2.16       1.2  T
   4    -75.3250658 -0.805437E-05  0.259E-03    2.16       5.6  T
   5    -75.3250660 -0.197040E-06  0.116E-03    2.16      12.6  T
   6    -75.3250660 -0.198442E-07  0.521E-04    2.16      28.0  T
   7    -75.3250660 -0.136293E-08  0.207E-04    2.16      70.5  T
     SCC iter.                  ...        0 min,  0.020 sec
     gradient                   ...        0 min,  0.005 sec
 * total energy  :   -74.3119951 Eh     change       -0.2734148E-04 Eh
   gradient norm :     0.0070067 Eh/α   predicted     0.0000000E+00 (-100.00%)
   displ. norm   :     0.0519726 α      lambda       -0.1262549E-03
   maximum displ.:     0.0236740 α      in ANC's #6, #15, #11, ...

........................................................................
.............................. CYCLE   22 ..............................
........................................................................

 iter      E             dE          RMSdq      gap      omega  full diag
   1    -75.3212670 -0.753213E+02  0.206E-02    2.16       0.0  T
   2    -75.3212676 -0.554042E-06  0.124E-02    2.16       1.2  T
   3    -75.3212671  0.439205E-06  0.375E-03    2.16       3.9  T
   4    -75.3212677 -0.552202E-06  0.942E-04    2.16      15.5  T
   5    -75.3212677 -0.223026E-07  0.512E-04    2.16      28.5  T
     SCC iter.                  ...        0 min,  0.015 sec
     gradient                   ...        0 min,  0.005 sec
 * total energy  :   -74.3120840 Eh     change       -0.8893398E-04 Eh
   gradient norm :     0.0030291 Eh/α   predicted    -0.6364801E-04 ( -28.43%)
   displ. norm   :     0.0865340 α      lambda       -0.7437225E-04
   maximum displ.:     0.0453781 α      in ANC's #6, #11, #15, ...

........................................................................
.............................. CYCLE   23 ..............................
........................................................................

 iter      E             dE          RMSdq      gap      omega  full diag
   1    -75.3189256 -0.753189E+02  0.246E-02    2.15       0.0  T
   2    -75.3189262 -0.601985E-06  0.147E-02    2.15       1.0  T
   3    -75.3189259  0.283488E-06  0.328E-03    2.15       4.4  T
   4    -75.3189263 -0.400195E-06  0.851E-04    2.15      17.1  T
   5    -75.3189263 -0.131142E-07  0.405E-04    2.15      36.0  T
     SCC iter.                  ...        0 min,  0.015 sec
     gradient                   ...        0 min,  0.007 sec
 * total energy  :   -74.3121349 Eh     change       -0.5086923E-04 Eh
   gradient norm :     0.0020850 Eh/α   predicted    -0.3746775E-04 ( -26.34%)
   displ. norm   :     0.1064634 α      lambda       -0.4920601E-04
   maximum displ.:     0.0600488 α      in ANC's #6, #11, #5, ...

........................................................................
.............................. CYCLE   24 ..............................
........................................................................

 iter      E             dE          RMSdq      gap      omega  full diag
   1    -75.3183358 -0.753183E+02  0.274E-02    2.15       0.0  T
   2    -75.3183362 -0.433912E-06  0.164E-02    2.15       1.0  T
   3    -75.3183361  0.150837E-06  0.246E-03    2.15       5.9  T
   4    -75.3183363 -0.228163E-06  0.937E-04    2.15      15.6  T
   5    -75.3183363 -0.210455E-07  0.457E-04    2.15      31.9  T
     SCC iter.                  ...        0 min,  0.015 sec
     gradient                   ...        0 min,  0.005 sec
 * total energy  :   -74.3121727 Eh     change       -0.3784147E-04 Eh
   gradient norm :     0.0028174 Eh/α   predicted    -0.2509324E-04 ( -33.69%)
   displ. norm   :     0.1464140 α      lambda       -0.5626319E-04
   maximum displ.:     0.0803191 α      in ANC's #6, #5, #11, ...

........................................................................
.............................. CYCLE   25 ..............................
........................................................................

 iter      E             dE          RMSdq      gap      omega  full diag
   1    -75.3187712 -0.753188E+02  0.387E-02    2.14       0.0  T
   2    -75.3187716 -0.435693E-06  0.231E-02    2.14       1.0  T
   3    -75.3187715  0.853029E-07  0.227E-03    2.14       6.4  T
   4    -75.3187717 -0.180202E-06  0.112E-03    2.14      13.0  T
   5    -75.3187717 -0.330484E-07  0.512E-04    2.14      28.5  T
   6    -75.3187717 -0.257462E-08  0.308E-04    2.14      47.4  T
     SCC iter.                  ...        0 min,  0.018 sec
     gradient                   ...        0 min,  0.005 sec
 * total energy  :   -74.3122163 Eh     change       -0.4356538E-04 Eh
   gradient norm :     0.0031506 Eh/α   predicted    -0.2875339E-04 ( -34.00%)
   displ. norm   :     0.1868634 α      lambda       -0.6052792E-04
   maximum displ.:     0.1006885 α      in ANC's #6, #5, #14, ...

........................................................................
.............................. CYCLE   26 ..............................
........................................................................

 iter      E             dE          RMSdq      gap      omega  full diag
   1    -75.3196544 -0.753197E+02  0.505E-02    2.14       0.0  T
   2    -75.3196547 -0.375468E-06  0.300E-02    2.14       1.0  T
   3    -75.3196545  0.184691E-06  0.273E-03    2.14       5.3  T
   4    -75.3196549 -0.333350E-06  0.122E-03    2.14      11.9  T
   5    -75.3196549 -0.197038E-07  0.634E-04    2.14      23.0  T
   6    -75.3196549 -0.732967E-08  0.277E-04    2.14      52.7  T
     SCC iter.                  ...        0 min,  0.018 sec
     gradient                   ...        0 min,  0.005 sec
 * total energy  :   -74.3122624 Eh     change       -0.4613235E-04 Eh
   gradient norm :     0.0030814 Eh/α   predicted    -0.3132171E-04 ( -32.10%)
   displ. norm   :     0.2108279 α      lambda       -0.5936528E-04
   maximum displ.:     0.1107875 α      in ANC's #6, #5, #4, ...

........................................................................
.............................. CYCLE   27 ..............................
........................................................................

 iter      E             dE          RMSdq      gap      omega  full diag
   1    -75.3203053 -0.753203E+02  0.576E-02    2.13       0.0  T
   2    -75.3203057 -0.380893E-06  0.342E-02    2.14       1.0  T
   3    -75.3203054  0.339191E-06  0.324E-03    2.13       4.5  T
   4    -75.3203059 -0.531603E-06  0.122E-03    2.13      11.9  T
   5    -75.3203059 -0.622136E-08  0.722E-04    2.13      20.2  T
   6    -75.3203059 -0.117823E-07  0.212E-04    2.13      68.9  T
     SCC iter.                  ...        0 min,  0.018 sec
     gradient                   ...        0 min,  0.005 sec
 * total energy  :   -74.3123089 Eh     change       -0.4646221E-04 Eh
   gradient norm :     0.0027509 Eh/α   predicted    -0.3100375E-04 ( -33.27%)
   displ. norm   :     0.2434632 α      lambda       -0.6532438E-04
   maximum displ.:     0.1229521 α      in ANC's #6, #5, #4, ...

........................................................................
.............................. CYCLE   28 ..............................
........................................................................

 iter      E             dE          RMSdq      gap      omega  full diag
   1    -75.3205424 -0.753205E+02  0.664E-02    2.13       0.0  T
   2    -75.3205430 -0.603031E-06  0.394E-02    2.13       1.0  T
   3    -75.3205423  0.704925E-06  0.429E-03    2.13       3.4  T
   4    -75.3205433 -0.960589E-06  0.145E-03    2.13      10.1  T
   5    -75.3205433 -0.204281E-07  0.851E-04    2.13      17.1  T
   6    -75.3205433 -0.152454E-07  0.296E-04    2.13      49.2  T
     SCC iter.                  ...        0 min,  0.018 sec
     gradient                   ...        0 min,  0.005 sec
 * total energy  :   -74.3123591 Eh     change       -0.5019935E-04 Eh
   gradient norm :     0.0023496 Eh/α   predicted    -0.3460813E-04 ( -31.06%)
   displ. norm   :     0.2257624 α      lambda       -0.5513447E-04
   maximum displ.:     0.1140628 α      in ANC's #5, #6, #4, ...

........................................................................
.............................. CYCLE   29 ..............................
........................................................................

 iter      E             dE          RMSdq      gap      omega  full diag
   1    -75.3204691 -0.753205E+02  0.617E-02    2.13       0.0  T
   2    -75.3204697 -0.605485E-06  0.366E-02    2.13       1.0  T
   3    -75.3204688  0.869172E-06  0.459E-03    2.13       3.2  T
   4    -75.3204699 -0.109486E-05  0.146E-03    2.13      10.0  T
   5    -75.3204699 -0.332285E-07  0.803E-04    2.13      18.2  T
   6    -75.3204700 -0.133653E-07  0.299E-04    2.13      48.8  T
     SCC iter.                  ...        0 min,  0.018 sec
     gradient                   ...        0 min,  0.007 sec
 * total energy  :   -74.3123997 Eh     change       -0.4066988E-04 Eh
   gradient norm :     0.0022401 Eh/α   predicted    -0.2899318E-04 ( -28.71%)
   displ. norm   :     0.1738881 α      lambda       -0.3430456E-04
   maximum displ.:     0.0917103 α      in ANC's #5, #4, #6, ...

........................................................................
.............................. CYCLE   30 ..............................
........................................................................

 iter      E             dE          RMSdq      gap      omega  full diag
   1    -75.3202542 -0.753203E+02  0.483E-02    2.13       0.0  T
   2    -75.3202545 -0.335481E-06  0.286E-02    2.13       1.0  T
   3    -75.3202538  0.739088E-06  0.411E-03    2.13       3.5  T
   4    -75.3202547 -0.896793E-06  0.112E-03    2.13      13.0  T
   5    -75.3202547 -0.172661E-07  0.624E-04    2.13      23.4  T
   6    -75.3202547 -0.671118E-08  0.213E-04    2.13      68.6  T
     SCC iter.                  ...        0 min,  0.017 sec
     gradient                   ...        0 min,  0.007 sec
 * total energy  :   -74.3124258 Eh     change       -0.2605288E-04 Eh
   gradient norm :     0.0021916 Eh/α   predicted    -0.1767220E-04 ( -32.17%)
   displ. norm   :     0.1439246 α      lambda       -0.2858007E-04
   maximum displ.:     0.0778290 α      in ANC's #5, #4, #6, ...

........................................................................
.............................. CYCLE   31 ..............................
........................................................................

 iter      E             dE          RMSdq      gap      omega  full diag
   1    -75.3203742 -0.753204E+02  0.419E-02    2.13       0.0  T
   2    -75.3203745 -0.233911E-06  0.248E-02    2.13       1.0  T
   3    -75.3203738  0.652473E-06  0.382E-03    2.13       3.8  T
   4    -75.3203746 -0.779025E-06  0.942E-04    2.13      15.5  T
   5    -75.3203746 -0.114177E-07  0.538E-04    2.13      27.1  T
     SCC iter.                  ...        0 min,  0.015 sec
     gradient                   ...        0 min,  0.005 sec
 * total energy  :   -74.3124486 Eh     change       -0.2280652E-04 Eh
   gradient norm :     0.0019736 Eh/α   predicted    -0.1458863E-04 ( -36.03%)
   displ. norm   :     0.2651857 α      lambda       -0.3341764E-04
   maximum displ.:     0.1442945 α      in ANC's #5, #4, #2, ...

........................................................................
.............................. CYCLE   32 ..............................
........................................................................

 iter      E             dE          RMSdq      gap      omega  full diag
   1    -75.3195075 -0.753195E+02  0.810E-02    2.13       0.0  T
   2    -75.3195083 -0.815496E-06  0.480E-02    2.13       1.0  T
   3    -75.3195067  0.161932E-05  0.616E-03    2.13       2.4  T
   4    -75.3195087 -0.201534E-05  0.173E-03    2.13       8.4  T
   5    -75.3195087 -0.336048E-07  0.101E-03    2.13      14.4  T
   6    -75.3195087 -0.158211E-07  0.339E-04    2.13      43.1  T
   7    -75.3195087 -0.195276E-08  0.113E-04    2.13     129.6  T
     SCC iter.                  ...        0 min,  0.021 sec
     gradient                   ...        0 min,  0.007 sec
 * total energy  :   -74.3124826 Eh     change       -0.3403663E-04 Eh
   gradient norm :     0.0024181 Eh/α   predicted    -0.1723404E-04 ( -49.37%)
   displ. norm   :     0.1346618 α      lambda       -0.3349846E-04
   maximum displ.:     0.0713251 α      in ANC's #4, #5, #2, ...

........................................................................
.............................. CYCLE   33 ..............................
........................................................................

 iter      E             dE          RMSdq      gap      omega  full diag
   1    -75.3213525 -0.753214E+02  0.461E-02    2.13       0.0  T
   2    -75.3213528 -0.265299E-06  0.272E-02    2.14       1.0  T
   3    -75.3213527  0.137671E-06  0.214E-03    2.14       6.8  T
   4    -75.3213529 -0.220080E-06  0.826E-04    2.14      17.7  T
   5    -75.3213529 -0.120140E-07  0.466E-04    2.14      31.3  T
     SCC iter.                  ...        0 min,  0.015 sec
     gradient                   ...        0 min,  0.006 sec
 * total energy  :   -74.3125027 Eh     change       -0.2000822E-04 Eh
   gradient norm :     0.0026485 Eh/α   predicted    -0.1705664E-04 ( -14.75%)
   displ. norm   :     0.2422026 α      lambda       -0.4243407E-04
   maximum displ.:     0.1380382 α      in ANC's #4, #5, #2, ...

........................................................................
.............................. CYCLE   34 ..............................
........................................................................

 iter      E             dE          RMSdq      gap      omega  full diag
   1    -75.3199776 -0.753200E+02  0.794E-02    2.13       0.0  T
   2    -75.3199782 -0.635640E-06  0.470E-02    2.13       1.0  T
   3    -75.3199780  0.192876E-06  0.319E-03    2.13       4.6  T
   4    -75.3199785 -0.452641E-06  0.133E-03    2.13      11.0  T
   5    -75.3199785 -0.156729E-07  0.568E-04    2.13      25.7  T
   6    -75.3199785 -0.330546E-08  0.229E-04    2.13      63.8  T
     SCC iter.                  ...        0 min,  0.018 sec
     gradient                   ...        0 min,  0.006 sec
 * total energy  :   -74.3125318 Eh     change       -0.2916325E-04 Eh
   gradient norm :     0.0022648 Eh/α   predicted    -0.2246363E-04 ( -22.97%)
   displ. norm   :     0.1479538 α      lambda       -0.2756453E-04
   maximum displ.:     0.0872477 α      in ANC's #4, #5, #2, ...

........................................................................
.............................. CYCLE   35 ..............................
........................................................................

 iter      E             dE          RMSdq      gap      omega  full diag
   1    -75.3199256 -0.753199E+02  0.514E-02    2.13       0.0  T
   2    -75.3199258 -0.216006E-06  0.304E-02    2.13       1.0  T
   3    -75.3199255  0.271471E-06  0.285E-03    2.13       5.1  T
   4    -75.3199259 -0.372348E-06  0.871E-04    2.13      16.8  T
   5    -75.3199259 -0.653165E-08  0.485E-04    2.13      30.1  T
     SCC iter.                  ...        0 min,  0.015 sec
     gradient                   ...        0 min,  0.006 sec
 * total energy  :   -74.3125530 Eh     change       -0.2119174E-04 Eh
   gradient norm :     0.0020171 Eh/α   predicted    -0.1408419E-04 ( -33.54%)
   displ. norm   :     0.1690760 α      lambda       -0.3569916E-04
   maximum displ.:     0.0990158 α      in ANC's #4, #2, #5, ...

........................................................................
.............................. CYCLE   36 ..............................
........................................................................

 iter      E             dE          RMSdq      gap      omega  full diag
   1    -75.3205988 -0.753206E+02  0.590E-02    2.12       0.0  T
   2    -75.3205991 -0.264486E-06  0.348E-02    2.12       1.0  T
   3    -75.3205985  0.624017E-06  0.402E-03    2.12       3.6  T
   4    -75.3205992 -0.767907E-06  0.909E-04    2.12      16.1  T
   5    -75.3205992 -0.813148E-08  0.538E-04    2.12      27.1  T
     SCC iter.                  ...        0 min,  0.015 sec
     gradient                   ...        0 min,  0.006 sec
 * total energy  :   -74.3125787 Eh     change       -0.2568309E-04 Eh
   gradient norm :     0.0017409 Eh/α   predicted    -0.1836193E-04 ( -28.51%)
   displ. norm   :     0.2898229 α      lambda       -0.2536972E-04
   maximum displ.:     0.1747281 α      in ANC's #4, #2, #5, ...

........................................................................
.............................. CYCLE   37 ..............................
........................................................................

 iter      E             dE          RMSdq      gap      omega  full diag
   1    -75.3197380 -0.753197E+02  0.976E-02    2.11       0.0  T
   2    -75.3197387 -0.722519E-06  0.576E-02    2.11       1.0  T
   3    -75.3197383  0.451779E-06  0.428E-03    2.11       3.4  T
   4    -75.3197391 -0.780984E-06  0.156E-03    2.11       9.3  T
   5    -75.3197391 -0.174561E-07  0.869E-04    2.11      16.8  T
   6    -75.3197391 -0.145161E-07  0.310E-04    2.11      47.0  T
     SCC iter.                  ...        0 min,  0.018 sec
     gradient                   ...        0 min,  0.007 sec
 * total energy  :   -74.3125997 Eh     change       -0.2102884E-04 Eh
   gradient norm :     0.0029971 Eh/α   predicted    -0.1316369E-04 ( -37.40%)
   displ. norm   :     0.0641847 α      lambda       -0.2213019E-04
   maximum displ.:     0.0295396 α      in ANC's #11, #14, #5, ...

........................................................................
.............................. CYCLE   38 ..............................
........................................................................

 iter      E             dE          RMSdq      gap      omega  full diag
   1    -75.3217160 -0.753217E+02  0.165E-02    2.11       0.0  T
   2    -75.3217162 -0.125956E-06  0.984E-03    2.11       1.5  T
   3    -75.3217161  0.754790E-07  0.152E-03    2.11       9.6  T
   4    -75.3217162 -0.994120E-07  0.433E-04    2.11      33.7  T
   5    -75.3217162 -0.426789E-08  0.231E-04    2.11      63.3  T
     SCC iter.                  ...        0 min,  0.015 sec
     gradient                   ...        0 min,  0.006 sec
 * total energy  :   -74.3126088 Eh     change       -0.9047430E-05 Eh
   gradient norm :     0.0021179 Eh/α   predicted    -0.1111133E-04 (  22.81%)
   displ. norm   :     0.0846989 α      lambda       -0.1377900E-04
   maximum displ.:     0.0487292 α      in ANC's #4, #5, #6, ...

........................................................................
.............................. CYCLE   39 ..............................
........................................................................

 iter      E             dE          RMSdq      gap      omega  full diag
   1    -75.3210403 -0.753210E+02  0.266E-02    2.11       0.0  T
   2    -75.3210404 -0.106261E-06  0.157E-02    2.12       1.0  T
   3    -75.3210401  0.310235E-06  0.264E-03    2.11       5.5  T
   4    -75.3210404 -0.364566E-06  0.614E-04    2.12      23.8  T
   5    -75.3210404 -0.621966E-08  0.345E-04    2.12      42.3  T
     SCC iter.                  ...        0 min,  0.015 sec
     gradient                   ...        0 min,  0.006 sec
 * total energy  :   -74.3126194 Eh     change       -0.1062007E-04 Eh
   gradient norm :     0.0012325 Eh/α   predicted    -0.6941642E-05 ( -34.64%)
   displ. norm   :     0.1832061 α      lambda       -0.1283609E-04
   maximum displ.:     0.1054692 α      in ANC's #4, #3, #2, ...

........................................................................
.............................. CYCLE   40 ..............................
........................................................................

 iter      E             dE          RMSdq      gap      omega  full diag
   1    -75.3199081 -0.753199E+02  0.582E-02    2.12       0.0  T
   2    -75.3199086 -0.481767E-06  0.344E-02    2.12       1.0  T
   3    -75.3199065  0.209818E-05  0.667E-03    2.12       2.2  T
   4    -75.3199089 -0.240729E-05  0.131E-03    2.12      11.2  T
   5    -75.3199090 -0.266180E-07  0.743E-04    2.12      19.6  T
   6    -75.3199090 -0.579202E-08  0.279E-04    2.12      52.3  T
     SCC iter.                  ...        0 min,  0.017 sec
     gradient                   ...        0 min,  0.006 sec
 * total energy  :   -74.3126273 Eh     change       -0.7877877E-05 Eh
   gradient norm :     0.0017753 Eh/α   predicted    -0.6516875E-05 ( -17.28%)
   displ. norm   :     0.0337251 α      lambda       -0.5017534E-05
   maximum displ.:     0.0201594 α      in ANC's #5, #4, #2, ...

........................................................................
.............................. CYCLE   41 ..............................
........................................................................

 iter      E             dE          RMSdq      gap      omega  full diag
   1    -75.3208687 -0.753209E+02  0.117E-02    2.12       0.0  T
   2    -75.3208687 -0.215814E-07  0.688E-03    2.12       2.1  T
   3    -75.3208686  0.497032E-07  0.106E-03    2.12      13.7  T
   4    -75.3208687 -0.575817E-07  0.267E-04    2.12      54.6  T
   5    -75.3208687 -0.188946E-08  0.131E-04    2.12     111.1  T
     SCC iter.                  ...        0 min,  0.015 sec
     gradient                   ...        0 min,  0.005 sec
 * total energy  :   -74.3126327 Eh     change       -0.5411020E-05 Eh
   gradient norm :     0.0011441 Eh/α   predicted    -0.2513511E-05 ( -53.55%)
   displ. norm   :     0.0820658 α      lambda       -0.6761033E-05
   maximum displ.:     0.0380376 α      in ANC's #4, #3, #1, ...

........................................................................
.............................. CYCLE   42 ..............................
........................................................................

 iter      E             dE          RMSdq      gap      omega  full diag
   1    -75.3211591 -0.753212E+02  0.266E-02    2.12       0.0  T
   2    -75.3211593 -0.123706E-06  0.157E-02    2.12       1.0  T
   3    -75.3211591  0.184567E-06  0.206E-03    2.12       7.1  T
   4    -75.3211593 -0.224268E-06  0.653E-04    2.12      22.3  T
   5    -75.3211593 -0.940420E-08  0.344E-04    2.12      42.3  T
     SCC iter.                  ...        0 min,  0.015 sec
     gradient                   ...        0 min,  0.005 sec
 * total energy  :   -74.3126393 Eh     change       -0.6627802E-05 Eh
   gradient norm :     0.0005074 Eh/α   predicted    -0.3392222E-05 ( -48.82%)
   displ. norm   :     0.1050541 α      lambda       -0.3397642E-05
   maximum displ.:     0.0526386 α      in ANC's #4, #3, #1, ...
 * RMSD in coord.:     0.4062253 α      energy gain  -0.6715707E-03 Eh

generating ANC from exact Hessian ...
Using Lindh-Hessian (1995)
 Shifting diagonal of input Hessian by   9.919314969782765E-003
 Lowest  eigenvalues of input Hessian
    0.000000    0.000000    0.000000    0.000000    0.000000    0.000000
    0.010000    0.010309    0.010544    0.010738    0.011366    0.011435
    0.012054    0.012341    0.012556    0.012594    0.013418    0.014944
 Highest eigenvalues
    1.938988    2.011458    2.017681    2.085016    2.120628    2.209892
 

........................................................................
.............................. CYCLE   43 ..............................
........................................................................

 iter      E             dE          RMSdq      gap      omega  full diag
   1    -75.3213772 -0.753214E+02  0.327E-02    2.12       0.0  T
   2    -75.3213773 -0.103128E-06  0.193E-02    2.12       1.0  T
   3    -75.3213771  0.255142E-06  0.241E-03    2.12       6.0  T
   4    -75.3213774 -0.315876E-06  0.675E-04    2.12      21.6  T
   5    -75.3213774 -0.470440E-08  0.385E-04    2.12      37.8  T
     SCC iter.                  ...        0 min,  0.015 sec
     gradient                   ...        0 min,  0.005 sec
 * total energy  :   -74.3126426 Eh     change       -0.3261323E-05 Eh
   gradient norm :     0.0006321 Eh/α   predicted     0.0000000E+00 (-100.00%)
   displ. norm   :     0.0105558 α      lambda       -0.3687823E-06
   maximum displ.:     0.0059234 α      in ANC's #1, #6, #16, ...

   *** GEOMETRY OPTIMIZATION CONVERGED AFTER 43 ITERATIONS ***

------------------------------------------------------------------------
 total energy gain   :        -0.0306457 Eh      -19.2304 kcal/mol
 total RMSD          :         0.8876261 a0        0.4697 Å
 total power (kW/mol):        -1.8711664 (step)  -65.7851 (real)
------------------------------------------------------------------------

 ANCopt (total)                0 d,  0 h,  0 min,  1.223 sec
 optimizer setup                ...        0 min,  0.000 sec (  0.009%)
 model hessian                  ...        0 min,  0.066 sec (  5.370%)
 ANC generation                 ...        0 min,  0.005 sec (  0.416%)
 coordinate transformation      ...        0 min,  0.001 sec (  0.082%)
 single point calculation       ...        0 min,  1.116 sec ( 91.248%)
 optimization log               ...        0 min,  0.018 sec (  1.462%)
 hessian update                 ...        0 min,  0.011 sec (  0.910%)
 rational function              ...        0 min,  0.004 sec (  0.344%)

================
 final structure:
================
47
 xtb: 6.7.1 (edcfbbe)
O           -1.27607422183072       -2.27552858099181       -1.88027637743220
C           -1.18328952644597       -1.83506675159216       -0.75827981008042
C           -0.13525670387940       -2.36342671324527        0.25111460785518
O            0.31247609015157       -3.61091154606292       -0.20705362135754
C            1.41485010762911       -4.13667874580598        0.50302016660890
O           -0.65140906781593       -2.44647002629633        1.56270524130334
C           -1.74799339655156       -3.32931362949540        1.69370508453072
C            0.94413106967210       -1.29360232151609        0.20966890391606
C            1.68249593072738       -1.14280182856173       -0.95544017068091
C            2.65613001733515       -0.16547588072476       -1.05617766216911
C            2.89656745574654        0.68557975698318        0.01775098046766
O            3.81967294325989        1.68629096980877        0.03187702547314
C            4.58793860766550        1.91366478433271       -1.12838889342912
C            5.50915362203772        3.09734852345200       -0.84548815865857
O            6.26486736258259        3.33856337188321       -2.00951910663987
C            2.15255731515323        0.53094504666308        1.18905551624163
C            1.18541169830602       -0.44608538544663        1.28370319934431
C           -1.96019030253533       -0.70774019115578       -0.24125839979505
C           -2.92756026428174       -0.14707854444373       -0.98338765926802
C           -3.78062118337650        0.96292709093712       -0.61508918390003
C           -3.59610036717022        1.70110495776875        0.55803301931618
C           -4.43642724095045        2.75221877005040        0.86608724812030
C           -5.47817884954065        3.08898089833882        0.01534739994517
C           -5.67244932228635        2.36927150343646       -1.15266852472564
C           -4.83104279030229        1.32008044298494       -1.46638834836783
H            1.55665220256563       -5.14619477024842        0.12329152735290
H            1.21298349250995       -4.16796737155194        1.57794048941073
H            2.31870332294097       -3.54400687563989        0.32870031044244
H           -1.92919281751196       -3.42376328888947        2.76258598689252
H           -2.63994645679901       -2.92754052403617        1.20022984238758
H           -1.51861965216399       -4.30876439572203        1.26651308025442
H            1.48790346626769       -1.80068568215080       -1.78908034358492
H            3.21384885258977       -0.07487014718355       -1.97411655467058
H            3.94747483940137        2.15525999897024       -1.98605453599500
H            5.19740930299222        1.03617349889278       -1.37888187325693
H            4.89812847713338        3.97050696949994       -0.57929349833846
H            6.15743641899323        2.85284118122055        0.00684147166459
H            6.85233480285372        4.08495019574746       -1.85248768000440
H            2.35498944381579        1.19486637708152        2.01450635671647
H            0.61957325049291       -0.56936755123099        2.19305495562922
H           -1.71657686954303       -0.37674959070128        0.75577933439319
H           -3.09958976960566       -0.57288130813548       -1.96565542448177
H           -2.78440113715059        1.45442737622099        1.22451270538944
H           -4.28003404976021        3.31551542331812        1.77447023694116
H           -6.13381950446478        3.91100038569456        0.26124681994310
H           -6.48099843029938        2.62981608786640       -1.81967382761404
H           -4.98391616855553        0.76063703967382       -2.37807985608154
 
 Bond Distances (Angstroems)
 ---------------------------
O1-C2=1.2089         C2-O1=1.2089         C2-C3=1.5480         C2-C18=1.4635        C3-C2=1.5480         C3-O4=1.4024         
C3-O6=1.4119         C3-C8=1.5203         O4-C3=1.4024         O4-C5=1.4128         C5-O4=1.4128         C5-H26=1.0879        
C5-H27=1.0942        C5-H28=1.0948        O6-C3=1.4119         O6-C7=1.4139         C7-O6=1.4139         C7-H29=1.0882        
C7-H30=1.0957        C7-H31=1.0929        C8-C3=1.5203         C8-C9=1.3876         C8-C17=1.3893        C9-C8=1.3876         
C9-C10=1.3832        C9-H32=1.0796        C10-C9=1.3832        C10-C11=1.3912       C10-H33=1.0779       C11-C10=1.3912       
C11-O12=1.3615       C11-C16=1.3962       O12-C11=1.3615       O12-C13=1.4100       C13-O12=1.4100       C13-C14=1.5264       
C13-H34=1.0973       C13-H35=1.0974       C14-C13=1.5264       C14-O15=1.4086       C14-H36=1.0985       C14-H37=1.0984       
O15-C14=1.4086       O15-H38=0.9627       C16-C11=1.3962       C16-C17=1.3780       C16-H39=1.0785       C17-C8=1.3893        
C17-C16=1.3780       C17-H40=1.0781       C18-C2=1.4635        C18-C19=1.3420       C18-H41=1.0784       C19-C18=1.3420       
C19-C20=1.4476       C19-H42=1.0843       C20-C19=1.4476       C20-C21=1.3983       C20-C25=1.3984       C21-C20=1.3983       
C21-C22=1.3805       C21-H43=1.0788       C22-C21=1.3805       C22-C23=1.3865       C22-H44=1.0802       C23-C22=1.3865       
C23-C24=1.3856       C23-H45=1.0798       C24-C23=1.3856       C24-C25=1.3810       C24-H46=1.0801       C25-C20=1.3984       
C25-C24=1.3810       C25-H47=1.0805       H26-C5=1.0879        H27-C5=1.0942        H28-C5=1.0948        H29-C7=1.0882        
H30-C7=1.0957        H31-C7=1.0929        H32-C9=1.0796        H33-C10=1.0779       H34-C13=1.0973       H35-C13=1.0974       
H36-C14=1.0985       H37-C14=1.0984       H38-O15=0.9627       H39-C16=1.0785       H40-C17=1.0781       H41-C18=1.0784       
H42-C19=1.0843       H43-C21=1.0788       H44-C22=1.0802       H45-C23=1.0798       H46-C24=1.0801       H47-C25=1.0805       
 C  H  Rav=1.0867 sigma=0.0079  Rmin=1.0779  Rmax=1.0985    21
 C  C  Rav=1.4169 sigma=0.0573  Rmin=1.3420  Rmax=1.5480    18
 O  H  Rav=0.9627 sigma=0.0000  Rmin=0.9627  Rmax=0.9627     1
 O  C  Rav=1.3788 sigma=0.0662  Rmin=1.2089  Rmax=1.4139     8
 
 selected bond angles (degree)
 --------------------
C3-C2-O1=122.19                C18-C2-O1=124.60               C18-C2-C3=113.08               O4-C3-C2=107.86                
O6-C3-C2=112.23                O6-C3-O4=111.59                C8-C3-C2=102.87                C8-C3-O4=112.98                
C8-C3-O6=109.04                C5-O4-C3=114.58                H26-C5-O4=105.76               H27-C5-O4=111.13               
H27-C5-H26=109.90              H28-C5-O4=111.27               H28-C5-H26=109.83              H28-C5-H27=108.92              
C7-O6-C3=113.97                H29-C7-O6=105.92               H30-C7-O6=111.14               H30-C7-H29=109.79              
H31-C7-O6=111.14               H31-C7-H29=109.94              H31-C7-H30=108.87              C9-C8-C3=118.50                
C17-C8-C3=122.11               C17-C8-C9=119.37               C10-C9-C8=120.83               H32-C9-C8=119.09               
H32-C9-C10=120.08              C11-C10-C9=119.85              H33-C10-C9=119.05              H33-C10-C11=121.10             
 
 selected dihedral angles (degree)
 ---------------------------------
O4-C3-C2-O1=342.05            O4-C3-C2-C18=166.08           O6-C3-C2-O1=218.73            O6-C3-C2-C18= 42.77           
C8-C3-C2-O1=101.67            C8-C3-C2-C18=285.71           C5-O4-C3-C2=171.23            C5-O4-C3-O6=294.94            
C5-O4-C3-C8= 58.23            H26-C5-O4-C3=172.74           H27-C5-O4-C3= 53.51           H28-C5-O4-C3=291.95           
C7-O6-C3-C2= 61.37            C7-O6-C3-O4=300.17            C7-O6-C3-C8=174.67            H29-C7-O6-C3=170.61           
H30-C7-O6-C3=289.82           H31-C7-O6-C3= 51.23           C9-C8-C3-C2=292.70            C9-C8-C3-O4= 48.72            
C9-C8-C3-O6=173.40            C17-C8-C3-C2=110.94           C17-C8-C3-O4=226.95           C17-C8-C3-O6=351.64           
C10-C9-C8-C3=178.57           C10-C9-C8-C17=  0.29          H32-C9-C8-C3=358.59           H32-C9-C8-C17=180.30          
C11-C10-C9-C8=359.58          C11-C10-C9-H32=179.56         H33-C10-C9-C8=179.89          H33-C10-C9-H32=359.88         
           -------------------------------------------------
          |                Final Singlepoint                |
           -------------------------------------------------

          ...................................................
          :                      SETUP                      :
          :.................................................:
          :  # basis functions                 122          :
          :  # atomic orbitals                 122          :
          :  # shells                           72          :
          :  # electrons                       132          :
          :  max. iterations                   250          :
          :  Hamiltonian                  GFN2-xTB          :
          :  restarted?                      false          :
          :  GBSA solvation                  false          :
          :  PC potential                    false          :
          :  electronic temp.          300.0000000     K    :
          :  accuracy                    1.0000000          :
          :  -> integral cutoff          0.2500000E+02      :
          :  -> integral neglect         0.1000000E-07      :
          :  -> SCF convergence          0.1000000E-05 Eh   :
          :  -> wf. convergence          0.1000000E-03 e    :
          :  Broyden damping             0.4000000          :
          :  net charge                          0          :
          :  unpaired electrons                  0          :
          ...................................................

 iter      E             dE          RMSdq      gap      omega  full diag
   1    -75.3213774 -0.753214E+02  0.107E-04    2.12       0.0  T
   2    -75.3213774 -0.126064E-09  0.709E-05    2.12     205.8  T
   3    -75.3213774 -0.100869E-09  0.435E-05    2.12     335.5  T

   *** convergence criteria satisfied after 3 iterations ***

         #    Occupation            Energy/Eh            Energy/eV
      -------------------------------------------------------------
         1        2.0000           -0.7211362             -19.6231
       ...           ...                  ...                  ...
        60        2.0000           -0.4201632             -11.4332
        61        2.0000           -0.4166096             -11.3365
        62        2.0000           -0.4103568             -11.1664
        63        2.0000           -0.4055299             -11.0350
        64        2.0000           -0.3998068             -10.8793
        65        2.0000           -0.3904003             -10.6233
        66        2.0000           -0.3736047             -10.1663 (HOMO)
        67                         -0.2958057              -8.0493 (LUMO)
        68                         -0.2335505              -6.3552
        69                         -0.2295667              -6.2468
        70                         -0.2276751              -6.1954
        71                         -0.2144391              -5.8352
       ...                                ...                  ...
       122                          0.7016119              19.0918
      -------------------------------------------------------------
                  HL-Gap            0.0777990 Eh            2.1170 eV
             Fermi-level           -0.3347052 Eh           -9.1078 eV

 SCC (total)                   0 d,  0 h,  0 min,  0.018 sec
 SCC setup                      ...        0 min,  0.000 sec (  0.838%)
 Dispersion                     ...        0 min,  0.000 sec (  1.302%)
 classical contributions        ...        0 min,  0.000 sec (  0.299%)
 integral evaluation            ...        0 min,  0.002 sec (  9.920%)
 iterations                     ...        0 min,  0.010 sec ( 56.563%)
 molecular gradient             ...        0 min,  0.005 sec ( 29.834%)
 printout                       ...        0 min,  0.000 sec (  1.109%)

         :::::::::::::::::::::::::::::::::::::::::::::::::::::
         ::                     SUMMARY                     ::
         :::::::::::::::::::::::::::::::::::::::::::::::::::::
         :: total energy             -74.312642568003 Eh    ::
         :: gradient norm              0.000633130942 Eh/a0 ::
         :: HOMO-LUMO gap              2.117017729689 eV    ::
         ::.................................................::
         :: SCC energy               -75.321056809744 Eh    ::
         :: -> isotropic ES            0.102562817315 Eh    ::
         :: -> anisotropic ES          0.003105191048 Eh    ::
         :: -> anisotropic XC          0.020623871788 Eh    ::
         :: -> dispersion             -0.047705603255 Eh    ::
         :: repulsion energy           1.008414241741 Eh    ::
         :: add. restraining           0.000000000000 Eh    ::
         :: total charge               0.000000000000 e     ::
         :::::::::::::::::::::::::::::::::::::::::::::::::::::

           -------------------------------------------------
          |                Property Printout                |
           -------------------------------------------------

    * Orbital Energies and Occupations

         #    Occupation            Energy/Eh            Energy/eV
      -------------------------------------------------------------
         1        2.0000           -0.7211362             -19.6231
       ...           ...                  ...                  ...
        54        2.0000           -0.4483052             -12.1990
        55        2.0000           -0.4411346             -12.0039
        56        2.0000           -0.4375288             -11.9058
        57        2.0000           -0.4292722             -11.6811
        58        2.0000           -0.4272436             -11.6259
        59        2.0000           -0.4231194             -11.5137
        60        2.0000           -0.4201632             -11.4332
        61        2.0000           -0.4166096             -11.3365
        62        2.0000           -0.4103568             -11.1664
        63        2.0000           -0.4055299             -11.0350
        64        2.0000           -0.3998068             -10.8793
        65        2.0000           -0.3904003             -10.6233
        66        2.0000           -0.3736047             -10.1663 (HOMO)
        67                         -0.2958057              -8.0493 (LUMO)
        68                         -0.2335505              -6.3552
        69                         -0.2295667              -6.2468
        70                         -0.2276751              -6.1954
        71                         -0.2144391              -5.8352
        72                         -0.1631822              -4.4404
        73                         -0.0960297              -2.6131
        74                         -0.0885412              -2.4093
        75                         -0.0089784              -0.2443
        76                          0.0111313               0.3029
        77                          0.0328582               0.8941
       ...                                ...                  ...
       122                          0.7016119              19.0918
      -------------------------------------------------------------
                  HL-Gap            0.0777990 Eh            2.1170 eV
             Fermi-level           -0.3347052 Eh           -9.1078 eV

     #   Z          covCN         q      C6AA      α(0)
     1   8 O        0.857    -0.347    20.654     6.093
     2   6 C        2.835     0.212    23.529     7.949
     3   6 C        3.707     0.250    16.871     5.871
     4   8 O        1.701    -0.317    19.285     5.929
     5   6 C        3.647     0.044    20.149     6.450
     6   8 O        1.700    -0.335    19.618     5.980
     7   6 C        3.647     0.045    20.144     6.449
     8   6 C        2.986    -0.022    28.542     8.764
     9   6 C        2.924    -0.033    28.821     8.804
    10   6 C        2.917    -0.066    29.647     8.929
    11   6 C        2.865     0.146    24.830     8.168
    12   8 O        1.706    -0.276    18.579     5.820
    13   6 C        3.694     0.079    19.436     6.308
    14   6 C        3.673     0.081    19.462     6.322
    15   8 O        1.656    -0.440    21.634     6.279
    16   6 C        2.921    -0.054    29.354     8.885
    17   6 C        2.920    -0.032    28.787     8.799
    18   6 C        2.893    -0.066    29.637     8.926
    19   6 C        2.907    -0.010    28.267     8.718
    20   6 C        2.970     0.017    27.634     8.623
    21   6 C        2.923    -0.028    28.700     8.785
    22   6 C        2.917    -0.027    28.680     8.782
    23   6 C        2.920    -0.025    28.620     8.773
    24   6 C        2.916    -0.027    28.681     8.782
    25   6 C        2.928    -0.028    28.711     8.787
    26   1 H        0.925     0.060     2.197     2.318
    27   1 H        0.924     0.040     2.451     2.448
    28   1 H        0.924     0.032     2.565     2.505
    29   1 H        0.925     0.057     2.232     2.336
    30   1 H        0.924     0.027     2.624     2.533
    31   1 H        0.924     0.048     2.347     2.396
    32   1 H        0.926     0.057     2.232     2.336
    33   1 H        0.926     0.043     2.407     2.426
    34   1 H        0.924     0.048     2.346     2.395
    35   1 H        0.924     0.047     2.353     2.399
    36   1 H        0.923     0.036     2.504     2.474
    37   1 H        0.923     0.036     2.504     2.475
    38   1 H        0.805     0.297     0.730     1.342
    39   1 H        0.926     0.053     2.279     2.361
    40   1 H        0.926     0.057     2.229     2.335
    41   1 H        0.926     0.056     2.244     2.342
    42   1 H        0.925     0.070     2.086     2.258
    43   1 H        0.926     0.041     2.434     2.440
    44   1 H        0.926     0.037     2.489     2.467
    45   1 H        0.926     0.037     2.485     2.465
    46   1 H        0.926     0.037     2.483     2.464
    47   1 H        0.926     0.042     2.428     2.437

 Mol. C6AA /au·bohr⁶  :      24539.221414
 Mol. C8AA /au·bohr⁸  :     577331.021039
 Mol. α(0) /au        :        243.925525


Wiberg/Mayer (AO) data.
largest (>0.10) Wiberg bond orders for each atom

 ---------------------------------------------------------------------------
     #   Z sym  total        # sym  WBO       # sym  WBO       # sym  WBO
 ---------------------------------------------------------------------------
     1   8 O    2.072 --     2 C    1.811
     2   6 C    3.927 --     1 O    1.811    18 C    1.073     3 C    0.901
     3   6 C    3.925 --     4 O    0.976     6 O    0.960     8 C    0.943
                             2 C    0.901
     4   8 O    2.093 --     5 C    0.982     3 C    0.976
     5   6 C    3.947 --     4 O    0.982    26 H    0.980    27 H    0.980
                            28 H    0.978
     6   8 O    2.078 --     7 C    0.982     3 C    0.960
     7   6 C    3.946 --     6 O    0.982    29 H    0.981    31 H    0.979
                            30 H    0.977
     8   6 C    3.982 --     9 C    1.409    17 C    1.390     3 C    0.943
     9   6 C    3.989 --    10 C    1.446     8 C    1.409    32 H    0.967
                            16 C    0.107
    10   6 C    3.987 --     9 C    1.446    11 C    1.371    33 H    0.965
                            17 C    0.100
    11   6 C    3.928 --    10 C    1.371    16 C    1.347    12 O    1.061
    12   8 O    2.227 --    11 C    1.061    13 C    0.972
    13   6 C    3.946 --    14 C    0.996    12 O    0.972    35 H    0.966
                            34 H    0.966
    14   6 C    3.957 --    15 O    1.001    13 C    0.996    37 H    0.971
                            36 H    0.970
    15   8 O    1.951 --    14 C    1.001    38 H    0.899
    16   6 C    3.985 --    17 C    1.472    11 C    1.347    39 H    0.967
                             9 C    0.107
    17   6 C    3.989 --    16 C    1.472     8 C    1.390    40 H    0.965
                            10 C    0.100
    18   6 C    3.988 --    19 C    1.749     2 C    1.073    41 H    0.960
    19   6 C    3.979 --    18 C    1.749    20 C    1.121    42 H    0.957
    20   6 C    3.990 --    25 C    1.362    21 C    1.359    19 C    1.121
    21   6 C    3.991 --    22 C    1.467    20 C    1.359    43 H    0.966
                            24 C    0.104
    22   6 C    3.992 --    21 C    1.467    23 C    1.424    44 H    0.970
                            25 C    0.103
    23   6 C    3.980 --    24 C    1.430    22 C    1.424    45 H    0.971
    24   6 C    3.992 --    25 C    1.461    23 C    1.430    46 H    0.970
                            21 C    0.104
    25   6 C    3.989 --    24 C    1.461    20 C    1.362    47 H    0.968
                            22 C    0.103
    26   1 H    0.996 --     5 C    0.980
    27   1 H    0.998 --     5 C    0.980
    28   1 H    0.999 --     5 C    0.978
    29   1 H    0.996 --     7 C    0.981
    30   1 H    0.999 --     7 C    0.977
    31   1 H    0.998 --     7 C    0.979
    32   1 H    0.997 --     9 C    0.967
    33   1 H    0.998 --    10 C    0.965
    34   1 H    0.997 --    13 C    0.966
    35   1 H    0.998 --    13 C    0.966
    36   1 H    0.999 --    14 C    0.970
    37   1 H    0.999 --    14 C    0.971
    38   1 H    0.911 --    15 O    0.899
    39   1 H    0.996 --    16 C    0.967
    40   1 H    0.996 --    17 C    0.965
    41   1 H    0.997 --    18 C    0.960
    42   1 H    0.995 --    19 C    0.957
    43   1 H    0.998 --    21 C    0.966
    44   1 H    0.998 --    22 C    0.970
    45   1 H    0.998 --    23 C    0.971
    46   1 H    0.998 --    24 C    0.970
    47   1 H    0.998 --    25 C    0.968
 ---------------------------------------------------------------------------

Topologies differ in total number of bonds
Writing topology from bond orders to xtbtopo.mol

molecular dipole:
                 x           y           z       tot (Debye)
 q only:       -0.065       1.314       0.882
   full:        0.057       1.436       1.066       4.548
molecular quadrupole (traceless):
                xx          xy          yy          xz          yz          zz
 q only:       15.805       0.712      -1.541      -0.552      -8.477     -14.264
  q+dip:       16.285       0.850      -0.836       2.625      -6.267     -15.449
   full:       17.692       2.873      -0.177       0.782      -9.240     -17.514

           -------------------------------------------------
          |                Geometry Summary                 |
           -------------------------------------------------

      molecular mass/u    :      342.3864391
   center of mass at/Å    :       -0.0379205      -0.0531016      -0.2093521
  moments of inertia/u·Å² :        0.2176990E+04   0.4340414E+04   0.5822251E+04
rotational constants/cm⁻¹ :        0.7743551E-02   0.3883876E-02   0.2895381E-02

 * 44 selected distances

     #   Z          #   Z                                           value/Å
     1   8 O        2   6 C                                       1.2089219
     3   6 C        4   8 O                                       1.4023557
     4   8 O        5   6 C                                       1.4127508
     3   6 C        6   8 O                                       1.4119419
     6   8 O        7   6 C                                       1.4138852
     8   6 C        9   6 C                                       1.3875889
     9   6 C       10   6 C                                       1.3832128
    10   6 C       11   6 C                                       1.3911969
    11   6 C       12   8 O                                       1.3615236
    12   8 O       13   6 C                                       1.4100171
    13   6 C       14   6 C                                       1.5263609 (max)
    14   6 C       15   8 O                                       1.4086363
    11   6 C       16   6 C                                       1.3962155
     8   6 C       17   6 C                                       1.3892629
    16   6 C       17   6 C                                       1.3780122
    18   6 C       19   6 C                                       1.3419770
    20   6 C       21   6 C                                       1.3982741
    21   6 C       22   6 C                                       1.3805388
    22   6 C       23   6 C                                       1.3865114
    23   6 C       24   6 C                                       1.3856349
    20   6 C       25   6 C                                       1.3984472
    24   6 C       25   6 C                                       1.3810095
     5   6 C       26   1 H                                       1.0878532
     5   6 C       27   1 H                                       1.0941586
     5   6 C       28   1 H                                       1.0948051
     7   6 C       29   1 H                                       1.0882374
     7   6 C       30   1 H                                       1.0956824
     7   6 C       31   1 H                                       1.0928995
     9   6 C       32   1 H                                       1.0796451
    10   6 C       33   1 H                                       1.0779015
    13   6 C       34   1 H                                       1.0973389
    13   6 C       35   1 H                                       1.0973570
    14   6 C       36   1 H                                       1.0984613
    14   6 C       37   1 H                                       1.0984172
    15   8 O       38   1 H                                       0.9627410 (min)
    16   6 C       39   1 H                                       1.0784895
    17   6 C       40   1 H                                       1.0780967
    18   6 C       41   1 H                                       1.0784186
    19   6 C       42   1 H                                       1.0843211
    21   6 C       43   1 H                                       1.0788424
    22   6 C       44   1 H                                       1.0802416
    23   6 C       45   1 H                                       1.0798368
    24   6 C       46   1 H                                       1.0800608
    25   6 C       47   1 H                                       1.0805225

 * 4 distinct bonds (by element types)

   Z      Z             #   av. dist./Å        max./Å        min./Å
   1 H    6 C          21     1.0867422     1.0984613     1.0779015
   6 C    6 C          14     1.3945888     1.5263609     1.3419770
   1 H    8 O           1     0.9627410     0.9627410     0.9627410
   6 C    8 O           8     1.3787541     1.4138852     1.2089219


optimized geometry written to: xtbopt.xyz


           -------------------------------------------------
          | TOTAL ENERGY              -74.312642568003 Eh   |
          | GRADIENT NORM               0.000633130942 Eh/α |
          | HOMO-LUMO GAP               2.117017729689 eV   |
           -------------------------------------------------
########################################################################
[WARNING] Runtime exception occurred
-2- restart_readRestart: Dimension missmatch in restart file.
-1- restart_readRestart: Number of electron missmatch in restart file.
########################################################################

------------------------------------------------------------------------
 * finished run on 2025/12/01 at 14:23:08.657     
------------------------------------------------------------------------
 total:
 * wall-time:     0 d,  0 h,  0 min,  1.311 sec
 *  cpu-time:     0 d,  0 h,  0 min, 30.053 sec
 * ratio c/w:    22.932 speedup
 SCF:
 * wall-time:     0 d,  0 h,  0 min,  0.056 sec
 *  cpu-time:     0 d,  0 h,  0 min,  1.278 sec
 * ratio c/w:    22.785 speedup
 ANC optimizer:
 * wall-time:     0 d,  0 h,  0 min,  1.242 sec
 *  cpu-time:     0 d,  0 h,  0 min, 28.535 sec
 * ratio c/w:    22.972 speedup

normal termination of xtb
