      -----------------------------------------------------------      
     |                   =====================                   |     
     |                           x T B                           |     
     |                   =====================                   |     
     |                         S. Grimme                         |     
     |          Mulliken Center for Theoretical Chemistry        |     
     |                    University of Bonn                     |     
      -----------------------------------------------------------      

   * xtb version 6.7.1 (edcfbbe) compiled by 'albert@albert-system' on 2024-07-22

   xtb is free software: you can redistribute it and/or modify it under
   the terms of the GNU Lesser General Public License as published by
   the Free Software Foundation, either version 3 of the License, or
   (at your option) any later version.
   
   xtb is distributed in the hope that it will be useful,
   but WITHOUT ANY WARRANTY; without even the implied warranty of
   MERCHANTABILITY or FITNESS FOR A PARTICULAR PURPOSE.  See the
   GNU Lesser General Public License for more details.
   
   Cite this work as:
   * C. Bannwarth, E. Caldeweyher, S. Ehlert, A. Hansen, P. Pracht,
     J. Seibert, S. Spicher, S. Grimme, WIREs Comput. Mol. Sci., 2020, 11,
     e01493. DOI: 10.1002/wcms.1493
   
   for GFN2-xTB:
   * C. Bannwarth, S. Ehlert and S. Grimme., J. Chem. Theory Comput., 2019,
     15, 1652-1671. DOI: 10.1021/acs.jctc.8b01176
   for GFN1-xTB:
   * S. Grimme, C. Bannwarth, P. Shushkov, J. Chem. Theory Comput., 2017,
     13, 1989-2009. DOI: 10.1021/acs.jctc.7b00118
   for GFN0-xTB:
   * P. Pracht, E. Caldeweyher, S. Ehlert, S. Grimme, ChemRxiv, 2019, preprint.
     DOI: 10.26434/chemrxiv.8326202.v1
   for GFN-FF:
   * S. Spicher and S. Grimme, Angew. Chem. Int. Ed., 2020, 59, 15665-15673.
     DOI: 10.1002/anie.202004239
   
   for ALPB and GBSA implicit solvation:
   * S. Ehlert, M. Stahn, S. Spicher, S. Grimme, J. Chem. Theory Comput.,
     2021, 17, 4250-4261. DOI: 10.1021/acs.jctc.1c00471
   
   for ddCOSMO and CPCM-X implicit solvation:
   * M. Stahn, S. Ehlert, S. Grimme, J. Phys. Chem. A,
     2023, XX, XXXX-XXXX. DOI: 10.1021/acs.jpca.3c04382
   
   for DFT-D4:
   * E. Caldeweyher, C. Bannwarth and S. Grimme, J. Chem. Phys., 2017,
     147, 034112. DOI: 10.1063/1.4993215
   * E. Caldeweyher, S. Ehlert, A. Hansen, H. Neugebauer, S. Spicher,
     C. Bannwarth and S. Grimme, J. Chem. Phys., 2019, 150, 154122.
     DOI: 10.1063/1.5090222
   * E. Caldeweyher, J.-M. Mewes, S. Ehlert and S. Grimme, Phys. Chem. Chem. Phys.
     2020, 22, 8499-8512. DOI: 10.1039/D0CP00502A
   
   for sTDA-xTB:
   * S. Grimme and C. Bannwarth, J. Chem. Phys., 2016, 145, 054103.
     DOI: 10.1063/1.4959605
   
   in the mass-spec context:
   * V. Asgeirsson, C. Bauer and S. Grimme, Chem. Sci., 2017, 8, 4879.
     DOI: 10.1039/c7sc00601b
   * J. Koopman and S. Grimme, ACS Omega 2019, 4, 12, 15120-15133.
     DOI: 10.1021/acsomega.9b02011
   
   for metadynamics refer to:
   * S. Grimme, J. Chem. Theory Comput., 2019, 155, 2847-2862
     DOI: 10.1021/acs.jctc.9b00143
   
   for SPH calculations refer to:
   * S. Spicher and S. Grimme, J. Chem. Theory Comput., 2021, 17, 1701-1714
     DOI: 10.1021/acs.jctc.0c01306
   
   for ONIOM refer to:
   * C. Plett, A. Katbashev, S. Ehlert, S. Grimme, M. Bursch,
     Phys. Chem. Chem. Phys., 2023, 25, 17860-17868. DOI: 10.1039/D3CP02178E
   
   for DIPRO refer to:
   * J. Kohn, N. Gildemeister, S. Grimme, D. Fazzi, A. Hansen,
     J. Chem. Phys., 2023, just accepted.
   
   for PTB refer to:
   * S. Grimme, M. Mueller, A. Hansen, J. Chem. Phys., 2023, 158, 124111.
     DOI: 10.1063/5.0137838
   
   with help from (in alphabetical order)
   P. Atkinson, C. Bannwarth, F. Bohle, G. Brandenburg, E. Caldeweyher
   M. Checinski, S. Dohm, S. Ehlert, S. Ehrlich, I. Gerasimov, C. Hölzer
   A. Katbashev, J. Kohn, J. Koopman, C. Lavigne, S. Lehtola, F. März, M. Müller,
   F. Musil, H. Neugebauer, J. Pisarek, C. Plett, P. Pracht, F. Pultar,
   J. Seibert, P. Shushkov, S. Spicher, M. Stahn, M. Steiner, T. Strunk,
   J. Stückrath, T. Rose, and J. Unsleber
   
 * started run on 2025/12/01 at 14:23:08.665     
   ID    Z sym.   atoms
    1    8 O      1, 4, 6, 12, 15
    2    6 C      2, 3, 5, 7-11, 13, 14, 16-25
    3    1 H      26-47

           -------------------------------------------------
          |                Calculation Setup                |
           -------------------------------------------------

          program call               : xtb pipeline_data/3_conformer_xyz/acrylates/rdkit/UUHZUEBKUREPBP-MDWZMJQESA-N_conf154.xyz --opt --gfn 2-xTB --iterations 250
          coordinate file            : pipeline_data/3_conformer_xyz/acrylates/rdkit/UUHZUEBKUREPBP-MDWZMJQESA-N_conf154.xyz
          omp threads                :                    24

########################################################################
[WARNING] Please study the warnings concerning your input carefully
-1- readin_getIntValue: could not parse '2-xTB'
########################################################################

           -------------------------------------------------
          |                 G F N 2 - x T B                 |
           -------------------------------------------------

        Reference                      10.1021/acs.jctc.8b01176
      * Hamiltonian:
        H0-scaling (s, p, d)           1.850000    2.230000    2.230000
        zeta-weighting                 0.500000
      * Dispersion:
        s8                             2.700000
        a1                             0.520000
        a2                             5.000000
        s9                             5.000000
      * Repulsion:
        kExp                           1.500000    1.000000
        rExp                           1.000000
      * Coulomb:
        alpha                          2.000000
        third order                    shell-resolved
        anisotropic                    true
        a3                             3.000000
        a5                             4.000000
        cn-shift                       1.200000
        cn-exp                         4.000000
        max-rad                        5.000000

q/qsh data taken from xtbrestart
CAMM data taken from xtbrestart

          ...................................................
          :                      SETUP                      :
          :.................................................:
          :  # basis functions                 122          :
          :  # atomic orbitals                 122          :
          :  # shells                           72          :
          :  # electrons                       132          :
          :  max. iterations                   250          :
          :  Hamiltonian                  GFN2-xTB          :
          :  restarted?                       true          :
          :  GBSA solvation                  false          :
          :  PC potential                    false          :
          :  electronic temp.          300.0000000     K    :
          :  accuracy                    1.0000000          :
          :  -> integral cutoff          0.2500000E+02      :
          :  -> integral neglect         0.1000000E-07      :
          :  -> SCF convergence          0.1000000E-05 Eh   :
          :  -> wf. convergence          0.1000000E-03 e    :
          :  Broyden damping             0.4000000          :
          :  net charge                          0          :
          :  unpaired electrons                  0          :
          ...................................................

 iter      E             dE          RMSdq      gap      omega  full diag
   1    -75.2838916 -0.752839E+02  0.541E+00    2.17       0.0  T
   2    -75.2911908 -0.729916E-02  0.321E+00    2.17       1.0  T
   3    -75.2891073  0.208350E-02  0.347E-01    2.23       1.0  T
   4    -75.2934529 -0.434559E-02  0.163E-01    2.23       1.0  T
   5    -75.2939008 -0.447975E-03  0.833E-02    2.22       1.0  T
   6    -75.2939346 -0.337367E-04  0.314E-02    2.23       1.0  T
   7    -75.2939615 -0.268900E-04  0.107E-02    2.22       1.4  T
   8    -75.2939626 -0.115172E-05  0.464E-03    2.22       3.1  T
   9    -75.2939629 -0.311067E-06  0.212E-03    2.22       6.9  T
  10    -75.2939630 -0.735258E-07  0.806E-04    2.22      18.1  T
  11    -75.2939630 -0.602562E-08  0.332E-04    2.22      44.0  T

   *** convergence criteria satisfied after 11 iterations ***

         #    Occupation            Energy/Eh            Energy/eV
      -------------------------------------------------------------
         1        2.0000           -0.7282646             -19.8171
       ...           ...                  ...                  ...
        60        2.0000           -0.4215505             -11.4710
        61        2.0000           -0.4191851             -11.4066
        62        2.0000           -0.4150106             -11.2930
        63        2.0000           -0.4075031             -11.0887
        64        2.0000           -0.4046077             -11.0099
        65        2.0000           -0.3930836             -10.6963
        66        2.0000           -0.3837668             -10.4428 (HOMO)
        67                         -0.3020534              -8.2193 (LUMO)
        68                         -0.2372197              -6.4551
        69                         -0.2339518              -6.3662
        70                         -0.2323142              -6.3216
        71                         -0.2224606              -6.0535
       ...                                ...                  ...
       122                          0.7291124              19.8402
      -------------------------------------------------------------
                  HL-Gap            0.0817134 Eh            2.2235 eV
             Fermi-level           -0.3429101 Eh           -9.3311 eV

 SCC (total)                   0 d,  0 h,  0 min,  0.057 sec
 SCC setup                      ...        0 min,  0.000 sec (  0.582%)
 Dispersion                     ...        0 min,  0.001 sec (  1.041%)
 classical contributions        ...        0 min,  0.000 sec (  0.116%)
 integral evaluation            ...        0 min,  0.002 sec (  4.231%)
 iterations                     ...        0 min,  0.046 sec ( 81.093%)
 molecular gradient             ...        0 min,  0.007 sec ( 12.435%)
 printout                       ...        0 min,  0.000 sec (  0.443%)

         :::::::::::::::::::::::::::::::::::::::::::::::::::::
         ::                     SUMMARY                     ::
         :::::::::::::::::::::::::::::::::::::::::::::::::::::
         :: total energy             -74.277526012933 Eh    ::
         :: gradient norm              0.175880001388 Eh/a0 ::
         :: HOMO-LUMO gap              2.223535682236 eV    ::
         ::.................................................::
         :: SCC energy               -75.293456041306 Eh    ::
         :: -> isotropic ES            0.103097654941 Eh    ::
         :: -> anisotropic ES          0.003928276243 Eh    ::
         :: -> anisotropic XC          0.018436200794 Eh    ::
         :: -> dispersion             -0.048643751320 Eh    ::
         :: repulsion energy           1.015930028373 Eh    ::
         :: add. restraining           0.000000000000 Eh    ::
         :: total charge              -0.000000000000 e     ::
         :::::::::::::::::::::::::::::::::::::::::::::::::::::

      ----------------------------------------------------------- 
     |                   =====================                   |
     |                        A N C O P T                        |
     |                   =====================                   |
     |               Approximate Normal Coordinate               |
     |                Rational Function Optimizer                |
      ----------------------------------------------------------- 
      ----------------------------------------------------------- 
     |                   =====================                   |
     |                        A N C O P T                        |
     |                   =====================                   |
     |               Approximate Normal Coordinate               |
     |                Rational Function Optimizer                |
      ----------------------------------------------------------- 

          ...................................................
          :                      SETUP                      :
          :.................................................:
          :   optimization level            normal          :
          :   max. optcycles                   200          :
          :   ANC micro-cycles                  20          :
          :   degrees of freedom               135          :
          :.................................................:
          :   RF solver                   davidson          :
          :   write xtbopt.log                true          :
          :   linear?                        false          :
          :   energy convergence         0.5000000E-05 Eh   :
          :   grad. convergence          0.1000000E-02 Eh/α :
          :   maxmium RF displ.          1.0000000          :
          :   Hlow (freq-cutoff)         0.1000000E-01      :
          :   Hmax (freq-cutoff)         5.0000000          :
          :   S6 in model hess.         20.0000000          :
          ...................................................

generating ANC from exact Hessian ...
Using Lindh-Hessian (1995)
 Shifting diagonal of input Hessian by   9.907931239301605E-003
 Lowest  eigenvalues of input Hessian
    0.000000    0.000000    0.000000    0.000000    0.000000    0.000000
    0.010000    0.010355    0.010438    0.010619    0.011182    0.011822
    0.012179    0.012584    0.012716    0.013412    0.013956    0.015488
 Highest eigenvalues
    1.982701    2.036227    2.048844    2.096411    2.173517    2.216161
 

........................................................................
.............................. CYCLE    1 ..............................
........................................................................

 iter      E             dE          RMSdq      gap      omega  full diag
   1    -75.2939630 -0.752940E+02  0.128E-04    2.22       0.0  T
   2    -75.2939630 -0.283507E-09  0.862E-05    2.22     169.2  T
   3    -75.2939630 -0.258467E-09  0.449E-05    2.22     325.0  T
     SCC iter.                  ...        0 min,  0.010 sec
     gradient                   ...        0 min,  0.005 sec
 * total energy  :   -74.2775260 Eh     change       -0.7596697E-09 Eh
   gradient norm :     0.1758787 Eh/α   predicted     0.0000000E+00 (-100.00%)
   displ. norm   :     0.3416585 α      lambda       -0.3639111E-01
   maximum displ.:     0.1068908 α      in ANC's #65, #47, #49, ...

........................................................................
.............................. CYCLE    2 ..............................
........................................................................

 iter      E             dE          RMSdq      gap      omega  full diag
   1    -75.3091934 -0.753092E+02  0.257E-01    2.21       0.0  T
   2    -75.3096322 -0.438768E-03  0.160E-01    2.20       1.0  T
   3    -75.3096086  0.236300E-04  0.710E-02    2.19       1.0  T
   4    -75.3096872 -0.786094E-04  0.226E-02    2.19       1.0  T
   5    -75.3097095 -0.223860E-04  0.671E-03    2.19       2.2  T
   6    -75.3097104 -0.809197E-06  0.388E-03    2.19       3.8  T
   7    -75.3097106 -0.266417E-06  0.187E-03    2.19       7.8  T
   8    -75.3097107 -0.486690E-07  0.801E-04    2.19      18.2  T
   9    -75.3097107 -0.105446E-07  0.257E-04    2.19      56.7  T
     SCC iter.                  ...        0 min,  0.055 sec
     gradient                   ...        0 min,  0.008 sec
 * total energy  :   -74.3025063 Eh     change       -0.2498028E-01 Eh
   gradient norm :     0.0705056 Eh/α   predicted    -0.2033016E-01 ( -18.62%)
   displ. norm   :     0.3079826 α      lambda       -0.1061695E-01
   maximum displ.:     0.0998205 α      in ANC's #10, #28, #25, ...

........................................................................
.............................. CYCLE    3 ..............................
........................................................................

 iter      E             dE          RMSdq      gap      omega  full diag
   1    -75.3158421 -0.753158E+02  0.173E-01    2.18       0.0  T
   2    -75.3160890 -0.246889E-03  0.105E-01    2.18       1.0  T
   3    -75.3160936 -0.462743E-05  0.500E-02    2.17       1.0  T
   4    -75.3161203 -0.266495E-04  0.146E-02    2.17       1.0  T
   5    -75.3161291 -0.881808E-05  0.440E-03    2.17       3.3  T
   6    -75.3161296 -0.567498E-06  0.199E-03    2.17       7.3  T
   7    -75.3161297 -0.506353E-07  0.108E-03    2.17      13.5  T
   8    -75.3161297 -0.156293E-07  0.576E-04    2.17      25.3  T
   9    -75.3161297 -0.677127E-08  0.181E-04    2.17      80.7  T
     SCC iter.                  ...        0 min,  0.027 sec
     gradient                   ...        0 min,  0.007 sec
 * total energy  :   -74.3088001 Eh     change       -0.6293823E-02 Eh
   gradient norm :     0.0173589 Eh/α   predicted    -0.5815273E-02 (  -7.60%)
   displ. norm   :     0.2469195 α      lambda       -0.1619091E-02
   maximum displ.:     0.1383172 α      in ANC's #10, #18, #9, ...

........................................................................
.............................. CYCLE    4 ..............................
........................................................................

 iter      E             dE          RMSdq      gap      omega  full diag
   1    -75.3149328 -0.753149E+02  0.782E-02    2.16       0.0  T
   2    -75.3149440 -0.112768E-04  0.464E-02    2.16       1.0  T
   3    -75.3149391  0.489349E-05  0.146E-02    2.16       1.0  T
   4    -75.3149461 -0.698523E-05  0.347E-03    2.16       4.2  T
   5    -75.3149465 -0.322672E-06  0.169E-03    2.16       8.6  T
   6    -75.3149465 -0.725100E-07  0.771E-04    2.16      18.9  T
   7    -75.3149465 -0.293505E-08  0.427E-04    2.16      34.1  T
     SCC iter.                  ...        0 min,  0.022 sec
     gradient                   ...        0 min,  0.007 sec
 * total energy  :   -74.3099817 Eh     change       -0.1181569E-02 Eh
   gradient norm :     0.0114035 Eh/α   predicted    -0.8589148E-03 ( -27.31%)
   displ. norm   :     0.3218843 α      lambda       -0.1085297E-02
   maximum displ.:     0.2065459 α      in ANC's #10, #9, #18, ...

........................................................................
.............................. CYCLE    5 ..............................
........................................................................

 iter      E             dE          RMSdq      gap      omega  full diag
   1    -75.3144886 -0.753145E+02  0.919E-02    2.16       0.0  T
   2    -75.3144925 -0.389504E-05  0.545E-02    2.15       1.0  T
   3    -75.3144883  0.421707E-05  0.117E-02    2.15       1.2  T
   4    -75.3144934 -0.511020E-05  0.375E-03    2.15       3.9  T
   5    -75.3144938 -0.361243E-06  0.178E-03    2.15       8.2  T
   6    -75.3144938 -0.572421E-07  0.786E-04    2.15      18.6  T
   7    -75.3144938 -0.509095E-08  0.282E-04    2.15      51.8  T
     SCC iter.                  ...        0 min,  0.019 sec
     gradient                   ...        0 min,  0.006 sec
 * total energy  :   -74.3107006 Eh     change       -0.7188618E-03 Eh
   gradient norm :     0.0110403 Eh/α   predicted    -0.5990718E-03 ( -16.66%)
   displ. norm   :     0.2445396 α      lambda       -0.4622284E-03
   maximum displ.:     0.1715220 α      in ANC's #10, #9, #6, ...

........................................................................
.............................. CYCLE    6 ..............................
........................................................................

 iter      E             dE          RMSdq      gap      omega  full diag
   1    -75.3161903 -0.753162E+02  0.693E-02    2.15       0.0  T
   2    -75.3161915 -0.121168E-05  0.411E-02    2.15       1.0  T
   3    -75.3161867  0.480376E-05  0.100E-02    2.15       1.5  T
   4    -75.3161921 -0.537323E-05  0.210E-03    2.15       7.0  T
   5    -75.3161922 -0.114563E-06  0.928E-04    2.15      15.7  T
   6    -75.3161922 -0.257836E-08  0.443E-04    2.15      32.9  T
     SCC iter.                  ...        0 min,  0.031 sec
     gradient                   ...        0 min,  0.006 sec
 * total energy  :   -74.3110391 Eh     change       -0.3385376E-03 Eh
   gradient norm :     0.0076968 Eh/α   predicted    -0.2449351E-03 ( -27.65%)
   displ. norm   :     0.2704573 α      lambda       -0.3821777E-03
   maximum displ.:     0.1840903 α      in ANC's #10, #9, #6, ...

........................................................................
.............................. CYCLE    7 ..............................
........................................................................

 iter      E             dE          RMSdq      gap      omega  full diag
   1    -75.3179745 -0.753180E+02  0.802E-02    2.16       0.0  T
   2    -75.3179764 -0.187149E-05  0.478E-02    2.16       1.0  T
   3    -75.3179714  0.502544E-05  0.100E-02    2.16       1.5  T
   4    -75.3179771 -0.570326E-05  0.262E-03    2.16       5.6  T
   5    -75.3179773 -0.188079E-06  0.116E-03    2.16      12.6  T
   6    -75.3179773 -0.665996E-08  0.522E-04    2.16      28.0  T
   7    -75.3179773 -0.590192E-08  0.197E-04    2.16      74.2  T
     SCC iter.                  ...        0 min,  0.022 sec
     gradient                   ...        0 min,  0.006 sec
 * total energy  :   -74.3113279 Eh     change       -0.2887726E-03 Eh
   gradient norm :     0.0070253 Eh/α   predicted    -0.2050668E-03 ( -28.99%)
   displ. norm   :     0.2976937 α      lambda       -0.3430394E-03
   maximum displ.:     0.1881936 α      in ANC's #10, #9, #7, ...

........................................................................
.............................. CYCLE    8 ..............................
........................................................................

 iter      E             dE          RMSdq      gap      omega  full diag
   1    -75.3192683 -0.753193E+02  0.931E-02    2.16       0.0  T
   2    -75.3192703 -0.200667E-05  0.553E-02    2.16       1.0  T
   3    -75.3192678  0.247878E-05  0.740E-03    2.16       2.0  T
   4    -75.3192709 -0.309314E-05  0.231E-03    2.16       6.3  T
   5    -75.3192710 -0.113589E-06  0.128E-03    2.16      11.4  T
   6    -75.3192711 -0.243765E-07  0.563E-04    2.16      25.9  T
   7    -75.3192711 -0.485248E-08  0.222E-04    2.16      65.6  T
     SCC iter.                  ...        0 min,  0.018 sec
     gradient                   ...        0 min,  0.006 sec
 * total energy  :   -74.3115801 Eh     change       -0.2522833E-03 Eh
   gradient norm :     0.0061493 Eh/α   predicted    -0.1867203E-03 ( -25.99%)
   displ. norm   :     0.3065768 α      lambda       -0.2591534E-03
   maximum displ.:     0.1788654 α      in ANC's #10, #9, #3, ...

........................................................................
.............................. CYCLE    9 ..............................
........................................................................

 iter      E             dE          RMSdq      gap      omega  full diag
   1    -75.3185907 -0.753186E+02  0.994E-02    2.16       0.0  T
   2    -75.3185924 -0.172740E-05  0.590E-02    2.16       1.0  T
   3    -75.3185907  0.171884E-05  0.699E-03    2.16       2.1  T
   4    -75.3185932 -0.249038E-05  0.218E-03    2.16       6.7  T
   5    -75.3185932 -0.313091E-07  0.111E-03    2.16      13.2  T
   6    -75.3185932 -0.121518E-07  0.527E-04    2.16      27.7  T
   7    -75.3185932 -0.865290E-08  0.185E-04    2.16      78.9  T
     SCC iter.                  ...        0 min,  0.018 sec
     gradient                   ...        0 min,  0.006 sec
 * total energy  :   -74.3117552 Eh     change       -0.1750732E-03 Eh
   gradient norm :     0.0073067 Eh/α   predicted    -0.1417572E-03 ( -19.03%)
   displ. norm   :     0.2541049 α      lambda       -0.2254851E-03
   maximum displ.:     0.1189745 α      in ANC's #10, #3, #9, ...

........................................................................
.............................. CYCLE   10 ..............................
........................................................................

 iter      E             dE          RMSdq      gap      omega  full diag
   1    -75.3201222 -0.753201E+02  0.882E-02    2.16       0.0  T
   2    -75.3201241 -0.188597E-05  0.520E-02    2.16       1.0  T
   3    -75.3201214  0.269812E-05  0.837E-03    2.16       1.7  T
   4    -75.3201247 -0.334824E-05  0.218E-03    2.16       6.7  T
   5    -75.3201248 -0.809380E-07  0.124E-03    2.16      11.8  T
   6    -75.3201249 -0.250068E-07  0.595E-04    2.16      24.5  T
   7    -75.3201249 -0.641471E-08  0.195E-04    2.16      75.0  T
     SCC iter.                  ...        0 min,  0.018 sec
     gradient                   ...        0 min,  0.006 sec
 * total energy  :   -74.3118513 Eh     change       -0.9609565E-04 Eh
   gradient norm :     0.0084052 Eh/α   predicted    -0.1200231E-03 (  24.90%)
   displ. norm   :     0.1612242 α      lambda       -0.1481553E-03
   maximum displ.:     0.0682924 α      in ANC's #10, #9, #3, ...

........................................................................
.............................. CYCLE   11 ..............................
........................................................................

 iter      E             dE          RMSdq      gap      omega  full diag
   1    -75.3190319 -0.753190E+02  0.559E-02    2.16       0.0  T
   2    -75.3190331 -0.118742E-05  0.331E-02    2.16       1.0  T
   3    -75.3190321  0.938655E-06  0.509E-03    2.16       2.9  T
   4    -75.3190335 -0.135015E-05  0.158E-03    2.16       9.2  T
   5    -75.3190335 -0.324640E-07  0.728E-04    2.16      20.0  T
   6    -75.3190335 -0.345118E-08  0.314E-04    2.16      46.4  T
     SCC iter.                  ...        0 min,  0.016 sec
     gradient                   ...        0 min,  0.006 sec
 * total energy  :   -74.3119383 Eh     change       -0.8700977E-04 Eh
   gradient norm :     0.0049912 Eh/α   predicted    -0.7602150E-04 ( -12.63%)
   displ. norm   :     0.0734477 α      lambda       -0.7282455E-04
   maximum displ.:     0.0340773 α      in ANC's #3, #7, #8, ...

........................................................................
.............................. CYCLE   12 ..............................
........................................................................

 iter      E             dE          RMSdq      gap      omega  full diag
   1    -75.3199819 -0.753200E+02  0.261E-02    2.16       0.0  T
   2    -75.3199824 -0.531604E-06  0.154E-02    2.16       1.0  T
   3    -75.3199817  0.645998E-06  0.404E-03    2.15       3.6  T
   4    -75.3199825 -0.706086E-06  0.123E-03    2.16      11.8  T
   5    -75.3199825 -0.588552E-07  0.420E-04    2.16      34.7  T
   6    -75.3199825 -0.453122E-08  0.196E-04    2.16      74.6  T
     SCC iter.                  ...        0 min,  0.016 sec
     gradient                   ...        0 min,  0.007 sec
 * total energy  :   -74.3119949 Eh     change       -0.5656221E-04 Eh
   gradient norm :     0.0036056 Eh/α   predicted    -0.3661335E-04 ( -35.27%)
   displ. norm   :     0.2108342 α      lambda       -0.1054466E-03
   maximum displ.:     0.1041679 α      in ANC's #3, #7, #9, ...

........................................................................
.............................. CYCLE   13 ..............................
........................................................................

 iter      E             dE          RMSdq      gap      omega  full diag
   1    -75.3192377 -0.753192E+02  0.712E-02    2.15       0.0  T
   2    -75.3192388 -0.106335E-05  0.419E-02    2.15       1.0  T
   3    -75.3192368  0.199148E-05  0.657E-03    2.15       2.2  T
   4    -75.3192392 -0.237809E-05  0.159E-03    2.15       9.1  T
   5    -75.3192392 -0.549392E-07  0.884E-04    2.15      16.5  T
   6    -75.3192392 -0.140643E-07  0.429E-04    2.15      34.0  T
     SCC iter.                  ...        0 min,  0.016 sec
     gradient                   ...        0 min,  0.007 sec
 * total energy  :   -74.3120630 Eh     change       -0.6807898E-04 Eh
   gradient norm :     0.0028094 Eh/α   predicted    -0.5507125E-04 ( -19.11%)
   displ. norm   :     0.1391990 α      lambda       -0.5215796E-04
   maximum displ.:     0.0758383 α      in ANC's #3, #7, #4, ...

........................................................................
.............................. CYCLE   14 ..............................
........................................................................

 iter      E             dE          RMSdq      gap      omega  full diag
   1    -75.3203147 -0.753203E+02  0.431E-02    2.15       0.0  T
   2    -75.3203150 -0.315869E-06  0.254E-02    2.15       1.0  T
   3    -75.3203139  0.111777E-05  0.479E-03    2.15       3.0  T
   4    -75.3203152 -0.127974E-05  0.926E-04    2.15      15.8  T
   5    -75.3203152 -0.160723E-07  0.495E-04    2.15      29.5  T
   6    -75.3203152 -0.413496E-08  0.236E-04    2.15      61.8  T
     SCC iter.                  ...        0 min,  0.016 sec
     gradient                   ...        0 min,  0.007 sec
 * total energy  :   -74.3121028 Eh     change       -0.3983788E-04 Eh
   gradient norm :     0.0032030 Eh/α   predicted    -0.2658513E-04 ( -33.27%)
   displ. norm   :     0.2220698 α      lambda       -0.6837529E-04
   maximum displ.:     0.1188947 α      in ANC's #3, #7, #4, ...

........................................................................
.............................. CYCLE   15 ..............................
........................................................................

 iter      E             dE          RMSdq      gap      omega  full diag
   1    -75.3201111 -0.753201E+02  0.691E-02    2.15       0.0  T
   2    -75.3201118 -0.658315E-06  0.408E-02    2.15       1.0  T
   3    -75.3201103  0.151912E-05  0.547E-03    2.15       2.7  T
   4    -75.3201121 -0.184709E-05  0.123E-03    2.15      11.8  T
   5    -75.3201121 -0.234943E-07  0.726E-04    2.15      20.1  T
   6    -75.3201121 -0.513226E-08  0.315E-04    2.15      46.3  T
     SCC iter.                  ...        0 min,  0.016 sec
     gradient                   ...        0 min,  0.006 sec
 * total energy  :   -74.3121557 Eh     change       -0.5290862E-04 Eh
   gradient norm :     0.0030741 Eh/α   predicted    -0.3587439E-04 ( -32.20%)
   displ. norm   :     0.2317323 α      lambda       -0.7050604E-04
   maximum displ.:     0.1290655 α      in ANC's #3, #7, #4, ...

........................................................................
.............................. CYCLE   16 ..............................
........................................................................

 iter      E             dE          RMSdq      gap      omega  full diag
   1    -75.3208899 -0.753209E+02  0.668E-02    2.15       0.0  T
   2    -75.3208905 -0.622418E-06  0.394E-02    2.15       1.0  T
   3    -75.3208894  0.114323E-05  0.479E-03    2.15       3.0  T
   4    -75.3208908 -0.142547E-05  0.115E-03    2.15      12.7  T
   5    -75.3208908 -0.133293E-07  0.696E-04    2.15      21.0  T
   6    -75.3208908 -0.823616E-08  0.305E-04    2.15      47.8  T
     SCC iter.                  ...        0 min,  0.017 sec
     gradient                   ...        0 min,  0.005 sec
 * total energy  :   -74.3122046 Eh     change       -0.4890398E-04 Eh
   gradient norm :     0.0031567 Eh/α   predicted    -0.3715005E-04 ( -24.03%)
   displ. norm   :     0.1853775 α      lambda       -0.3772250E-04
   maximum displ.:     0.1070874 α      in ANC's #3, #4, #2, ...

........................................................................
.............................. CYCLE   17 ..............................
........................................................................

 iter      E             dE          RMSdq      gap      omega  full diag
   1    -75.3201822 -0.753202E+02  0.539E-02    2.14       0.0  T
   2    -75.3201826 -0.394797E-06  0.318E-02    2.14       1.0  T
   3    -75.3201821  0.536410E-06  0.343E-03    2.15       4.3  T
   4    -75.3201828 -0.704366E-06  0.826E-04    2.14      17.7  T
   5    -75.3201828 -0.680676E-08  0.461E-04    2.14      31.6  T
     SCC iter.                  ...        0 min,  0.016 sec
     gradient                   ...        0 min,  0.007 sec
 * total energy  :   -74.3122314 Eh     change       -0.2680034E-04 Eh
   gradient norm :     0.0024492 Eh/α   predicted    -0.1951677E-04 ( -27.18%)
   displ. norm   :     0.1320343 α      lambda       -0.3333389E-04
   maximum displ.:     0.0773757 α      in ANC's #3, #5, #1, ...

........................................................................
.............................. CYCLE   18 ..............................
........................................................................

 iter      E             dE          RMSdq      gap      omega  full diag
   1    -75.3213255 -0.753213E+02  0.312E-02    2.15       0.0  T
   2    -75.3213257 -0.167922E-06  0.185E-02    2.15       1.0  T
   3    -75.3213256  0.142760E-06  0.204E-03    2.15       7.2  T
   4    -75.3213258 -0.201264E-06  0.602E-04    2.15      24.2  T
   5    -75.3213258 -0.358163E-08  0.315E-04    2.15      46.3  T
     SCC iter.                  ...        0 min,  0.015 sec
     gradient                   ...        0 min,  0.005 sec
 * total energy  :   -74.3122537 Eh     change       -0.2230459E-04 Eh
   gradient norm :     0.0023668 Eh/α   predicted    -0.1696222E-04 ( -23.95%)
   displ. norm   :     0.1387957 α      lambda       -0.2873237E-04
   maximum displ.:     0.0878495 α      in ANC's #3, #1, #5, ...

........................................................................
.............................. CYCLE   19 ..............................
........................................................................

 iter      E             dE          RMSdq      gap      omega  full diag
   1    -75.3206254 -0.753206E+02  0.375E-02    2.14       0.0  T
   2    -75.3206256 -0.186556E-06  0.221E-02    2.14       1.0  T
   3    -75.3206254  0.192666E-06  0.228E-03    2.14       6.4  T
   4    -75.3206257 -0.266320E-06  0.653E-04    2.14      22.3  T
   5    -75.3206257 -0.459359E-08  0.388E-04    2.14      37.6  T
     SCC iter.                  ...        0 min,  0.015 sec
     gradient                   ...        0 min,  0.005 sec
 * total energy  :   -74.3122761 Eh     change       -0.2236576E-04 Eh
   gradient norm :     0.0022513 Eh/α   predicted    -0.1464343E-04 ( -34.53%)
   displ. norm   :     0.1457758 α      lambda       -0.3883879E-04
   maximum displ.:     0.0907003 α      in ANC's #3, #5, #1, ...

........................................................................
.............................. CYCLE   20 ..............................
........................................................................

 iter      E             dE          RMSdq      gap      omega  full diag
   1    -75.3206337 -0.753206E+02  0.348E-02    2.14       0.0  T
   2    -75.3206339 -0.189800E-06  0.206E-02    2.14       1.0  T
   3    -75.3206337  0.118208E-06  0.204E-03    2.14       7.1  T
   4    -75.3206339 -0.197456E-06  0.704E-04    2.14      20.7  T
   5    -75.3206339 -0.369390E-08  0.349E-04    2.14      41.8  T
     SCC iter.                  ...        0 min,  0.015 sec
     gradient                   ...        0 min,  0.007 sec
 * total energy  :   -74.3123080 Eh     change       -0.3194772E-04 Eh
   gradient norm :     0.0027272 Eh/α   predicted    -0.1983271E-04 ( -37.92%)
   displ. norm   :     0.2575011 α      lambda       -0.6462648E-04
   maximum displ.:     0.1614309 α      in ANC's #3, #1, #5, ...
 * RMSD in coord.:     0.4536649 α      energy gain  -0.3478202E-01 Eh

generating ANC from exact Hessian ...
Using Lindh-Hessian (1995)
 Shifting diagonal of input Hessian by   9.926188253236422E-003
 Lowest  eigenvalues of input Hessian
    0.000000    0.000000    0.000000    0.000000    0.000000    0.000000
    0.010000    0.010319    0.010422    0.010594    0.010995    0.011660
    0.011985    0.012227    0.012340    0.012716    0.013775    0.014912
 Highest eigenvalues
    1.937592    2.011004    2.012683    2.085001    2.116133    2.208062
 

........................................................................
.............................. CYCLE   21 ..............................
........................................................................

 iter      E             dE          RMSdq      gap      omega  full diag
   1    -75.3199708 -0.753200E+02  0.621E-02    2.14       0.0  T
   2    -75.3199712 -0.446298E-06  0.368E-02    2.14       1.0  T
   3    -75.3199708  0.397241E-06  0.347E-03    2.14       4.2  T
   4    -75.3199714 -0.635523E-06  0.133E-03    2.14      10.9  T
   5    -75.3199715 -0.491627E-08  0.825E-04    2.14      17.7  T
   6    -75.3199715 -0.167119E-07  0.233E-04    2.14      62.5  T
     SCC iter.                  ...        0 min,  0.019 sec
     gradient                   ...        0 min,  0.005 sec
 * total energy  :   -74.3123588 Eh     change       -0.5081301E-04 Eh
   gradient norm :     0.0031773 Eh/α   predicted     0.0000000E+00 (-100.00%)
   displ. norm   :     0.0362011 α      lambda       -0.4043015E-04
   maximum displ.:     0.0160095 α      in ANC's #3, #31, #17, ...

........................................................................
.............................. CYCLE   22 ..............................
........................................................................

 iter      E             dE          RMSdq      gap      omega  full diag
   1    -75.3206477 -0.753206E+02  0.119E-02    2.14       0.0  T
   2    -75.3206478 -0.110395E-06  0.732E-03    2.14       2.0  T
   3    -75.3206473  0.509384E-06  0.339E-03    2.14       4.3  T
   4    -75.3206479 -0.576751E-06  0.564E-04    2.14      25.9  T
   5    -75.3206479 -0.650142E-08  0.256E-04    2.14      57.0  T
     SCC iter.                  ...        0 min,  0.013 sec
     gradient                   ...        0 min,  0.006 sec
 * total energy  :   -74.3123923 Eh     change       -0.3345704E-04 Eh
   gradient norm :     0.0016131 Eh/α   predicted    -0.2047846E-04 ( -38.79%)
   displ. norm   :     0.1544141 α      lambda       -0.7033628E-04
   maximum displ.:     0.0780799 α      in ANC's #3, #31, #17, ...

........................................................................
.............................. CYCLE   23 ..............................
........................................................................

 iter      E             dE          RMSdq      gap      omega  full diag
   1    -75.3213574 -0.753214E+02  0.454E-02    2.14       0.0  T
   2    -75.3213586 -0.119010E-05  0.276E-02    2.14       1.0  T
   3    -75.3213552  0.339387E-05  0.892E-03    2.14       1.6  T
   4    -75.3213591 -0.390461E-05  0.208E-03    2.14       7.0  T
   5    -75.3213592 -0.948119E-07  0.951E-04    2.14      15.3  T
   6    -75.3213592 -0.586624E-08  0.399E-04    2.14      36.6  T
     SCC iter.                  ...        0 min,  0.016 sec
     gradient                   ...        0 min,  0.006 sec
 * total energy  :   -74.3124349 Eh     change       -0.4256386E-04 Eh
   gradient norm :     0.0043470 Eh/α   predicted    -0.3554242E-04 ( -16.50%)
   displ. norm   :     0.0210703 α      lambda       -0.2159923E-04
   maximum displ.:     0.0137276 α      in ANC's #3, #1, #7, ...

........................................................................
.............................. CYCLE   24 ..............................
........................................................................

 iter      E             dE          RMSdq      gap      omega  full diag
   1    -75.3211889 -0.753212E+02  0.703E-03    2.14       0.0  T
   2    -75.3211890 -0.371443E-07  0.422E-03    2.14       3.5  T
   3    -75.3211889  0.101162E-06  0.151E-03    2.14       9.7  T
   4    -75.3211890 -0.116183E-06  0.320E-04    2.14      45.7  T
   5    -75.3211890 -0.191055E-08  0.153E-04    2.14      95.3  T
     SCC iter.                  ...        0 min,  0.013 sec
     gradient                   ...        0 min,  0.006 sec
 * total energy  :   -74.3124533 Eh     change       -0.1845842E-04 Eh
   gradient norm :     0.0027373 Eh/α   predicted    -0.1080741E-04 ( -41.45%)
   displ. norm   :     0.1000245 α      lambda       -0.5179714E-04
   maximum displ.:     0.0652083 α      in ANC's #3, #1, #7, ...

........................................................................
.............................. CYCLE   25 ..............................
........................................................................

 iter      E             dE          RMSdq      gap      omega  full diag
   1    -75.3206137 -0.753206E+02  0.283E-02    2.14       0.0  T
   2    -75.3206140 -0.316551E-06  0.169E-02    2.14       1.0  T
   3    -75.3206136  0.415778E-06  0.347E-03    2.14       4.2  T
   4    -75.3206141 -0.519043E-06  0.105E-03    2.14      13.9  T
   5    -75.3206141 -0.203833E-07  0.506E-04    2.14      28.8  T
   6    -75.3206141 -0.203755E-08  0.217E-04    2.14      67.1  T
     SCC iter.                  ...        0 min,  0.026 sec
     gradient                   ...        0 min,  0.008 sec
 * total energy  :   -74.3124875 Eh     change       -0.3418617E-04 Eh
   gradient norm :     0.0010701 Eh/α   predicted    -0.2616586E-04 ( -23.46%)
   displ. norm   :     0.1517869 α      lambda       -0.2264280E-04
   maximum displ.:     0.1001539 α      in ANC's #3, #1, #7, ...

........................................................................
.............................. CYCLE   26 ..............................
........................................................................

 iter      E             dE          RMSdq      gap      omega  full diag
   1    -75.3200310 -0.753200E+02  0.394E-02    2.14       0.0  T
   2    -75.3200314 -0.359300E-06  0.236E-02    2.14       1.0  T
   3    -75.3200314  0.216056E-08  0.223E-03    2.14       6.6  T
   4    -75.3200315 -0.151939E-06  0.106E-03    2.14      13.7  T
   5    -75.3200315 -0.871700E-08  0.450E-04    2.14      32.4  T
   6    -75.3200315 -0.187865E-08  0.171E-04    2.14      85.2  T
     SCC iter.                  ...        0 min,  0.017 sec
     gradient                   ...        0 min,  0.006 sec
 * total energy  :   -74.3125118 Eh     change       -0.2430516E-04 Eh
   gradient norm :     0.0019782 Eh/α   predicted    -0.1143769E-04 ( -52.94%)
   displ. norm   :     0.1303087 α      lambda       -0.1942574E-04
   maximum displ.:     0.0867250 α      in ANC's #3, #1, #4, ...

........................................................................
.............................. CYCLE   27 ..............................
........................................................................

 iter      E             dE          RMSdq      gap      omega  full diag
   1    -75.3204072 -0.753204E+02  0.324E-02    2.14       0.0  T
   2    -75.3204074 -0.193738E-06  0.193E-02    2.14       1.0  T
   3    -75.3204070  0.424595E-06  0.310E-03    2.14       4.7  T
   4    -75.3204075 -0.546852E-06  0.961E-04    2.14      15.2  T
   5    -75.3204075 -0.614359E-08  0.584E-04    2.14      25.0  T
     SCC iter.                  ...        0 min,  0.013 sec
     gradient                   ...        0 min,  0.005 sec
 * total energy  :   -74.3125360 Eh     change       -0.2423183E-04 Eh
   gradient norm :     0.0015132 Eh/α   predicted    -0.9786414E-05 ( -59.61%)
   displ. norm   :     0.1696256 α      lambda       -0.2561667E-04
   maximum displ.:     0.1134684 α      in ANC's #3, #1, #4, ...

........................................................................
.............................. CYCLE   28 ..............................
........................................................................

 iter      E             dE          RMSdq      gap      omega  full diag
   1    -75.3211399 -0.753211E+02  0.409E-02    2.13       0.0  T
   2    -75.3211402 -0.326856E-06  0.243E-02    2.14       1.0  T
   3    -75.3211392  0.964445E-06  0.439E-03    2.14       3.3  T
   4    -75.3211404 -0.116687E-05  0.115E-03    2.14      12.7  T
   5    -75.3211404 -0.147819E-07  0.690E-04    2.14      21.1  T
   6    -75.3211404 -0.530733E-08  0.210E-04    2.14      69.5  T
     SCC iter.                  ...        0 min,  0.019 sec
     gradient                   ...        0 min,  0.006 sec
 * total energy  :   -74.3125673 Eh     change       -0.3128530E-04 Eh
   gradient norm :     0.0011196 Eh/α   predicted    -0.1297699E-04 ( -58.52%)
   displ. norm   :     0.2334519 α      lambda       -0.2900774E-04
   maximum displ.:     0.1549460 α      in ANC's #3, #1, #4, ...

........................................................................
.............................. CYCLE   29 ..............................
........................................................................

 iter      E             dE          RMSdq      gap      omega  full diag
   1    -75.3211529 -0.753212E+02  0.566E-02    2.13       0.0  T
   2    -75.3211534 -0.442418E-06  0.335E-02    2.13       1.0  T
   3    -75.3211528  0.522028E-06  0.377E-03    2.13       3.9  T
   4    -75.3211536 -0.765471E-06  0.133E-03    2.13      11.0  T
   5    -75.3211536 -0.102148E-07  0.811E-04    2.13      18.0  T
   6    -75.3211536 -0.115386E-07  0.224E-04    2.13      65.0  T
     SCC iter.                  ...        0 min,  0.018 sec
     gradient                   ...        0 min,  0.005 sec
 * total energy  :   -74.3126054 Eh     change       -0.3805721E-04 Eh
   gradient norm :     0.0015329 Eh/α   predicted    -0.1485628E-04 ( -60.96%)
   displ. norm   :     0.2824351 α      lambda       -0.3541276E-04
   maximum displ.:     0.1857372 α      in ANC's #3, #1, #4, ...

........................................................................
.............................. CYCLE   30 ..............................
........................................................................

 iter      E             dE          RMSdq      gap      omega  full diag
   1    -75.3209042 -0.753209E+02  0.678E-02    2.13       0.0  T
   2    -75.3209048 -0.564597E-06  0.401E-02    2.13       1.0  T
   3    -75.3209042  0.585126E-06  0.401E-03    2.13       3.6  T
   4    -75.3209051 -0.894939E-06  0.141E-03    2.13      10.4  T
   5    -75.3209051 -0.577819E-08  0.872E-04    2.13      16.7  T
   6    -75.3209051 -0.152117E-07  0.257E-04    2.13      56.7  T
     SCC iter.                  ...        0 min,  0.018 sec
     gradient                   ...        0 min,  0.007 sec
 * total energy  :   -74.3126543 Eh     change       -0.4895193E-04 Eh
   gradient norm :     0.0017524 Eh/α   predicted    -0.1833660E-04 ( -62.54%)
   displ. norm   :     0.4034306 α      lambda       -0.5352022E-04
   maximum displ.:     0.2637689 α      in ANC's #3, #1, #4, ...

........................................................................
.............................. CYCLE   31 ..............................
........................................................................

 iter      E             dE          RMSdq      gap      omega  full diag
   1    -75.3204548 -0.753205E+02  0.975E-02    2.12       0.0  T
   2    -75.3204559 -0.107683E-05  0.576E-02    2.12       1.0  T
   3    -75.3204549  0.104851E-05  0.541E-03    2.12       2.7  T
   4    -75.3204565 -0.166269E-05  0.186E-03    2.12       7.8  T
   5    -75.3204565  0.163971E-08  0.113E-03    2.12      12.9  T
   6    -75.3204566 -0.305270E-07  0.347E-04    2.12      42.0  T
   7    -75.3204566 -0.288432E-08  0.140E-04    2.12     104.2  T
     SCC iter.                  ...        0 min,  0.021 sec
     gradient                   ...        0 min,  0.005 sec
 * total energy  :   -74.3127233 Eh     change       -0.6893878E-04 Eh
   gradient norm :     0.0024824 Eh/α   predicted    -0.2869679E-04 ( -58.37%)
   displ. norm   :     0.3313181 α      lambda       -0.6092754E-04
   maximum displ.:     0.2183896 α      in ANC's #3, #1, #4, ...

........................................................................
.............................. CYCLE   32 ..............................
........................................................................

 iter      E             dE          RMSdq      gap      omega  full diag
   1    -75.3195702 -0.753196E+02  0.797E-02    2.12       0.0  T
   2    -75.3195709 -0.732348E-06  0.471E-02    2.12       1.0  T
   3    -75.3195701  0.844773E-06  0.458E-03    2.12       3.2  T
   4    -75.3195713 -0.122365E-05  0.147E-03    2.12       9.9  T
   5    -75.3195713 -0.106564E-07  0.901E-04    2.12      16.2  T
   6    -75.3195713 -0.129403E-07  0.339E-04    2.12      43.0  T
     SCC iter.                  ...        0 min,  0.018 sec
     gradient                   ...        0 min,  0.007 sec
 * total energy  :   -74.3127726 Eh     change       -0.4934138E-04 Eh
   gradient norm :     0.0021851 Eh/α   predicted    -0.3380857E-04 ( -31.48%)
   displ. norm   :     0.4579985 α      lambda       -0.7698096E-04
   maximum displ.:     0.3050774 α      in ANC's #3, #1, #4, ...

........................................................................
.............................. CYCLE   33 ..............................
........................................................................

 iter      E             dE          RMSdq      gap      omega  full diag
   1    -75.3192181 -0.753192E+02  0.111E-01    2.12       0.0  T
   2    -75.3192194 -0.135413E-05  0.656E-02    2.12       1.0  T
   3    -75.3192176  0.184441E-05  0.669E-03    2.12       2.2  T
   4    -75.3192202 -0.261448E-05  0.205E-03    2.12       7.1  T
   5    -75.3192202 -0.820351E-08  0.131E-03    2.12      11.1  T
   6    -75.3192202 -0.347066E-07  0.410E-04    2.12      35.6  T
   7    -75.3192202 -0.370663E-08  0.145E-04    2.12     100.4  T
     SCC iter.                  ...        0 min,  0.021 sec
     gradient                   ...        0 min,  0.006 sec
 * total energy  :   -74.3128267 Eh     change       -0.5406629E-04 Eh
   gradient norm :     0.0024965 Eh/α   predicted    -0.4656912E-04 ( -13.87%)
   displ. norm   :     0.2547402 α      lambda       -0.4218021E-04
   maximum displ.:     0.1724932 α      in ANC's #3, #1, #4, ...

........................................................................
.............................. CYCLE   34 ..............................
........................................................................

 iter      E             dE          RMSdq      gap      omega  full diag
   1    -75.3203826 -0.753204E+02  0.623E-02    2.12       0.0  T
   2    -75.3203830 -0.435446E-06  0.368E-02    2.12       1.0  T
   3    -75.3203821  0.911968E-06  0.438E-03    2.12       3.3  T
   4    -75.3203833 -0.116447E-05  0.113E-03    2.12      12.9  T
   5    -75.3203833 -0.838310E-08  0.732E-04    2.12      19.9  T
   6    -75.3203833 -0.863183E-08  0.246E-04    2.12      59.2  T
     SCC iter.                  ...        0 min,  0.016 sec
     gradient                   ...        0 min,  0.006 sec
 * total energy  :   -74.3128583 Eh     change       -0.3164318E-04 Eh
   gradient norm :     0.0017035 Eh/α   predicted    -0.2245983E-04 ( -29.02%)
   displ. norm   :     0.4795842 α      lambda       -0.3809129E-04
   maximum displ.:     0.3279121 α      in ANC's #3, #1, #4, ...

........................................................................
.............................. CYCLE   35 ..............................
........................................................................

 iter      E             dE          RMSdq      gap      omega  full diag
   1    -75.3194370 -0.753194E+02  0.118E-01    2.11       0.0  T
   2    -75.3194385 -0.144882E-05  0.694E-02    2.12       1.0  T
   3    -75.3194357  0.278729E-05  0.782E-03    2.12       1.9  T
   4    -75.3194393 -0.362857E-05  0.215E-03    2.12       6.8  T
   5    -75.3194393 -0.346589E-07  0.137E-03    2.12      10.7  T
   6    -75.3194394 -0.283764E-07  0.422E-04    2.12      34.6  T
   7    -75.3194394 -0.353037E-08  0.142E-04    2.12     102.8  T
     SCC iter.                  ...        0 min,  0.023 sec
     gradient                   ...        0 min,  0.006 sec
 * total energy  :   -74.3128954 Eh     change       -0.3704628E-04 Eh
   gradient norm :     0.0027796 Eh/α   predicted    -0.2099354E-04 ( -43.33%)
   displ. norm   :     0.1978255 α      lambda       -0.5711740E-04
   maximum displ.:     0.1269851 α      in ANC's #1, #3, #10, ...

........................................................................
.............................. CYCLE   36 ..............................
........................................................................

 iter      E             dE          RMSdq      gap      omega  full diag
   1    -75.3231512 -0.753232E+02  0.497E-02    2.12       0.0  T
   2    -75.3231517 -0.473911E-06  0.294E-02    2.12       1.0  T
   3    -75.3231501  0.159440E-05  0.561E-03    2.12       2.6  T
   4    -75.3231520 -0.182598E-05  0.120E-03    2.12      12.1  T
   5    -75.3231520 -0.367682E-07  0.600E-04    2.12      24.3  T
   6    -75.3231520 -0.306683E-08  0.287E-04    2.12      50.8  T
     SCC iter.                  ...        0 min,  0.016 sec
     gradient                   ...        0 min,  0.006 sec
 * total energy  :   -74.3129221 Eh     change       -0.2675320E-04 Eh
   gradient norm :     0.0028461 Eh/α   predicted    -0.2967944E-04 (  10.94%)
   displ. norm   :     0.2742312 α      lambda       -0.3618902E-04
   maximum displ.:     0.1863578 α      in ANC's #3, #1, #4, ...

........................................................................
.............................. CYCLE   37 ..............................
........................................................................

 iter      E             dE          RMSdq      gap      omega  full diag
   1    -75.3217421 -0.753217E+02  0.669E-02    2.12       0.0  T
   2    -75.3217425 -0.458531E-06  0.395E-02    2.12       1.0  T
   3    -75.3217420  0.577461E-06  0.395E-03    2.12       3.7  T
   4    -75.3217428 -0.836018E-06  0.132E-03    2.12      11.1  T
   5    -75.3217428 -0.142267E-07  0.779E-04    2.12      18.7  T
   6    -75.3217428 -0.804387E-08  0.223E-04    2.12      65.6  T
     SCC iter.                  ...        0 min,  0.016 sec
     gradient                   ...        0 min,  0.006 sec
 * total energy  :   -74.3129516 Eh     change       -0.2946442E-04 Eh
   gradient norm :     0.0020264 Eh/α   predicted    -0.1945802E-04 ( -33.96%)
   displ. norm   :     0.2487764 α      lambda       -0.3523071E-04
   maximum displ.:     0.1634374 α      in ANC's #3, #1, #7, ...

........................................................................
.............................. CYCLE   38 ..............................
........................................................................

 iter      E             dE          RMSdq      gap      omega  full diag
   1    -75.3205725 -0.753206E+02  0.594E-02    2.12       0.0  T
   2    -75.3205728 -0.376118E-06  0.351E-02    2.12       1.0  T
   3    -75.3205727  0.137560E-06  0.281E-03    2.12       5.2  T
   4    -75.3205730 -0.320589E-06  0.121E-03    2.12      12.0  T
   5    -75.3205730 -0.150871E-07  0.701E-04    2.12      20.8  T
   6    -75.3205731 -0.705498E-08  0.191E-04    2.12      76.2  T
     SCC iter.                  ...        0 min,  0.039 sec
     gradient                   ...        0 min,  0.009 sec
 * total energy  :   -74.3129775 Eh     change       -0.2588744E-04 Eh
   gradient norm :     0.0022333 Eh/α   predicted    -0.1870712E-04 ( -27.74%)
   displ. norm   :     0.1783638 α      lambda       -0.2928091E-04
   maximum displ.:     0.1128467 α      in ANC's #1, #3, #5, ...

........................................................................
.............................. CYCLE   39 ..............................
........................................................................

 iter      E             dE          RMSdq      gap      omega  full diag
   1    -75.3207187 -0.753207E+02  0.398E-02    2.12       0.0  T
   2    -75.3207189 -0.191232E-06  0.235E-02    2.12       1.0  T
   3    -75.3207188  0.102575E-06  0.230E-03    2.12       6.3  T
   4    -75.3207190 -0.198780E-06  0.855E-04    2.12      17.1  T
   5    -75.3207190 -0.414174E-08  0.522E-04    2.12      28.0  T
     SCC iter.                  ...        0 min,  0.025 sec
     gradient                   ...        0 min,  0.009 sec
 * total energy  :   -74.3129991 Eh     change       -0.2164264E-04 Eh
   gradient norm :     0.0020179 Eh/α   predicted    -0.1511005E-04 ( -30.18%)
   displ. norm   :     0.1394644 α      lambda       -0.2200425E-04
   maximum displ.:     0.0907331 α      in ANC's #1, #3, #5, ...

........................................................................
.............................. CYCLE   40 ..............................
........................................................................

 iter      E             dE          RMSdq      gap      omega  full diag
   1    -75.3214436 -0.753214E+02  0.291E-02    2.12       0.0  T
   2    -75.3214437 -0.131555E-06  0.172E-02    2.12       1.0  T
   3    -75.3214437  0.274438E-07  0.163E-03    2.12       8.9  T
   4    -75.3214438 -0.847763E-07  0.610E-04    2.12      23.9  T
   5    -75.3214438 -0.131854E-08  0.349E-04    2.12      41.8  T
     SCC iter.                  ...        0 min,  0.014 sec
     gradient                   ...        0 min,  0.007 sec
 * total energy  :   -74.3130146 Eh     change       -0.1546958E-04 Eh
   gradient norm :     0.0013461 Eh/α   predicted    -0.1121682E-04 ( -27.49%)
   displ. norm   :     0.1844935 α      lambda       -0.1438619E-04
   maximum displ.:     0.1282301 α      in ANC's #1, #3, #5, ...

........................................................................
.............................. CYCLE   41 ..............................
........................................................................

 iter      E             dE          RMSdq      gap      omega  full diag
   1    -75.3219338 -0.753219E+02  0.385E-02    2.11       0.0  T
   2    -75.3219340 -0.179013E-06  0.228E-02    2.11       1.0  T
   3    -75.3219340 -0.690014E-08  0.154E-03    2.11       9.5  T
   4    -75.3219341 -0.815575E-07  0.734E-04    2.11      19.9  T
   5    -75.3219341 -0.200518E-08  0.382E-04    2.11      38.2  T
     SCC iter.                  ...        0 min,  0.013 sec
     gradient                   ...        0 min,  0.007 sec
 * total energy  :   -74.3130281 Eh     change       -0.1352497E-04 Eh
   gradient norm :     0.0011014 Eh/α   predicted    -0.7302419E-05 ( -46.01%)
   displ. norm   :     0.1221717 α      lambda       -0.1134933E-04
   maximum displ.:     0.0885343 α      in ANC's #1, #3, #8, ...

........................................................................
.............................. CYCLE   42 ..............................
........................................................................

 iter      E             dE          RMSdq      gap      omega  full diag
   1    -75.3221901 -0.753222E+02  0.265E-02    2.11       0.0  T
   2    -75.3221902 -0.101030E-06  0.157E-02    2.11       1.0  T
   3    -75.3221901  0.887469E-07  0.165E-03    2.11       8.9  T
   4    -75.3221903 -0.142695E-06  0.549E-04    2.11      26.6  T
   5    -75.3221903 -0.139366E-09  0.321E-04    2.11      45.5  T
     SCC iter.                  ...        0 min,  0.013 sec
     gradient                   ...        0 min,  0.007 sec
 * total energy  :   -74.3130402 Eh     change       -0.1210967E-04 Eh
   gradient norm :     0.0011838 Eh/α   predicted    -0.5713327E-05 ( -52.82%)
   displ. norm   :     0.1265127 α      lambda       -0.1280010E-04
   maximum displ.:     0.0885627 α      in ANC's #1, #3, #8, ...
 * RMSD in coord.:     0.6123087 α      energy gain  -0.7321978E-03 Eh

generating ANC from exact Hessian ...
Using Lindh-Hessian (1995)
 Shifting diagonal of input Hessian by   9.928045079949710E-003
 Lowest  eigenvalues of input Hessian
    0.000000    0.000000    0.000000    0.000000    0.000000    0.000000
    0.010000    0.010320    0.010458    0.010613    0.010975    0.011639
    0.012144    0.012258    0.012397    0.012886    0.013717    0.014971
 Highest eigenvalues
    1.939226    2.011807    2.015901    2.084372    2.119605    2.210376
 

........................................................................
.............................. CYCLE   43 ..............................
........................................................................

 iter      E             dE          RMSdq      gap      omega  full diag
   1    -75.3222236 -0.753222E+02  0.272E-02    2.11       0.0  T
   2    -75.3222237 -0.190261E-06  0.162E-02    2.11       1.0  T
   3    -75.3222235  0.202417E-06  0.224E-03    2.11       6.5  T
   4    -75.3222238 -0.261614E-06  0.623E-04    2.11      23.4  T
   5    -75.3222238 -0.668884E-08  0.341E-04    2.11      42.7  T
     SCC iter.                  ...        0 min,  0.013 sec
     gradient                   ...        0 min,  0.007 sec
 * total energy  :   -74.3130532 Eh     change       -0.1298179E-04 Eh
   gradient norm :     0.0011076 Eh/α   predicted     0.0000000E+00 (-100.00%)
   displ. norm   :     0.0242654 α      lambda       -0.4555060E-05
   maximum displ.:     0.0140161 α      in ANC's #1, #13, #4, ...

........................................................................
.............................. CYCLE   44 ..............................
........................................................................

 iter      E             dE          RMSdq      gap      omega  full diag
   1    -75.3218053 -0.753218E+02  0.598E-03    2.11       0.0  T
   2    -75.3218053 -0.294114E-07  0.355E-03    2.11       4.1  T
   3    -75.3218053  0.397886E-07  0.108E-03    2.11      13.5  T
   4    -75.3218053 -0.480232E-07  0.200E-04    2.11      73.0  T
   5    -75.3218053 -0.111348E-08  0.106E-04    2.11     137.0  T
     SCC iter.                  ...        0 min,  0.013 sec
     gradient                   ...        0 min,  0.005 sec
 * total energy  :   -74.3130589 Eh     change       -0.5673760E-05 Eh
   gradient norm :     0.0003947 Eh/α   predicted    -0.2436836E-05 ( -57.05%)
   displ. norm   :     0.0595127 α      lambda       -0.6987937E-05
   maximum displ.:     0.0340725 α      in ANC's #1, #4, #13, ...

........................................................................
.............................. CYCLE   45 ..............................
........................................................................

 iter      E             dE          RMSdq      gap      omega  full diag
   1    -75.3216048 -0.753216E+02  0.128E-02    2.11       0.0  T
   2    -75.3216049 -0.712610E-07  0.754E-03    2.11       1.9  T
   3    -75.3216048  0.111823E-06  0.177E-03    2.11       8.2  T
   4    -75.3216049 -0.136886E-06  0.281E-04    2.11      52.0  T
   5    -75.3216049 -0.126246E-08  0.154E-04    2.11      94.6  T
     SCC iter.                  ...        0 min,  0.013 sec
     gradient                   ...        0 min,  0.007 sec
 * total energy  :   -74.3130664 Eh     change       -0.7468695E-05 Eh
   gradient norm :     0.0007935 Eh/α   predicted    -0.3499955E-05 ( -53.14%)
   displ. norm   :     0.0611199 α      lambda       -0.4626883E-05
   maximum displ.:     0.0375066 α      in ANC's #1, #4, #9, ...

........................................................................
.............................. CYCLE   46 ..............................
........................................................................

 iter      E             dE          RMSdq      gap      omega  full diag
   1    -75.3216410 -0.753216E+02  0.133E-02    2.11       0.0  T
   2    -75.3216411 -0.290675E-07  0.783E-03    2.11       1.9  T
   3    -75.3216410  0.674278E-07  0.123E-03    2.11      11.9  T
   4    -75.3216411 -0.821555E-07  0.221E-04    2.11      66.0  T
   5    -75.3216411 -0.252044E-09  0.139E-04    2.11     104.9  T
     SCC iter.                  ...        0 min,  0.014 sec
     gradient                   ...        0 min,  0.005 sec
 * total energy  :   -74.3130718 Eh     change       -0.5455853E-05 Eh
   gradient norm :     0.0009158 Eh/α   predicted    -0.2343769E-05 ( -57.04%)
   displ. norm   :     0.0675726 α      lambda       -0.4916975E-05
   maximum displ.:     0.0426266 α      in ANC's #1, #4, #9, ...

........................................................................
.............................. CYCLE   47 ..............................
........................................................................

 iter      E             dE          RMSdq      gap      omega  full diag
   1    -75.3217252 -0.753217E+02  0.150E-02    2.11       0.0  T
   2    -75.3217252 -0.240268E-07  0.882E-03    2.11       1.7  T
   3    -75.3217252  0.372169E-07  0.940E-04    2.11      15.5  T
   4    -75.3217253 -0.492729E-07  0.205E-04    2.11      71.0  T
     SCC iter.                  ...        0 min,  0.011 sec
     gradient                   ...        0 min,  0.004 sec
 * total energy  :   -74.3130779 Eh     change       -0.6134414E-05 Eh
   gradient norm :     0.0006507 Eh/α   predicted    -0.2463882E-05 ( -59.84%)
   displ. norm   :     0.0864639 α      lambda       -0.6315358E-05
   maximum displ.:     0.0558624 α      in ANC's #1, #4, #9, ...

........................................................................
.............................. CYCLE   48 ..............................
........................................................................

 iter      E             dE          RMSdq      gap      omega  full diag
   1    -75.3218723 -0.753219E+02  0.197E-02    2.11       0.0  T
   2    -75.3218723 -0.465552E-07  0.116E-02    2.11       1.3  T
   3    -75.3218722  0.869939E-07  0.147E-03    2.11       9.9  T
   4    -75.3218723 -0.105607E-06  0.348E-04    2.11      41.9  T
   5    -75.3218723 -0.275178E-08  0.174E-04    2.11      84.0  T
     SCC iter.                  ...        0 min,  0.014 sec
     gradient                   ...        0 min,  0.004 sec
 * total energy  :   -74.3130859 Eh     change       -0.7942671E-05 Eh
   gradient norm :     0.0004103 Eh/α   predicted    -0.3169313E-05 ( -60.10%)
   displ. norm   :     0.1039069 α      lambda       -0.6791946E-05
   maximum displ.:     0.0683507 α      in ANC's #1, #4, #9, ...

........................................................................
.............................. CYCLE   49 ..............................
........................................................................

 iter      E             dE          RMSdq      gap      omega  full diag
   1    -75.3219096 -0.753219E+02  0.234E-02    2.11       0.0  T
   2    -75.3219097 -0.552431E-07  0.138E-02    2.11       1.1  T
   3    -75.3219096  0.917030E-07  0.152E-03    2.11       9.6  T
   4    -75.3219097 -0.116626E-06  0.385E-04    2.11      37.9  T
   5    -75.3219097 -0.245446E-08  0.213E-04    2.11      68.6  T
     SCC iter.                  ...        0 min,  0.032 sec
     gradient                   ...        0 min,  0.004 sec
 * total energy  :   -74.3130943 Eh     change       -0.8422554E-05 Eh
   gradient norm :     0.0005678 Eh/α   predicted    -0.3414528E-05 ( -59.46%)
   displ. norm   :     0.1072343 α      lambda       -0.6054872E-05
   maximum displ.:     0.0721544 α      in ANC's #1, #4, #9, ...

........................................................................
.............................. CYCLE   50 ..............................
........................................................................

 iter      E             dE          RMSdq      gap      omega  full diag
   1    -75.3218347 -0.753218E+02  0.239E-02    2.11       0.0  T
   2    -75.3218347 -0.474860E-07  0.141E-02    2.11       1.0  T
   3    -75.3218346  0.798260E-07  0.142E-03    2.11      10.3  T
   4    -75.3218347 -0.106383E-06  0.372E-04    2.11      39.3  T
   5    -75.3218347 -0.594852E-09  0.231E-04    2.11      63.1  T
     SCC iter.                  ...        0 min,  0.021 sec
     gradient                   ...        0 min,  0.005 sec
 * total energy  :   -74.3131020 Eh     change       -0.7673887E-05 Eh
   gradient norm :     0.0006206 Eh/α   predicted    -0.3050000E-05 ( -60.25%)
   displ. norm   :     0.1038921 α      lambda       -0.5552024E-05
   maximum displ.:     0.0714682 α      in ANC's #1, #4, #16, ...

........................................................................
.............................. CYCLE   51 ..............................
........................................................................

 iter      E             dE          RMSdq      gap      omega  full diag
   1    -75.3218031 -0.753218E+02  0.228E-02    2.11       0.0  T
   2    -75.3218032 -0.457768E-07  0.135E-02    2.11       1.1  T
   3    -75.3218031  0.640590E-07  0.133E-03    2.11      10.9  T
   4    -75.3218032 -0.887399E-07  0.385E-04    2.11      37.9  T
   5    -75.3218032 -0.450115E-09  0.235E-04    2.11      62.2  T
     SCC iter.                  ...        0 min,  0.037 sec
     gradient                   ...        0 min,  0.004 sec
 * total energy  :   -74.3131093 Eh     change       -0.7334192E-05 Eh
   gradient norm :     0.0005104 Eh/α   predicted    -0.2793598E-05 ( -61.91%)
   displ. norm   :     0.1099497 α      lambda       -0.5978279E-05
   maximum displ.:     0.0765789 α      in ANC's #1, #4, #11, ...

........................................................................
.............................. CYCLE   52 ..............................
........................................................................

 iter      E             dE          RMSdq      gap      omega  full diag
   1    -75.3217410 -0.753217E+02  0.236E-02    2.11       0.0  T
   2    -75.3217411 -0.576097E-07  0.140E-02    2.11       1.0  T
   3    -75.3217410  0.341970E-07  0.119E-03    2.11      12.2  T
   4    -75.3217411 -0.614784E-07  0.421E-04    2.11      34.6  T
   5    -75.3217411 -0.499412E-09  0.226E-04    2.11      64.4  T
     SCC iter.                  ...        0 min,  0.018 sec
     gradient                   ...        0 min,  0.007 sec
 * total energy  :   -74.3131173 Eh     change       -0.8005059E-05 Eh
   gradient norm :     0.0003534 Eh/α   predicted    -0.3005715E-05 ( -62.45%)
   displ. norm   :     0.1302767 α      lambda       -0.6905390E-05
   maximum displ.:     0.0911907 α      in ANC's #1, #4, #5, ...

........................................................................
.............................. CYCLE   53 ..............................
........................................................................

 iter      E             dE          RMSdq      gap      omega  full diag
   1    -75.3216701 -0.753217E+02  0.277E-02    2.11       0.0  T
   2    -75.3216702 -0.799207E-07  0.164E-02    2.11       1.0  T
   3    -75.3216702  0.111125E-07  0.117E-03    2.11      12.5  T
   4    -75.3216702 -0.475511E-07  0.503E-04    2.11      29.0  T
   5    -75.3216702 -0.128549E-08  0.214E-04    2.11      68.3  T
     SCC iter.                  ...        0 min,  0.040 sec
     gradient                   ...        0 min,  0.016 sec
 * total energy  :   -74.3131264 Eh     change       -0.9071320E-05 Eh
   gradient norm :     0.0003148 Eh/α   predicted    -0.3479543E-05 ( -61.64%)
   displ. norm   :     0.1409669 α      lambda       -0.6717386E-05
   maximum displ.:     0.0993546 α      in ANC's #1, #4, #5, ...

........................................................................
.............................. CYCLE   54 ..............................
........................................................................

 iter      E             dE          RMSdq      gap      omega  full diag
   1    -75.3216679 -0.753217E+02  0.296E-02    2.11       0.0  T
   2    -75.3216680 -0.853185E-07  0.175E-02    2.11       1.0  T
   3    -75.3216680 -0.122716E-07  0.103E-03    2.11      14.2  T
   4    -75.3216681 -0.271554E-07  0.522E-04    2.11      28.0  T
   5    -75.3216681 -0.172521E-08  0.185E-04    2.11      78.7  T
     SCC iter.                  ...        0 min,  0.018 sec
     gradient                   ...        0 min,  0.006 sec
 * total energy  :   -74.3131350 Eh     change       -0.8606023E-05 Eh
   gradient norm :     0.0003711 Eh/α   predicted    -0.3389222E-05 ( -60.62%)
   displ. norm   :     0.1293222 α      lambda       -0.5353425E-05
   maximum displ.:     0.0921325 α      in ANC's #1, #4, #5, ...

........................................................................
.............................. CYCLE   55 ..............................
........................................................................

 iter      E             dE          RMSdq      gap      omega  full diag
   1    -75.3216680 -0.753217E+02  0.272E-02    2.11       0.0  T
   2    -75.3216680 -0.643846E-07  0.160E-02    2.11       1.0  T
   3    -75.3216680 -0.169365E-07  0.827E-04    2.11      17.6  T
   4    -75.3216680 -0.122736E-07  0.468E-04    2.11      31.2  T
     SCC iter.                  ...        0 min,  0.010 sec
     gradient                   ...        0 min,  0.006 sec
 * total energy  :   -74.3131419 Eh     change       -0.6900281E-05 Eh
   gradient norm :     0.0003609 Eh/α   predicted    -0.2700172E-05 ( -60.87%)
   displ. norm   :     0.1016512 α      lambda       -0.4075177E-05
   maximum displ.:     0.0733114 α      in ANC's #1, #4, #5, ...

........................................................................
.............................. CYCLE   56 ..............................
........................................................................

 iter      E             dE          RMSdq      gap      omega  full diag
   1    -75.3217765 -0.753218E+02  0.215E-02    2.11       0.0  T
   2    -75.3217766 -0.364073E-07  0.127E-02    2.11       1.2  T
   3    -75.3217766  0.212391E-08  0.799E-04    2.11      18.3  T
   4    -75.3217766 -0.193759E-07  0.351E-04    2.11      41.6  T
     SCC iter.                  ...        0 min,  0.010 sec
     gradient                   ...        0 min,  0.006 sec
 * total energy  :   -74.3131473 Eh     change       -0.5416077E-05 Eh
   gradient norm :     0.0002857 Eh/α   predicted    -0.2048795E-05 ( -62.17%)
   displ. norm   :     0.0945630 α      lambda       -0.3901697E-05
   maximum displ.:     0.0679280 α      in ANC's #1, #4, #5, ...

........................................................................
.............................. CYCLE   57 ..............................
........................................................................

 iter      E             dE          RMSdq      gap      omega  full diag
   1    -75.3218210 -0.753218E+02  0.208E-02    2.11       0.0  T
   2    -75.3218210 -0.297739E-07  0.122E-02    2.11       1.2  T
   3    -75.3218210 -0.842353E-08  0.486E-04    2.11      30.0  T
   4    -75.3218210 -0.445013E-08  0.286E-04    2.11      51.1  T
     SCC iter.                  ...        0 min,  0.010 sec
     gradient                   ...        0 min,  0.006 sec
 * total energy  :   -74.3131527 Eh     change       -0.5352153E-05 Eh
   gradient norm :     0.0002470 Eh/α   predicted    -0.1963534E-05 ( -63.31%)
   displ. norm   :     0.1119165 α      lambda       -0.4760285E-05
   maximum displ.:     0.0796559 α      in ANC's #1, #4, #3, ...

........................................................................
.............................. CYCLE   58 ..............................
........................................................................

 iter      E             dE          RMSdq      gap      omega  full diag
   1    -75.3218015 -0.753218E+02  0.252E-02    2.11       0.0  T
   2    -75.3218015 -0.444418E-07  0.148E-02    2.11       1.0  T
   3    -75.3218015 -0.450915E-08  0.694E-04    2.11      21.0  T
   4    -75.3218015 -0.145551E-07  0.322E-04    2.11      45.2  T
     SCC iter.                  ...        0 min,  0.010 sec
     gradient                   ...        0 min,  0.006 sec
 * total energy  :   -74.3131591 Eh     change       -0.6460571E-05 Eh
   gradient norm :     0.0002509 Eh/α   predicted    -0.2394235E-05 ( -62.94%)
   displ. norm   :     0.1351684 α      lambda       -0.5578841E-05
   maximum displ.:     0.0955070 α      in ANC's #1, #4, #3, ...

........................................................................
.............................. CYCLE   59 ..............................
........................................................................

 iter      E             dE          RMSdq      gap      omega  full diag
   1    -75.3217876 -0.753218E+02  0.309E-02    2.11       0.0  T
   2    -75.3217877 -0.635525E-07  0.182E-02    2.11       1.0  T
   3    -75.3217877 -0.157379E-07  0.681E-04    2.11      21.4  T
   4    -75.3217877 -0.124007E-07  0.352E-04    2.11      41.4  T
     SCC iter.                  ...        0 min,  0.010 sec
     gradient                   ...        0 min,  0.006 sec
 * total energy  :   -74.3131666 Eh     change       -0.7463623E-05 Eh
   gradient norm :     0.0003051 Eh/α   predicted    -0.2812912E-05 ( -62.31%)
   displ. norm   :     0.1570837 α      lambda       -0.6077316E-05
   maximum displ.:     0.1108399 α      in ANC's #1, #4, #3, ...

........................................................................
.............................. CYCLE   60 ..............................
........................................................................

 iter      E             dE          RMSdq      gap      omega  full diag
   1    -75.3216910 -0.753217E+02  0.360E-02    2.10       0.0  T
   2    -75.3216911 -0.907262E-07  0.211E-02    2.10       1.0  T
   3    -75.3216911 -0.147006E-07  0.891E-04    2.11      16.4  T
   4    -75.3216912 -0.257278E-07  0.422E-04    2.10      34.6  T
     SCC iter.                  ...        0 min,  0.010 sec
     gradient                   ...        0 min,  0.006 sec
 * total energy  :   -74.3131746 Eh     change       -0.8031792E-05 Eh
   gradient norm :     0.0003586 Eh/α   predicted    -0.3072766E-05 ( -61.74%)
   displ. norm   :     0.1712567 α      lambda       -0.6264596E-05
   maximum displ.:     0.1212127 α      in ANC's #1, #4, #3, ...

........................................................................
.............................. CYCLE   61 ..............................
........................................................................

 iter      E             dE          RMSdq      gap      omega  full diag
   1    -75.3216440 -0.753216E+02  0.392E-02    2.10       0.0  T
   2    -75.3216441 -0.111063E-06  0.230E-02    2.10       1.0  T
   3    -75.3216441 -0.191010E-07  0.910E-04    2.10      16.0  T
[...]
C10-C9-C8-C3=181.47           C10-C9-C8-C17=359.97          H32-C9-C8-C3=  1.36           H32-C9-C8-C17=179.87          
C11-C10-C9-C8=  0.22          C11-C10-C9-H32=180.33         H33-C10-C9-C8=180.23          H33-C10-C9-H32=  0.34         
           -------------------------------------------------
          |                Final Singlepoint                |
           -------------------------------------------------

          ...................................................
          :                      SETUP                      :
          :.................................................:
          :  # basis functions                 122          :
          :  # atomic orbitals                 122          :
          :  # shells                           72          :
          :  # electrons                       132          :
          :  max. iterations                   250          :
          :  Hamiltonian                  GFN2-xTB          :
          :  restarted?                      false          :
          :  GBSA solvation                  false          :
          :  PC potential                    false          :
          :  electronic temp.          300.0000000     K    :
          :  accuracy                    1.0000000          :
          :  -> integral cutoff          0.2500000E+02      :
          :  -> integral neglect         0.1000000E-07      :
          :  -> SCF convergence          0.1000000E-05 Eh   :
          :  -> wf. convergence          0.1000000E-03 e    :
          :  Broyden damping             0.4000000          :
          :  net charge                          0          :
          :  unpaired electrons                  0          :
          ...................................................

 iter      E             dE          RMSdq      gap      omega  full diag
   1    -75.3218100 -0.753218E+02  0.820E-05    2.10       0.0  T
   2    -75.3218100 -0.596287E-10  0.599E-05    2.10     243.4  T
   3    -75.3218100 -0.109054E-09  0.312E-05    2.10     466.8  T

   *** convergence criteria satisfied after 3 iterations ***

         #    Occupation            Energy/Eh            Energy/eV
      -------------------------------------------------------------
         1        2.0000           -0.7210635             -19.6211
       ...           ...                  ...                  ...
        60        2.0000           -0.4209624             -11.4550
        61        2.0000           -0.4183252             -11.3832
        62        2.0000           -0.4112347             -11.1903
        63        2.0000           -0.4065885             -11.0638
        64        2.0000           -0.4013902             -10.9224
        65        2.0000           -0.3914623             -10.6522
        66        2.0000           -0.3748175             -10.1993 (HOMO)
        67                         -0.2975783              -8.0975 (LUMO)
        68                         -0.2352409              -6.4012
        69                         -0.2311881              -6.2909
        70                         -0.2288517              -6.2274
        71                         -0.2159704              -5.8769
       ...                                ...                  ...
       122                          0.6997159              19.0402
      -------------------------------------------------------------
                  HL-Gap            0.0772391 Eh            2.1018 eV
             Fermi-level           -0.3361979 Eh           -9.1484 eV

 SCC (total)                   0 d,  0 h,  0 min,  0.017 sec
 SCC setup                      ...        0 min,  0.000 sec (  0.937%)
 Dispersion                     ...        0 min,  0.000 sec (  1.637%)
 classical contributions        ...        0 min,  0.000 sec (  0.460%)
 integral evaluation            ...        0 min,  0.001 sec (  6.765%)
 iterations                     ...        0 min,  0.009 sec ( 51.971%)
 molecular gradient             ...        0 min,  0.006 sec ( 37.175%)
 printout                       ...        0 min,  0.000 sec (  0.902%)

         :::::::::::::::::::::::::::::::::::::::::::::::::::::
         ::                     SUMMARY                     ::
         :::::::::::::::::::::::::::::::::::::::::::::::::::::
         :: total energy             -74.313229044544 Eh    ::
         :: gradient norm              0.000350576805 Eh/a0 ::
         :: HOMO-LUMO gap              2.101784157427 eV    ::
         ::.................................................::
         :: SCC energy               -75.321312283200 Eh    ::
         :: -> isotropic ES            0.102520332119 Eh    ::
         :: -> anisotropic ES          0.002840129276 Eh    ::
         :: -> anisotropic XC          0.020630852769 Eh    ::
         :: -> dispersion             -0.048234870132 Eh    ::
         :: repulsion energy           1.008083238656 Eh    ::
         :: add. restraining           0.000000000000 Eh    ::
         :: total charge              -0.000000000000 e     ::
         :::::::::::::::::::::::::::::::::::::::::::::::::::::

           -------------------------------------------------
          |                Property Printout                |
           -------------------------------------------------

    * Orbital Energies and Occupations

         #    Occupation            Energy/Eh            Energy/eV
      -------------------------------------------------------------
         1        2.0000           -0.7210635             -19.6211
       ...           ...                  ...                  ...
        54        2.0000           -0.4497137             -12.2373
        55        2.0000           -0.4418305             -12.0228
        56        2.0000           -0.4390416             -11.9469
        57        2.0000           -0.4309746             -11.7274
        58        2.0000           -0.4282997             -11.6546
        59        2.0000           -0.4239517             -11.5363
        60        2.0000           -0.4209624             -11.4550
        61        2.0000           -0.4183252             -11.3832
        62        2.0000           -0.4112347             -11.1903
        63        2.0000           -0.4065885             -11.0638
        64        2.0000           -0.4013902             -10.9224
        65        2.0000           -0.3914623             -10.6522
        66        2.0000           -0.3748175             -10.1993 (HOMO)
        67                         -0.2975783              -8.0975 (LUMO)
        68                         -0.2352409              -6.4012
        69                         -0.2311881              -6.2909
        70                         -0.2288517              -6.2274
        71                         -0.2159704              -5.8769
        72                         -0.1647217              -4.4823
        73                         -0.0976811              -2.6580
        74                         -0.0899137              -2.4467
        75                         -0.0050296              -0.1369
        76                          0.0099034               0.2695
        77                          0.0315844               0.8595
       ...                                ...                  ...
       122                          0.6997159              19.0402
      -------------------------------------------------------------
                  HL-Gap            0.0772391 Eh            2.1018 eV
             Fermi-level           -0.3361979 Eh           -9.1484 eV

     #   Z          covCN         q      C6AA      α(0)
     1   8 O        0.857    -0.349    20.680     6.097
     2   6 C        2.835     0.211    23.535     7.950
     3   6 C        3.707     0.251    16.865     5.870
     4   8 O        1.701    -0.317    19.287     5.929
     5   6 C        3.647     0.044    20.151     6.450
     6   8 O        1.700    -0.335    19.622     5.981
     7   6 C        3.647     0.045    20.143     6.449
     8   6 C        2.986    -0.022    28.544     8.764
     9   6 C        2.924    -0.034    28.843     8.807
    10   6 C        2.917    -0.067    29.660     8.931
    11   6 C        2.861     0.143    24.874     8.175
    12   8 O        1.706    -0.272    18.518     5.810
    13   6 C        3.690     0.072    19.558     6.329
    14   6 C        3.671     0.078    19.512     6.331
    15   8 O        1.656    -0.441    21.665     6.283
    16   6 C        2.922    -0.055    29.356     8.885
    17   6 C        2.920    -0.031    28.782     8.798
    18   6 C        2.893    -0.066    29.639     8.926
    19   6 C        2.907    -0.010    28.278     8.720
    20   6 C        2.970     0.016    27.641     8.624
    21   6 C        2.923    -0.028    28.703     8.786
    22   6 C        2.917    -0.027    28.681     8.782
    23   6 C        2.920    -0.025    28.618     8.773
    24   6 C        2.916    -0.027    28.682     8.782
    25   6 C        2.928    -0.029    28.715     8.788
    26   1 H        0.924     0.040     2.449     2.447
    27   1 H        0.925     0.060     2.196     2.317
    28   1 H        0.924     0.032     2.558     2.501
    29   1 H        0.925     0.057     2.230     2.335
    30   1 H        0.924     0.048     2.347     2.396
    31   1 H        0.924     0.027     2.625     2.534
    32   1 H        0.926     0.057     2.233     2.337
    33   1 H        0.926     0.046     2.375     2.410
    34   1 H        0.924     0.051     2.310     2.377
    35   1 H        0.924     0.068     2.104     2.268
    36   1 H        0.923     0.028     2.614     2.529
    37   1 H        0.923     0.030     2.586     2.515
    38   1 H        0.805     0.296     0.733     1.345
    39   1 H        0.926     0.054     2.266     2.354
    40   1 H        0.926     0.058     2.227     2.334
    41   1 H        0.926     0.056     2.241     2.341
    42   1 H        0.925     0.070     2.089     2.260
    43   1 H        0.926     0.041     2.431     2.438
    44   1 H        0.926     0.037     2.484     2.465
    45   1 H        0.926     0.038     2.481     2.463
    46   1 H        0.926     0.037     2.482     2.464
    47   1 H        0.926     0.041     2.430     2.438

 Mol. C6AA /au·bohr⁶  :      24531.466883
 Mol. C8AA /au·bohr⁸  :     577285.980945
 Mol. α(0) /au        :        243.887141


Wiberg/Mayer (AO) data.
largest (>0.10) Wiberg bond orders for each atom

 ---------------------------------------------------------------------------
     #   Z sym  total        # sym  WBO       # sym  WBO       # sym  WBO
 ---------------------------------------------------------------------------
     1   8 O    2.071 --     2 C    1.809
     2   6 C    3.927 --     1 O    1.809    18 C    1.073     3 C    0.902
     3   6 C    3.925 --     4 O    0.976     6 O    0.960     8 C    0.942
                             2 C    0.902
     4   8 O    2.093 --     5 C    0.982     3 C    0.976
     5   6 C    3.946 --     4 O    0.982    27 H    0.980    26 H    0.980
                            28 H    0.978
     6   8 O    2.078 --     7 C    0.982     3 C    0.960
     7   6 C    3.946 --     6 O    0.982    29 H    0.981    30 H    0.979
                            31 H    0.977
     8   6 C    3.980 --     9 C    1.407    17 C    1.391     3 C    0.942
     9   6 C    3.989 --    10 C    1.448     8 C    1.407    32 H    0.967
                            16 C    0.107
    10   6 C    3.987 --     9 C    1.448    11 C    1.370    33 H    0.963
                            17 C    0.100
    11   6 C    3.930 --    10 C    1.370    16 C    1.348    12 O    1.061
    12   8 O    2.233 --    11 C    1.061    13 C    0.977
    13   6 C    3.944 --    14 C    0.988    12 O    0.977    35 H    0.968
                            34 H    0.964
    14   6 C    3.956 --    15 O    1.001    13 C    0.988    37 H    0.972
                            36 H    0.968
    15   8 O    1.950 --    14 C    1.001    38 H    0.899
    16   6 C    3.985 --    17 C    1.471    11 C    1.348    39 H    0.967
                             9 C    0.107
    17   6 C    3.989 --    16 C    1.471     8 C    1.391    40 H    0.965
                            10 C    0.100
    18   6 C    3.988 --    19 C    1.748     2 C    1.073    41 H    0.960
    19   6 C    3.979 --    18 C    1.748    20 C    1.122    42 H    0.957
    20   6 C    3.990 --    25 C    1.361    21 C    1.358    19 C    1.122
    21   6 C    3.990 --    22 C    1.467    20 C    1.358    43 H    0.966
                            24 C    0.104
    22   6 C    3.992 --    21 C    1.467    23 C    1.424    44 H    0.970
                            25 C    0.103
    23   6 C    3.980 --    24 C    1.430    22 C    1.424    45 H    0.971
    24   6 C    3.992 --    25 C    1.461    23 C    1.430    46 H    0.970
                            21 C    0.104
    25   6 C    3.989 --    24 C    1.461    20 C    1.361    47 H    0.968
                            22 C    0.103
    26   1 H    0.998 --     5 C    0.980
    27   1 H    0.996 --     5 C    0.980
    28   1 H    0.999 --     5 C    0.978
    29   1 H    0.996 --     7 C    0.981
    30   1 H    0.998 --     7 C    0.979
    31   1 H    0.999 --     7 C    0.977
    32   1 H    0.997 --     9 C    0.967
    33   1 H    0.998 --    10 C    0.963
    34   1 H    0.997 --    13 C    0.964
    35   1 H    0.995 --    13 C    0.968
    36   1 H    0.999 --    14 C    0.968
    37   1 H    0.999 --    14 C    0.972
    38   1 H    0.912 --    15 O    0.899
    39   1 H    0.996 --    16 C    0.967
    40   1 H    0.996 --    17 C    0.965
    41   1 H    0.997 --    18 C    0.960
    42   1 H    0.995 --    19 C    0.957
    43   1 H    0.998 --    21 C    0.966
    44   1 H    0.998 --    22 C    0.970
    45   1 H    0.998 --    23 C    0.971
    46   1 H    0.998 --    24 C    0.970
    47   1 H    0.998 --    25 C    0.968
 ---------------------------------------------------------------------------

Topologies differ in total number of bonds
Writing topology from bond orders to xtbtopo.mol

molecular dipole:
                 x           y           z       tot (Debye)
 q only:        0.638       0.890       0.939
   full:        0.778       0.983       0.952       4.002
molecular quadrupole (traceless):
                xx          xy          yy          xz          yz          zz
 q only:        4.240       3.463      11.486       4.118      -4.361     -15.726
  q+dip:       -1.565       5.302      14.123       5.768      -4.995     -12.557
   full:        0.783       3.159      16.114       5.266      -4.975     -16.897

           -------------------------------------------------
          |                Geometry Summary                 |
           -------------------------------------------------

      molecular mass/u    :      342.3864391
   center of mass at/Å    :       -0.0221622      -0.0117201      -0.1293598
  moments of inertia/u·Å² :        0.2243500E+04   0.3893698E+04   0.5311548E+04
rotational constants/cm⁻¹ :        0.7513988E-02   0.4329466E-02   0.3173770E-02

 * 44 selected distances

     #   Z          #   Z                                           value/Å
     1   8 O        2   6 C                                       1.2093076
     3   6 C        4   8 O                                       1.4019454
     4   8 O        5   6 C                                       1.4130241
     3   6 C        6   8 O                                       1.4119616
     6   8 O        7   6 C                                       1.4137974
     8   6 C        9   6 C                                       1.3878699
     9   6 C       10   6 C                                       1.3828213
    10   6 C       11   6 C                                       1.3917811
    11   6 C       12   8 O                                       1.3631746
    12   8 O       13   6 C                                       1.4075803
    13   6 C       14   6 C                                       1.5329013 (max)
    14   6 C       15   8 O                                       1.4085205
    11   6 C       16   6 C                                       1.3964798
     8   6 C       17   6 C                                       1.3888882
    16   6 C       17   6 C                                       1.3782007
    18   6 C       19   6 C                                       1.3421525
    20   6 C       21   6 C                                       1.3983310
    21   6 C       22   6 C                                       1.3805316
    22   6 C       23   6 C                                       1.3866120
    23   6 C       24   6 C                                       1.3856939
    20   6 C       25   6 C                                       1.3987171
    24   6 C       25   6 C                                       1.3809333
     5   6 C       26   1 H                                       1.0941922
     5   6 C       27   1 H                                       1.0878988
     5   6 C       28   1 H                                       1.0947865
     7   6 C       29   1 H                                       1.0882919
     7   6 C       30   1 H                                       1.0928788
     7   6 C       31   1 H                                       1.0957493
     9   6 C       32   1 H                                       1.0800388
    10   6 C       33   1 H                                       1.0782704
    13   6 C       34   1 H                                       1.0953349
    13   6 C       35   1 H                                       1.0926290
    14   6 C       36   1 H                                       1.0994848
    14   6 C       37   1 H                                       1.0988479
    15   8 O       38   1 H                                       0.9627745 (min)
    16   6 C       39   1 H                                       1.0784741
    17   6 C       40   1 H                                       1.0780341
    18   6 C       41   1 H                                       1.0784698
    19   6 C       42   1 H                                       1.0844675
    21   6 C       43   1 H                                       1.0787176
    22   6 C       44   1 H                                       1.0800451
    23   6 C       45   1 H                                       1.0798128
    24   6 C       46   1 H                                       1.0801930
    25   6 C       47   1 H                                       1.0807742

 * 4 distinct bonds (by element types)

   Z      Z             #   av. dist./Å        max./Å        min./Å
   1 H    6 C          21     1.0865425     1.0994848     1.0780341
   6 C    6 C          14     1.3951367     1.5329013     1.3421525
   1 H    8 O           1     0.9627745     0.9627745     0.9627745
   6 C    8 O           8     1.3786639     1.4137974     1.2093076


optimized geometry written to: xtbopt.xyz


           -------------------------------------------------
          | TOTAL ENERGY              -74.313229044544 Eh   |
          | GRADIENT NORM               0.000350576805 Eh/α |
          | HOMO-LUMO GAP               2.101784157427 eV   |
           -------------------------------------------------

------------------------------------------------------------------------
 * finished run on 2025/12/01 at 14:23:10.685     
------------------------------------------------------------------------
 total:
 * wall-time:     0 d,  0 h,  0 min,  2.020 sec
 *  cpu-time:     0 d,  0 h,  0 min, 46.207 sec
 * ratio c/w:    22.878 speedup
 SCF:
 * wall-time:     0 d,  0 h,  0 min,  0.057 sec
 *  cpu-time:     0 d,  0 h,  0 min,  1.299 sec
 * ratio c/w:    22.778 speedup
 ANC optimizer:
 * wall-time:     0 d,  0 h,  0 min,  1.951 sec
 *  cpu-time:     0 d,  0 h,  0 min, 44.675 sec
 * ratio c/w:    22.899 speedup

normal termination of xtb
