      -----------------------------------------------------------      
     |                   =====================                   |     
     |                           x T B                           |     
     |                   =====================                   |     
     |                         S. Grimme                         |     
     |          Mulliken Center for Theoretical Chemistry        |     
     |                    University of Bonn                     |     
      -----------------------------------------------------------      

   * xtb version 6.7.1 (edcfbbe) compiled by 'albert@albert-system' on 2024-07-22

   xtb is free software: you can redistribute it and/or modify it under
   the terms of the GNU Lesser General Public License as published by
   the Free Software Foundation, either version 3 of the License, or
   (at your option) any later version.
   
   xtb is distributed in the hope that it will be useful,
   but WITHOUT ANY WARRANTY; without even the implied warranty of
   MERCHANTABILITY or FITNESS FOR A PARTICULAR PURPOSE.  See the
   GNU Lesser General Public License for more details.
   
   Cite this work as:
   * C. Bannwarth, E. Caldeweyher, S. Ehlert, A. Hansen, P. Pracht,
     J. Seibert, S. Spicher, S. Grimme, WIREs Comput. Mol. Sci., 2020, 11,
     e01493. DOI: 10.1002/wcms.1493
   
   for GFN2-xTB:
   * C. Bannwarth, S. Ehlert and S. Grimme., J. Chem. Theory Comput., 2019,
     15, 1652-1671. DOI: 10.1021/acs.jctc.8b01176
   for GFN1-xTB:
   * S. Grimme, C. Bannwarth, P. Shushkov, J. Chem. Theory Comput., 2017,
     13, 1989-2009. DOI: 10.1021/acs.jctc.7b00118
   for GFN0-xTB:
   * P. Pracht, E. Caldeweyher, S. Ehlert, S. Grimme, ChemRxiv, 2019, preprint.
     DOI: 10.26434/chemrxiv.8326202.v1
   for GFN-FF:
   * S. Spicher and S. Grimme, Angew. Chem. Int. Ed., 2020, 59, 15665-15673.
     DOI: 10.1002/anie.202004239
   
   for ALPB and GBSA implicit solvation:
   * S. Ehlert, M. Stahn, S. Spicher, S. Grimme, J. Chem. Theory Comput.,
     2021, 17, 4250-4261. DOI: 10.1021/acs.jctc.1c00471
   
   for ddCOSMO and CPCM-X implicit solvation:
   * M. Stahn, S. Ehlert, S. Grimme, J. Phys. Chem. A,
     2023, XX, XXXX-XXXX. DOI: 10.1021/acs.jpca.3c04382
   
   for DFT-D4:
   * E. Caldeweyher, C. Bannwarth and S. Grimme, J. Chem. Phys., 2017,
     147, 034112. DOI: 10.1063/1.4993215
   * E. Caldeweyher, S. Ehlert, A. Hansen, H. Neugebauer, S. Spicher,
     C. Bannwarth and S. Grimme, J. Chem. Phys., 2019, 150, 154122.
     DOI: 10.1063/1.5090222
   * E. Caldeweyher, J.-M. Mewes, S. Ehlert and S. Grimme, Phys. Chem. Chem. Phys.
     2020, 22, 8499-8512. DOI: 10.1039/D0CP00502A
   
   for sTDA-xTB:
   * S. Grimme and C. Bannwarth, J. Chem. Phys., 2016, 145, 054103.
     DOI: 10.1063/1.4959605
   
   in the mass-spec context:
   * V. Asgeirsson, C. Bauer and S. Grimme, Chem. Sci., 2017, 8, 4879.
     DOI: 10.1039/c7sc00601b
   * J. Koopman and S. Grimme, ACS Omega 2019, 4, 12, 15120-15133.
     DOI: 10.1021/acsomega.9b02011
   
   for metadynamics refer to:
   * S. Grimme, J. Chem. Theory Comput., 2019, 155, 2847-2862
     DOI: 10.1021/acs.jctc.9b00143
   
   for SPH calculations refer to:
   * S. Spicher and S. Grimme, J. Chem. Theory Comput., 2021, 17, 1701-1714
     DOI: 10.1021/acs.jctc.0c01306
   
   for ONIOM refer to:
   * C. Plett, A. Katbashev, S. Ehlert, S. Grimme, M. Bursch,
     Phys. Chem. Chem. Phys., 2023, 25, 17860-17868. DOI: 10.1039/D3CP02178E
   
   for DIPRO refer to:
   * J. Kohn, N. Gildemeister, S. Grimme, D. Fazzi, A. Hansen,
     J. Chem. Phys., 2023, just accepted.
   
   for PTB refer to:
   * S. Grimme, M. Mueller, A. Hansen, J. Chem. Phys., 2023, 158, 124111.
     DOI: 10.1063/5.0137838
   
   with help from (in alphabetical order)
   P. Atkinson, C. Bannwarth, F. Bohle, G. Brandenburg, E. Caldeweyher
   M. Checinski, S. Dohm, S. Ehlert, S. Ehrlich, I. Gerasimov, C. Hölzer
   A. Katbashev, J. Kohn, J. Koopman, C. Lavigne, S. Lehtola, F. März, M. Müller,
   F. Musil, H. Neugebauer, J. Pisarek, C. Plett, P. Pracht, F. Pultar,
   J. Seibert, P. Shushkov, S. Spicher, M. Stahn, M. Steiner, T. Strunk,
   J. Stückrath, T. Rose, and J. Unsleber
   
 * started run on 2025/12/01 at 14:23:14.548     
   ID    Z sym.   atoms
    1    6 C      1-3, 6-16, 18, 20-22
    2    8 O      4, 5, 17, 19
    3    1 H      23-46

           -------------------------------------------------
          |                Calculation Setup                |
           -------------------------------------------------

          program call               : xtb pipeline_data/3_conformer_xyz/acrylates/rdkit/VEBCLRKUSAGCDF-RWLZTCESSA-N_conf151.xyz --opt --gfn 2-xTB --iterations 250
          coordinate file            : pipeline_data/3_conformer_xyz/acrylates/rdkit/VEBCLRKUSAGCDF-RWLZTCESSA-N_conf151.xyz
          omp threads                :                    24

########################################################################
[WARNING] Please study the warnings concerning your input carefully
-1- readin_getIntValue: could not parse '2-xTB'
########################################################################

           -------------------------------------------------
          |                 G F N 2 - x T B                 |
           -------------------------------------------------

        Reference                      10.1021/acs.jctc.8b01176
      * Hamiltonian:
        H0-scaling (s, p, d)           1.850000    2.230000    2.230000
        zeta-weighting                 0.500000
      * Dispersion:
        s8                             2.700000
        a1                             0.520000
        a2                             5.000000
        s9                             5.000000
      * Repulsion:
        kExp                           1.500000    1.000000
        rExp                           1.000000
      * Coulomb:
        alpha                          2.000000
        third order                    shell-resolved
        anisotropic                    true
        a3                             3.000000
        a5                             4.000000
        cn-shift                       1.200000
        cn-exp                         4.000000
        max-rad                        5.000000

q/qsh data taken from xtbrestart
CAMM data taken from xtbrestart

          ...................................................
          :                      SETUP                      :
          :.................................................:
          :  # basis functions                 112          :
          :  # atomic orbitals                 112          :
          :  # shells                           68          :
          :  # electrons                       120          :
          :  max. iterations                   250          :
          :  Hamiltonian                  GFN2-xTB          :
          :  restarted?                       true          :
          :  GBSA solvation                  false          :
          :  PC potential                    false          :
          :  electronic temp.          300.0000000     K    :
          :  accuracy                    1.0000000          :
          :  -> integral cutoff          0.2500000E+02      :
          :  -> integral neglect         0.1000000E-07      :
          :  -> SCF convergence          0.1000000E-05 Eh   :
          :  -> wf. convergence          0.1000000E-03 e    :
          :  Broyden damping             0.4000000          :
          :  net charge                          0          :
          :  unpaired electrons                  0          :
          ...................................................

 iter      E             dE          RMSdq      gap      omega  full diag
   1    -67.8279943 -0.678280E+02  0.366E+00    3.20       0.0  T
   2    -67.8358751 -0.788079E-02  0.220E+00    3.15       1.0  T
   3    -67.8297684  0.610675E-02  0.526E-01    3.20       1.0  T
   4    -67.8382453 -0.847690E-02  0.172E-01    3.16       1.0  T
   5    -67.8387908 -0.545535E-03  0.913E-02    3.18       1.0  T
   6    -67.8388348 -0.439789E-04  0.309E-02    3.20       1.0  T
   7    -67.8388547 -0.199259E-04  0.105E-02    3.20       1.4  T
   8    -67.8388553 -0.567326E-06  0.499E-03    3.20       3.0  T
   9    -67.8388554 -0.123931E-06  0.163E-03    3.20       9.0  T
  10    -67.8388554 -0.214623E-07  0.856E-04    3.20      17.2  T
  11    -67.8388554 -0.635292E-08  0.432E-04    3.20      34.1  T

   *** convergence criteria satisfied after 11 iterations ***

         #    Occupation            Energy/Eh            Energy/eV
      -------------------------------------------------------------
         1        2.0000           -0.7295374             -19.8517
       ...           ...                  ...                  ...
        54        2.0000           -0.4301407             -11.7047
        55        2.0000           -0.4295423             -11.6884
        56        2.0000           -0.4279341             -11.6447
        57        2.0000           -0.4253462             -11.5743
        58        2.0000           -0.4205673             -11.4442
        59        2.0000           -0.4152919             -11.3007
        60        2.0000           -0.4116704             -11.2021 (HOMO)
        61                         -0.2939376              -7.9984 (LUMO)
        62                         -0.2865765              -7.7981
        63                         -0.1766897              -4.8080
        64                         -0.1741077              -4.7377
        65                         -0.0371015              -1.0096
       ...                                ...                  ...
       112                          0.6086505              16.5622
      -------------------------------------------------------------
                  HL-Gap            0.1177328 Eh            3.2037 eV
             Fermi-level           -0.3528040 Eh           -9.6003 eV

 SCC (total)                   0 d,  0 h,  0 min,  0.043 sec
 SCC setup                      ...        0 min,  0.000 sec (  0.571%)
 Dispersion                     ...        0 min,  0.000 sec (  1.112%)
 classical contributions        ...        0 min,  0.000 sec (  0.134%)
 integral evaluation            ...        0 min,  0.003 sec (  6.412%)
 iterations                     ...        0 min,  0.034 sec ( 78.159%)
 molecular gradient             ...        0 min,  0.006 sec ( 13.020%)
 printout                       ...        0 min,  0.000 sec (  0.525%)

         :::::::::::::::::::::::::::::::::::::::::::::::::::::
         ::                     SUMMARY                     ::
         :::::::::::::::::::::::::::::::::::::::::::::::::::::
         :: total energy             -67.014435420199 Eh    ::
         :: gradient norm              0.194470159911 Eh/a0 ::
         :: HOMO-LUMO gap              3.203672045766 eV    ::
         ::.................................................::
         :: SCC energy               -67.838920789483 Eh    ::
         :: -> isotropic ES            0.097273603151 Eh    ::
         :: -> anisotropic ES          0.001479789890 Eh    ::
         :: -> anisotropic XC          0.023782224519 Eh    ::
         :: -> dispersion             -0.043557846403 Eh    ::
         :: repulsion energy           0.824485369284 Eh    ::
         :: add. restraining           0.000000000000 Eh    ::
         :: total charge              -0.000000000000 e     ::
         :::::::::::::::::::::::::::::::::::::::::::::::::::::

      ----------------------------------------------------------- 
     |                   =====================                   |
     |                        A N C O P T                        |
     |                   =====================                   |
     |               Approximate Normal Coordinate               |
     |                Rational Function Optimizer                |
      ----------------------------------------------------------- 
      ----------------------------------------------------------- 
     |                   =====================                   |
     |                        A N C O P T                        |
     |                   =====================                   |
     |               Approximate Normal Coordinate               |
     |                Rational Function Optimizer                |
      ----------------------------------------------------------- 

          ...................................................
          :                      SETUP                      :
          :.................................................:
          :   optimization level            normal          :
          :   max. optcycles                   200          :
          :   ANC micro-cycles                  20          :
          :   degrees of freedom               132          :
          :.................................................:
          :   RF solver                   davidson          :
          :   write xtbopt.log                true          :
          :   linear?                        false          :
          :   energy convergence         0.5000000E-05 Eh   :
          :   grad. convergence          0.1000000E-02 Eh/α :
          :   maxmium RF displ.          1.0000000          :
          :   Hlow (freq-cutoff)         0.1000000E-01      :
          :   Hmax (freq-cutoff)         5.0000000          :
          :   S6 in model hess.         20.0000000          :
          ...................................................

generating ANC from exact Hessian ...
Using Lindh-Hessian (1995)
 Shifting diagonal of input Hessian by   9.714741060132030E-003
 Lowest  eigenvalues of input Hessian
    0.000000    0.000000    0.000000    0.000000    0.000000    0.000000
    0.010000    0.010029    0.010290    0.010819    0.010946    0.011164
    0.012756    0.014051    0.014636    0.015105    0.016120    0.017058
 Highest eigenvalues
    1.735541    1.784396    1.866168    1.968759    2.131155    2.153728
 

........................................................................
.............................. CYCLE    1 ..............................
........................................................................

 iter      E             dE          RMSdq      gap      omega  full diag
   1    -67.8388554 -0.678389E+02  0.127E-04    3.20       0.0  T
   2    -67.8388554 -0.889600E-10  0.853E-05    3.20     172.8  T
   3    -67.8388554 -0.135103E-09  0.533E-05    3.20     276.7  T
     SCC iter.                  ...        0 min,  0.008 sec
     gradient                   ...        0 min,  0.006 sec
 * total energy  :   -67.0144354 Eh     change       -0.4491071E-08 Eh
   gradient norm :     0.1944723 Eh/α   predicted     0.0000000E+00 (-100.00%)
   displ. norm   :     0.4357569 α      lambda       -0.4504400E-01
   maximum displ.:     0.1944375 α      in ANC's #28, #48, #29, ...

........................................................................
.............................. CYCLE    2 ..............................
........................................................................

 iter      E             dE          RMSdq      gap      omega  full diag
   1    -67.8862195 -0.678862E+02  0.280E-01    3.39       0.0  T
   2    -67.8866794 -0.459950E-03  0.180E-01    3.43       1.0  T
   3    -67.8865448  0.134644E-03  0.106E-01    3.43       1.0  T
   4    -67.8867665 -0.221730E-03  0.357E-02    3.44       1.0  T
   5    -67.8868048 -0.382534E-04  0.775E-03    3.43       1.9  T
   6    -67.8868056 -0.830030E-06  0.376E-03    3.44       3.9  T
   7    -67.8868057 -0.887171E-07  0.107E-03    3.44      13.8  T
   8    -67.8868057 -0.394881E-08  0.513E-04    3.44      28.8  T
   9    -67.8868057 -0.501416E-09  0.263E-04    3.44      56.1  T
     SCC iter.                  ...        0 min,  0.022 sec
     gradient                   ...        0 min,  0.006 sec
 * total energy  :   -67.0466896 Eh     change       -0.3225421E-01 Eh
   gradient norm :     0.0815732 Eh/α   predicted    -0.2682805E-01 ( -16.82%)
   displ. norm   :     0.4161597 α      lambda       -0.1665114E-01
   maximum displ.:     0.2351528 α      in ANC's #28, #29, #15, ...

........................................................................
.............................. CYCLE    3 ..............................
........................................................................

 iter      E             dE          RMSdq      gap      omega  full diag
   1    -67.9078906 -0.679079E+02  0.209E-01    3.59       0.0  T
   2    -67.9081204 -0.229804E-03  0.133E-01    3.62       1.0  T
   3    -67.9080406  0.798145E-04  0.777E-02    3.63       1.0  T
   4    -67.9081636 -0.122990E-03  0.256E-02    3.64       1.0  T
   5    -67.9081827 -0.191654E-04  0.592E-03    3.63       2.5  T
   6    -67.9081832 -0.497874E-06  0.248E-03    3.63       5.9  T
   7    -67.9081833 -0.300700E-07  0.708E-04    3.63      20.8  T
   8    -67.9081833 -0.184160E-08  0.329E-04    3.63      44.8  T
     SCC iter.                  ...        0 min,  0.020 sec
     gradient                   ...        0 min,  0.006 sec
 * total energy  :   -67.0568968 Eh     change       -0.1020714E-01 Eh
   gradient norm :     0.0270868 Eh/α   predicted    -0.9767468E-02 (  -4.31%)
   displ. norm   :     0.3014539 α      lambda       -0.3155800E-02
   maximum displ.:     0.1440364 α      in ANC's #28, #15, #11, ...

........................................................................
.............................. CYCLE    4 ..............................
........................................................................

 iter      E             dE          RMSdq      gap      omega  full diag
   1    -67.9054000 -0.679054E+02  0.987E-02    3.66       0.0  T
   2    -67.9054485 -0.484143E-04  0.588E-02    3.66       1.0  T
   3    -67.9054428  0.567458E-05  0.271E-02    3.67       1.0  T
   4    -67.9054472 -0.437059E-05  0.129E-02    3.67       1.1  T
   5    -67.9054530 -0.589033E-05  0.210E-03    3.67       7.0  T
   6    -67.9054531 -0.916331E-07  0.974E-04    3.67      15.1  T
   7    -67.9054531 -0.429195E-08  0.303E-04    3.67      48.7  T
     SCC iter.                  ...        0 min,  0.017 sec
     gradient                   ...        0 min,  0.006 sec
 * total energy  :   -67.0589909 Eh     change       -0.2094104E-02 Eh
   gradient norm :     0.0127523 Eh/α   predicted    -0.1721294E-02 ( -17.80%)
   displ. norm   :     0.2846198 α      lambda       -0.1252803E-02
   maximum displ.:     0.1328985 α      in ANC's #15, #11, #13, ...

........................................................................
.............................. CYCLE    5 ..............................
........................................................................

 iter      E             dE          RMSdq      gap      omega  full diag
   1    -67.9036290 -0.679036E+02  0.734E-02    3.68       0.0  T
   2    -67.9036457 -0.166944E-04  0.432E-02    3.68       1.0  T
   3    -67.9036443  0.138322E-05  0.150E-02    3.68       1.0  T
   4    -67.9036461 -0.171494E-05  0.542E-03    3.68       2.7  T
   5    -67.9036470 -0.989808E-06  0.138E-03    3.68      10.7  T
   6    -67.9036471 -0.452522E-07  0.680E-04    3.68      21.7  T
   7    -67.9036471 -0.254795E-08  0.194E-04    3.68      76.1  T
     SCC iter.                  ...        0 min,  0.017 sec
     gradient                   ...        0 min,  0.006 sec
 * total energy  :   -67.0597964 Eh     change       -0.8055330E-03 Eh
   gradient norm :     0.0078690 Eh/α   predicted    -0.6771464E-03 ( -15.94%)
   displ. norm   :     0.2754150 α      lambda       -0.6992850E-03
   maximum displ.:     0.1161771 α      in ANC's #15, #12, #13, ...

........................................................................
.............................. CYCLE    6 ..............................
........................................................................

 iter      E             dE          RMSdq      gap      omega  full diag
   1    -67.9036349 -0.679036E+02  0.627E-02    3.68       0.0  T
   2    -67.9036399 -0.494561E-05  0.374E-02    3.68       1.0  T
   3    -67.9036395  0.390045E-06  0.697E-03    3.68       2.1  T
   4    -67.9036402 -0.768528E-06  0.182E-03    3.68       8.1  T
   5    -67.9036403 -0.659239E-07  0.101E-03    3.68      14.6  T
   6    -67.9036403 -0.153027E-07  0.521E-04    3.68      28.3  T
   7    -67.9036403 -0.281544E-08  0.133E-04    3.68     110.8  T
     SCC iter.                  ...        0 min,  0.018 sec
     gradient                   ...        0 min,  0.006 sec
 * total energy  :   -67.0602039 Eh     change       -0.4075043E-03 Eh
   gradient norm :     0.0088028 Eh/α   predicted    -0.3761643E-03 (  -7.69%)
   displ. norm   :     0.2216639 α      lambda       -0.3892336E-03
   maximum displ.:     0.1063349 α      in ANC's #12, #14, #1, ...

........................................................................
.............................. CYCLE    7 ..............................
........................................................................

 iter      E             dE          RMSdq      gap      omega  full diag
   1    -67.9048405 -0.679048E+02  0.480E-02    3.68       0.0  T
   2    -67.9048427 -0.225734E-05  0.287E-02    3.68       1.0  T
   3    -67.9048425  0.184005E-06  0.433E-03    3.67       3.4  T
   4    -67.9048429 -0.333162E-06  0.159E-03    3.68       9.3  T
   5    -67.9048429 -0.617600E-07  0.829E-04    3.68      17.8  T
   6    -67.9048429 -0.119579E-07  0.376E-04    3.68      39.2  T
     SCC iter.                  ...        0 min,  0.027 sec
     gradient                   ...        0 min,  0.006 sec
 * total energy  :   -67.0604659 Eh     change       -0.2620174E-03 Eh
   gradient norm :     0.0076833 Eh/α   predicted    -0.2041986E-03 ( -22.07%)
   displ. norm   :     0.2257670 α      lambda       -0.2809441E-03
   maximum displ.:     0.1144655 α      in ANC's #12, #1, #3, ...

........................................................................
.............................. CYCLE    8 ..............................
........................................................................

 iter      E             dE          RMSdq      gap      omega  full diag
   1    -67.9066579 -0.679067E+02  0.490E-02    3.67       0.0  T
   2    -67.9066614 -0.354587E-05  0.287E-02    3.67       1.0  T
   3    -67.9066613  0.135397E-06  0.571E-03    3.67       2.6  T
   4    -67.9066616 -0.336160E-06  0.124E-03    3.67      11.8  T
   5    -67.9066616 -0.309964E-07  0.620E-04    3.67      23.8  T
   6    -67.9066616 -0.181721E-08  0.384E-04    3.67      38.4  T
     SCC iter.                  ...        0 min,  0.015 sec
     gradient                   ...        0 min,  0.005 sec
 * total energy  :   -67.0606544 Eh     change       -0.1884534E-03 Eh
   gradient norm :     0.0051647 Eh/α   predicted    -0.1476328E-03 ( -21.66%)
   displ. norm   :     0.2268958 α      lambda       -0.1990430E-03
   maximum displ.:     0.1089919 α      in ANC's #12, #1, #3, ...

........................................................................
.............................. CYCLE    9 ..............................
........................................................................

 iter      E             dE          RMSdq      gap      omega  full diag
   1    -67.9075525 -0.679076E+02  0.551E-02    3.67       0.0  T
   2    -67.9075546 -0.207778E-05  0.323E-02    3.67       1.0  T
   3    -67.9075545  0.863060E-07  0.405E-03    3.67       3.6  T
   4    -67.9075548 -0.252361E-06  0.127E-03    3.67      11.6  T
   5    -67.9075548 -0.341200E-07  0.730E-04    3.67      20.2  T
   6    -67.9075548 -0.584542E-08  0.355E-04    3.67      41.6  T
     SCC iter.                  ...        0 min,  0.015 sec
     gradient                   ...        0 min,  0.006 sec
 * total energy  :   -67.0607797 Eh     change       -0.1253058E-03 Eh
   gradient norm :     0.0039286 Eh/α   predicted    -0.1046502E-03 ( -16.48%)
   displ. norm   :     0.1776726 α      lambda       -0.1137238E-03
   maximum displ.:     0.0770987 α      in ANC's #1, #3, #6, ...

........................................................................
.............................. CYCLE   10 ..............................
........................................................................

 iter      E             dE          RMSdq      gap      omega  full diag
   1    -67.9075480 -0.679075E+02  0.475E-02    3.67       0.0  T
   2    -67.9075485 -0.446121E-06  0.281E-02    3.67       1.0  T
   3    -67.9075484  0.101892E-07  0.206E-03    3.67       7.2  T
   4    -67.9075485 -0.909390E-07  0.115E-03    3.67      12.9  T
   5    -67.9075486 -0.323640E-07  0.530E-04    3.67      27.8  T
   6    -67.9075486 -0.210225E-08  0.211E-04    3.67      70.0  T
     SCC iter.                  ...        0 min,  0.015 sec
     gradient                   ...        0 min,  0.006 sec
 * total energy  :   -67.0608583 Eh     change       -0.7862554E-04 Eh
   gradient norm :     0.0033830 Eh/α   predicted    -0.5865728E-04 ( -25.40%)
   displ. norm   :     0.1717129 α      lambda       -0.8952061E-04
   maximum displ.:     0.0798836 α      in ANC's #1, #3, #6, ...

........................................................................
.............................. CYCLE   11 ..............................
........................................................................

 iter      E             dE          RMSdq      gap      omega  full diag
   1    -67.9072678 -0.679073E+02  0.492E-02    3.68       0.0  T
   2    -67.9072690 -0.113468E-05  0.291E-02    3.67       1.0  T
   3    -67.9072688  0.117269E-06  0.316E-03    3.68       4.7  T
   4    -67.9072690 -0.197038E-06  0.151E-03    3.67       9.8  T
   5    -67.9072691 -0.630879E-07  0.562E-04    3.67      26.2  T
   6    -67.9072691 -0.270464E-08  0.315E-04    3.67      46.8  T
     SCC iter.                  ...        0 min,  0.015 sec
     gradient                   ...        0 min,  0.005 sec
 * total energy  :   -67.0609204 Eh     change       -0.6204926E-04 Eh
   gradient norm :     0.0029882 Eh/α   predicted    -0.4608354E-04 ( -25.73%)
   displ. norm   :     0.1633591 α      lambda       -0.7491143E-04
   maximum displ.:     0.0797064 α      in ANC's #1, #3, #6, ...

........................................................................
.............................. CYCLE   12 ..............................
........................................................................

 iter      E             dE          RMSdq      gap      omega  full diag
   1    -67.9072359 -0.679072E+02  0.448E-02    3.68       0.0  T
   2    -67.9072367 -0.790310E-06  0.264E-02    3.68       1.0  T
   3    -67.9072362  0.449051E-06  0.437E-03    3.68       3.4  T
   4    -67.9072368 -0.521914E-06  0.166E-03    3.68       8.9  T
   5    -67.9072368 -0.887573E-07  0.533E-04    3.68      27.7  T
   6    -67.9072369 -0.198312E-08  0.285E-04    3.68      51.7  T
     SCC iter.                  ...        0 min,  0.016 sec
     gradient                   ...        0 min,  0.006 sec
 * total energy  :   -67.0609728 Eh     change       -0.5245418E-04 Eh
   gradient norm :     0.0027549 Eh/α   predicted    -0.3845843E-04 ( -26.68%)
   displ. norm   :     0.1612700 α      lambda       -0.6305758E-04
   maximum displ.:     0.0815662 α      in ANC's #1, #3, #6, ...

........................................................................
.............................. CYCLE   13 ..............................
........................................................................

 iter      E             dE          RMSdq      gap      omega  full diag
   1    -67.9069566 -0.679070E+02  0.426E-02    3.68       0.0  T
   2    -67.9069570 -0.455477E-06  0.251E-02    3.68       1.0  T
   3    -67.9069561  0.914595E-06  0.543E-03    3.68       2.7  T
   4    -67.9069572 -0.106405E-05  0.131E-03    3.68      11.2  T
   5    -67.9069572 -0.422859E-07  0.536E-04    3.68      27.5  T
   6    -67.9069572 -0.721627E-09  0.199E-04    3.68      74.1  T
     SCC iter.                  ...        0 min,  0.014 sec
     gradient                   ...        0 min,  0.006 sec
 * total energy  :   -67.0610204 Eh     change       -0.4761373E-04 Eh
   gradient norm :     0.0029956 Eh/α   predicted    -0.3235321E-04 ( -32.05%)
   displ. norm   :     0.1774577 α      lambda       -0.6243267E-04
   maximum displ.:     0.0906959 α      in ANC's #1, #3, #2, ...

........................................................................
.............................. CYCLE   14 ..............................
........................................................................

 iter      E             dE          RMSdq      gap      omega  full diag
   1    -67.9071470 -0.679071E+02  0.452E-02    3.68       0.0  T
   2    -67.9071473 -0.307170E-06  0.267E-02    3.68       1.0  T
   3    -67.9071463  0.957894E-06  0.549E-03    3.68       2.7  T
   4    -67.9071475 -0.114925E-05  0.101E-03    3.68      14.6  T
   5    -67.9071475 -0.101993E-07  0.492E-04    3.68      30.0  T
   6    -67.9071475 -0.837034E-09  0.159E-04    3.68      92.5  T
     SCC iter.                  ...        0 min,  0.016 sec
     gradient                   ...        0 min,  0.006 sec
 * total energy  :   -67.0610678 Eh     change       -0.4733241E-04 Eh
   gradient norm :     0.0029707 Eh/α   predicted    -0.3220087E-04 ( -31.97%)
   displ. norm   :     0.1965459 α      lambda       -0.5779720E-04
   maximum displ.:     0.1020347 α      in ANC's #1, #3, #2, ...

........................................................................
.............................. CYCLE   15 ..............................
........................................................................

 iter      E             dE          RMSdq      gap      omega  full diag
   1    -67.9072025 -0.679072E+02  0.489E-02    3.68       0.0  T
   2    -67.9072030 -0.497140E-06  0.289E-02    3.68       1.0  T
   3    -67.9072025  0.506419E-06  0.429E-03    3.68       3.4  T
   4    -67.9072032 -0.648893E-06  0.146E-03    3.68      10.1  T
   5    -67.9072032 -0.489812E-07  0.609E-04    3.68      24.2  T
   6    -67.9072032 -0.115956E-08  0.245E-04    3.68      60.1  T
     SCC iter.                  ...        0 min,  0.015 sec
     gradient                   ...        0 min,  0.006 sec
 * total energy  :   -67.0611118 Eh     change       -0.4406634E-04 Eh
   gradient norm :     0.0028190 Eh/α   predicted    -0.3001657E-04 ( -31.88%)
   displ. norm   :     0.2215482 α      lambda       -0.5661781E-04
   maximum displ.:     0.1155340 α      in ANC's #1, #3, #2, ...

........................................................................
.............................. CYCLE   16 ..............................
........................................................................

 iter      E             dE          RMSdq      gap      omega  full diag
   1    -67.9072367 -0.679072E+02  0.550E-02    3.68       0.0  T
   2    -67.9072372 -0.524312E-06  0.324E-02    3.68       1.0  T
   3    -67.9072370  0.210647E-06  0.346E-03    3.68       4.3  T
   4    -67.9072374 -0.357072E-06  0.150E-03    3.68       9.8  T
   5    -67.9072374 -0.516161E-07  0.659E-04    3.68      22.4  T
   6    -67.9072374 -0.143852E-08  0.215E-04    3.68      68.4  T
     SCC iter.                  ...        0 min,  0.015 sec
     gradient                   ...        0 min,  0.006 sec
 * total energy  :   -67.0611542 Eh     change       -0.4241398E-04 Eh
   gradient norm :     0.0029621 Eh/α   predicted    -0.2970036E-04 ( -29.98%)
   displ. norm   :     0.2300728 α      lambda       -0.5514052E-04
   maximum displ.:     0.1218549 α      in ANC's #1, #3, #2, ...

........................................................................
.............................. CYCLE   17 ..............................
........................................................................

 iter      E             dE          RMSdq      gap      omega  full diag
   1    -67.9077347 -0.679077E+02  0.515E-02    3.68       0.0  T
   2    -67.9077353 -0.547022E-06  0.304E-02    3.68       1.0  T
   3    -67.9077354 -0.121843E-06  0.166E-03    3.68       8.9  T
   4    -67.9077354 -0.329768E-07  0.957E-04    3.68      15.4  T
   5    -67.9077354 -0.578218E-08  0.659E-04    3.68      22.4  T
     SCC iter.                  ...        0 min,  0.012 sec
     gradient                   ...        0 min,  0.006 sec
 * total energy  :   -67.0611913 Eh     change       -0.3706981E-04 Eh
   gradient norm :     0.0025757 Eh/α   predicted    -0.2903419E-04 ( -21.68%)
   displ. norm   :     0.2124223 α      lambda       -0.3982136E-04
   maximum displ.:     0.1145957 α      in ANC's #1, #3, #6, ...

........................................................................
.............................. CYCLE   18 ..............................
........................................................................

 iter      E             dE          RMSdq      gap      omega  full diag
   1    -67.9067876 -0.679068E+02  0.529E-02    3.68       0.0  T
   2    -67.9067885 -0.921428E-06  0.313E-02    3.68       1.0  T
   3    -67.9067885 -0.116318E-07  0.252E-03    3.68       5.8  T
   4    -67.9067886 -0.106893E-06  0.161E-03    3.68       9.2  T
   5    -67.9067887 -0.700564E-07  0.684E-04    3.68      21.6  T
   6    -67.9067887 -0.204491E-08  0.237E-04    3.68      62.2  T
     SCC iter.                  ...        0 min,  0.014 sec
     gradient                   ...        0 min,  0.004 sec
 * total energy  :   -67.0612139 Eh     change       -0.2262005E-04 Eh
   gradient norm :     0.0029293 Eh/α   predicted    -0.2081301E-04 (  -7.99%)
   displ. norm   :     0.0970107 α      lambda       -0.3128745E-04
   maximum displ.:     0.0493430 α      in ANC's #1, #2, #3, ...

........................................................................
.............................. CYCLE   19 ..............................
........................................................................

 iter      E             dE          RMSdq      gap      omega  full diag
   1    -67.9082278 -0.679082E+02  0.173E-02    3.68       0.0  T
   2    -67.9082283 -0.534957E-06  0.105E-02    3.68       1.4  T
   3    -67.9082280  0.287276E-06  0.352E-03    3.68       4.2  T
   4    -67.9082284 -0.340692E-06  0.121E-03    3.68      12.2  T
   5    -67.9082284 -0.470585E-07  0.302E-04    3.68      48.8  T
   6    -67.9082284 -0.109671E-08  0.165E-04    3.68      89.6  T
     SCC iter.                  ...        0 min,  0.018 sec
     gradient                   ...        0 min,  0.008 sec
 * total energy  :   -67.0612300 Eh     change       -0.1608863E-04 Eh
   gradient norm :     0.0020571 Eh/α   predicted    -0.1579454E-04 (  -1.83%)
   displ. norm   :     0.0778191 α      lambda       -0.1528480E-04
   maximum displ.:     0.0438992 α      in ANC's #1, #6, #2, ...

........................................................................
.............................. CYCLE   20 ..............................
........................................................................

 iter      E             dE          RMSdq      gap      omega  full diag
   1    -67.9076735 -0.679077E+02  0.190E-02    3.68       0.0  T
   2    -67.9076737 -0.159451E-06  0.113E-02    3.68       1.3  T
   3    -67.9076736  0.727450E-07  0.176E-03    3.68       8.4  T
   4    -67.9076737 -0.941648E-07  0.749E-04    3.68      19.7  T
   5    -67.9076737 -0.156279E-07  0.277E-04    3.68      53.2  T
     SCC iter.                  ...        0 min,  0.012 sec
     gradient                   ...        0 min,  0.005 sec
 * total energy  :   -67.0612401 Eh     change       -0.1004645E-04 Eh
   gradient norm :     0.0013948 Eh/α   predicted    -0.7693271E-05 ( -23.42%)
   displ. norm   :     0.0768886 α      lambda       -0.1095772E-04
   maximum displ.:     0.0374048 α      in ANC's #1, #6, #2, ...
 * RMSD in coord.:     0.4441181 α      energy gain  -0.4680465E-01 Eh

generating ANC from exact Hessian ...
Using Lindh-Hessian (1995)
 Shifting diagonal of input Hessian by   9.739528159504678E-003
 Lowest  eigenvalues of input Hessian
    0.000000    0.000000    0.000000    0.000000    0.000000    0.000000
    0.010000    0.010096    0.010332    0.010899    0.010989    0.011481
    0.012879    0.013586    0.014438    0.014859    0.016026    0.016778
 Highest eigenvalues
    1.758146    1.823837    1.955429    2.028781    2.390868    2.397845
 

........................................................................
.............................. CYCLE   21 ..............................
........................................................................

 iter      E             dE          RMSdq      gap      omega  full diag
   1    -67.9075150 -0.679075E+02  0.189E-02    3.68       0.0  T
   2    -67.9075152 -0.191286E-06  0.111E-02    3.68       1.3  T
   3    -67.9075151  0.641755E-07  0.176E-03    3.68       8.4  T
   4    -67.9075152 -0.814521E-07  0.736E-04    3.68      20.0  T
   5    -67.9075152 -0.168947E-07  0.266E-04    3.68      55.5  T
     SCC iter.                  ...        0 min,  0.023 sec
     gradient                   ...        0 min,  0.006 sec
 * total energy  :   -67.0612493 Eh     change       -0.9186520E-05 Eh
   gradient norm :     0.0015264 Eh/α   predicted     0.0000000E+00 (-100.00%)
   displ. norm   :     0.0189769 α      lambda       -0.2197536E-05
   maximum displ.:     0.0090577 α      in ANC's #3, #6, #4, ...

........................................................................
.............................. CYCLE   22 ..............................
........................................................................

 iter      E             dE          RMSdq      gap      omega  full diag
   1    -67.9078086 -0.679078E+02  0.691E-03    3.68       0.0  T
   2    -67.9078088 -0.138375E-06  0.407E-03    3.68       3.6  T
   3    -67.9078088  0.149893E-07  0.128E-03    3.68      11.5  T
   4    -67.9078088 -0.907499E-08  0.591E-04    3.68      24.9  T
   5    -67.9078088 -0.131560E-07  0.979E-05    3.68     150.7  T
     SCC iter.                  ...        0 min,  0.022 sec
     gradient                   ...        0 min,  0.005 sec
 * total energy  :   -67.0612536 Eh     change       -0.4358414E-05 Eh
   gradient norm :     0.0004594 Eh/α   predicted    -0.2234484E-05 ( -48.73%)
   displ. norm   :     0.0204764 α      lambda        0.4741868E-06
   maximum displ.:     0.0098317 α      in ANC's #3, #6, #4, ...

   *** GEOMETRY OPTIMIZATION CONVERGED AFTER 22 ITERATIONS ***

------------------------------------------------------------------------
 total energy gain   :        -0.0468182 Eh      -29.3789 kcal/mol
 total RMSD          :         0.4440518 a0        0.2350 Å
 total power (kW/mol):        -5.5873255 (step) -183.9168 (real)
------------------------------------------------------------------------

 ANCopt (total)                0 d,  0 h,  0 min,  0.668 sec
 optimizer setup                ...        0 min,  0.000 sec (  0.017%)
 model hessian                  ...        0 min,  0.107 sec ( 16.040%)
 ANC generation                 ...        0 min,  0.004 sec (  0.531%)
 coordinate transformation      ...        0 min,  0.000 sec (  0.069%)
 single point calculation       ...        0 min,  0.543 sec ( 81.192%)
 optimization log               ...        0 min,  0.009 sec (  1.395%)
 hessian update                 ...        0 min,  0.002 sec (  0.308%)
 rational function              ...        0 min,  0.002 sec (  0.299%)

================
 final structure:
================
46
 xtb: 6.7.1 (edcfbbe)
C            7.64006275192503        0.85907818724592        1.52053890002237
C            6.53100688552356        0.24700957560778        1.13342149185504
C            5.24158629083252        0.96848169010372        1.06378886141847
O            5.07652755398462        2.13433439879530        1.32619497896826
O            4.25991289865758        0.15190413042215        0.66132002395182
C            2.96256037128587        0.73111197483355        0.54295898764165
C            2.03924605529975       -0.26693796449369       -0.13849412614873
C            2.40392837891789       -0.53248028715453       -1.60175534876885
C            1.12245528584545       -1.11492408243871       -2.19353054366628
C           -0.00226421921325       -0.31335254638347       -1.52548706839764
C           -1.20602594729463       -1.14113381971843       -1.05390482251549
C           -0.69666971284369       -1.72701385755887        0.26277889918429
C           -0.34794705934373       -0.36687969768824        0.86445887027135
C           -1.69615481456989        0.35757056571716        0.76823387599591
C           -2.27892537928927       -0.14865715573066       -0.57066129153252
C           -3.64407391045461       -0.80586223849451       -0.41051094194811
O           -4.58488346510545        0.19710870078375       -0.03366537335988
C           -5.84531453699353       -0.21553724002450        0.13976748793161
O           -6.19291778215905       -1.36346641321532       -0.00217269039034
C           -6.76455895563349        0.87918481264629        0.52170086649091
C           -6.37942045785005        2.12922519799892        0.73018793965128
C            0.58552231099744        0.22904570854107       -0.19729568790826
H            7.61482232010433        1.90206399397270        1.79205183704277
H            8.58833658373492        0.35314928842899        1.57912148371885
H            6.49726022369627       -0.79432713489255        0.85155606121404
H            2.59536645789106        0.98218868249403        1.54553427202834
H            3.03981296010319        1.66186194200723       -0.03133321144247
H            2.09398780434296       -1.20512755214119        0.42012884975813
H            2.64519438893142        0.41153858055121       -2.09389439197979
H            3.25775244526234       -1.20006156982284       -1.70101254027094
H            1.04042593105520       -2.17169200167827       -1.93781630350215
H            1.09588662794727       -1.03001661101014       -3.27895381759892
H           -0.32015777232519        0.49440654374941       -2.18696187202899
H           -1.56812813952494       -1.85171847438916       -1.79498434687301
H           -1.46336442430032       -2.25708810065224        0.82295598317580
H            0.16351676672566       -2.37938429363499        0.13707974656465
H            0.07661191248985       -0.37248416629211        1.86704920734877
H           -2.34430472610227        0.07828930850048        1.59882855801146
H           -1.58101153349244        1.44020622088180        0.78361586159687
H           -2.40095925135020        0.67158865383891       -1.28220427789611
H           -3.97233996163959       -1.26245595298780       -1.35215570498115
H           -3.63509344826017       -1.58908121260759        0.35531876978817
H           -7.79390324464591        0.56651968688154        0.62317514810197
H           -5.34748208399222        2.41939884301038        0.62688578474807
H           -7.08012823555410        2.89835585111846        1.00883431205311
H            0.57424485638975        1.32030583490112       -0.16069469731186
 
 Bond Distances (Angstroems)
 ---------------------------
C1-C2=1.3246         C1-H23=1.0780        C1-H24=1.0764        C2-C1=1.3246         C2-C3=1.4792         C2-H25=1.0793        
C3-C2=1.4792         C3-O4=1.2064         C3-O5=1.3388         O4-C3=1.2064         O5-C3=1.3388         O5-C6=1.4257         
C6-O5=1.4257         C6-C7=1.5209         C6-H26=1.0968        C6-H27=1.0964        C7-C6=1.5209         C7-C8=1.5312         
C7-C22=1.5371        C7-H28=1.0933        C8-C7=1.5312         C8-C9=1.5270         C8-H29=1.0916        C8-H30=1.0884        
C9-C8=1.5270         C9-C10=1.5342        C9-H31=1.0904        C9-H32=1.0891        C10-C9=1.5342        C10-C11=1.5351       
C10-C22=1.5504       C10-H33=1.0914       C11-C10=1.5351       C11-C12=1.5285       C11-C15=1.5394       C11-H34=1.0887       
C12-C11=1.5285       C12-C13=1.5276       C12-H35=1.0875       C12-H36=1.0869       C13-C12=1.5276       C13-C14=1.5335       
C13-C22=1.5342       C13-H37=1.0888       C14-C13=1.5335       C14-C15=1.5455       C14-H38=1.0899       C14-H39=1.0889       
C15-C11=1.5394       C15-C14=1.5455       C15-C16=1.5235       C15-H40=1.0927       C16-C15=1.5235       C16-O17=1.4259       
C16-H41=1.0968       C16-H42=1.0954       O17-C16=1.4259       O17-C18=1.3376       C18-O17=1.3376       C18-O19=1.2078       
C18-C20=1.4796       O19-C18=1.2078       C20-C18=1.4796       C20-C21=1.3245       C20-H43=1.0806       C21-C20=1.3245       
C21-H44=1.0769       C21-H45=1.0771       C22-C7=1.5371        C22-C10=1.5504       C22-C13=1.5342       C22-H46=1.0919       
H23-C1=1.0780        H24-C1=1.0764        H25-C2=1.0793        H26-C6=1.0968        H27-C6=1.0964        H28-C7=1.0933        
H29-C8=1.0916        H30-C8=1.0884        H31-C9=1.0904        H32-C9=1.0891        H33-C10=1.0914       H34-C11=1.0887       
H35-C12=1.0875       H36-C12=1.0869       H37-C13=1.0888       H38-C14=1.0899       H39-C14=1.0889       H40-C15=1.0927       
H41-C16=1.0968       H42-C16=1.0954       H43-C20=1.0806       H44-C21=1.0769       H45-C21=1.0771       H46-C22=1.0919       
 C  H  Rav=1.0880 sigma=0.0064  Rmin=1.0764  Rmax=1.0968    24
 C  C  Rav=1.5042 sigma=0.0661  Rmin=1.3245  Rmax=1.5504    18
 O  C  Rav=1.3237 sigma=0.0899  Rmin=1.2064  Rmax=1.4259     6
 
 selected bond angles (degree)
 --------------------
H23-C1-C2=120.07               H24-C1-C2=122.44               H24-C1-H23=117.49              C3-C2-C1=121.22                
H25-C2-C1=123.25               H25-C2-C3=115.53               O4-C3-C2=125.48                O5-C3-C2=110.84                
O5-C3-O4=123.68                C6-O5-C3=116.38                C7-C6-O5=108.85                H26-C6-O5=108.77               
H26-C6-C7=110.89               H27-C6-O5=108.92               H27-C6-C7=111.42               H27-C6-H26=107.94              
C8-C7-C6=113.42                C22-C7-C6=112.31               C22-C7-C8=104.16               H28-C7-C6=107.69               
H28-C7-C8=109.12               H28-C7-C22=110.11              C9-C8-C7=103.69                H29-C8-C7=109.48               
H29-C8-C9=109.92               H30-C8-C7=112.36               H30-C8-C9=112.90               H30-C8-H29=108.42              
C10-C9-C8=104.31               H31-C9-C8=109.99               H31-C9-C10=110.43              H32-C9-C8=112.15               
H32-C9-C10=112.05              H32-C9-H31=107.91              C11-C10-C9=115.27              C22-C10-C9=106.13              
C22-C10-C11=102.87             H33-C10-C9=109.65              H33-C10-C11=110.91             H33-C10-C22=111.76             
 
 selected dihedral angles (degree)
 ---------------------------------
C3-C2-C1-H23=  0.00           C3-C2-C1-H24=179.95           H25-C2-C1-H23=180.07          H25-C2-C1-H24=  0.04          
O4-C3-C2-C1=  0.76            O4-C3-C2-H25=180.68           O5-C3-C2-C1=180.57            O5-C3-C2-H25=  0.49           
C6-O5-C3-C2=180.46            C6-O5-C3-O4=  0.28            C7-C6-O5-C3=170.65            H26-C6-O5-C3=291.58           
H27-C6-O5-C3= 48.99           C8-C7-C6-O5=292.78            C8-C7-C6-H26=173.16           C8-C7-C6-H27= 52.91           
C22-C7-C6-O5=175.01           C22-C7-C6-H26= 55.40          C22-C7-C6-H27=295.14          H28-C7-C6-O5= 53.62           
H28-C7-C6-H26=294.01          H28-C7-C6-H27=173.75          C9-C8-C7-C6=199.69            C9-C8-C7-C22=322.09           
C9-C8-C7-H28= 79.66           H29-C8-C7-C6=316.95           H29-C8-C7-C22= 79.36          H29-C8-C7-H28=196.92          
H30-C8-C7-C6= 77.48           H30-C8-C7-C22=199.88          H30-C8-C7-H28=317.44          C10-C9-C8-C7= 38.20           
C10-C9-C8-H29=281.25          C10-C9-C8-H30=160.06          H31-C9-C8-C7=279.77           H31-C9-C8-H29=162.81          
H31-C9-C8-H30= 41.62          H32-C9-C8-C7=159.68           H32-C9-C8-H29= 42.72          H32-C9-C8-H30=281.53          
C11-C10-C9-C8=223.16          C11-C10-C9-H31=341.30         C11-C10-C9-H32=101.62         C22-C10-C9-C8=336.30          
C22-C10-C9-H31= 94.44         C22-C10-C9-H32=214.76         H33-C10-C9-C8= 97.17          H33-C10-C9-H31=215.31         
H33-C10-C9-H32=335.63         
           -------------------------------------------------
          |                Final Singlepoint                |
           -------------------------------------------------

          ...................................................
          :                      SETUP                      :
          :.................................................:
          :  # basis functions                 112          :
          :  # atomic orbitals                 112          :
          :  # shells                           68          :
          :  # electrons                       120          :
          :  max. iterations                   250          :
          :  Hamiltonian                  GFN2-xTB          :
          :  restarted?                      false          :
          :  GBSA solvation                  false          :
          :  PC potential                    false          :
          :  electronic temp.          300.0000000     K    :
          :  accuracy                    1.0000000          :
          :  -> integral cutoff          0.2500000E+02      :
          :  -> integral neglect         0.1000000E-07      :
          :  -> SCF convergence          0.1000000E-05 Eh   :
          :  -> wf. convergence          0.1000000E-03 e    :
          :  Broyden damping             0.4000000          :
          :  net charge                          0          :
          :  unpaired electrons                  0          :
          ...................................................

 iter      E             dE          RMSdq      gap      omega  full diag
   1    -67.9078088 -0.679078E+02  0.503E-05    3.68       0.0  T
   2    -67.9078088 -0.868283E-11  0.308E-05    3.68     479.4  T
   3    -67.9078088  0.113687E-12  0.146E-05    3.68    1012.6  T

   *** convergence criteria satisfied after 3 iterations ***

         #    Occupation            Energy/Eh            Energy/eV
      -------------------------------------------------------------
         1        2.0000           -0.7412996             -20.1718
       ...           ...                  ...                  ...
        54        2.0000           -0.4343562             -11.8194
        55        2.0000           -0.4310454             -11.7293
        56        2.0000           -0.4298045             -11.6956
        57        2.0000           -0.4283884             -11.6570
        58        2.0000           -0.4256371             -11.5822
        59        2.0000           -0.4141004             -11.2682
        60        2.0000           -0.4125524             -11.2261 (HOMO)
        61                         -0.2773552              -7.5472 (LUMO)
        62                         -0.2759678              -7.5095
        63                         -0.1657785              -4.5111
        64                         -0.1655626              -4.5052
        65                         -0.0180930              -0.4923
       ...                                ...                  ...
       112                          0.7062420              19.2178
      -------------------------------------------------------------
                  HL-Gap            0.1351972 Eh            3.6789 eV
             Fermi-level           -0.3449538 Eh           -9.3867 eV

 SCC (total)                   0 d,  0 h,  0 min,  0.014 sec
 SCC setup                      ...        0 min,  0.000 sec (  0.656%)
 Dispersion                     ...        0 min,  0.000 sec (  1.476%)
 classical contributions        ...        0 min,  0.000 sec (  0.301%)
 integral evaluation            ...        0 min,  0.001 sec (  8.310%)
 iterations                     ...        0 min,  0.007 sec ( 51.466%)
 molecular gradient             ...        0 min,  0.005 sec ( 36.575%)
 printout                       ...        0 min,  0.000 sec (  1.059%)

         :::::::::::::::::::::::::::::::::::::::::::::::::::::
         ::                     SUMMARY                     ::
         :::::::::::::::::::::::::::::::::::::::::::::::::::::
         :: total energy             -67.061253617845 Eh    ::
         :: gradient norm              0.000459919290 Eh/a0 ::
         :: HOMO-LUMO gap              3.678903397994 eV    ::
         ::.................................................::
         :: SCC energy               -67.907857616926 Eh    ::
         :: -> isotropic ES            0.091663190323 Eh    ::
         :: -> anisotropic ES          0.003438163349 Eh    ::
         :: -> anisotropic XC          0.022431367791 Eh    ::
         :: -> dispersion             -0.043072366568 Eh    ::
         :: repulsion energy           0.846603999081 Eh    ::
         :: add. restraining           0.000000000000 Eh    ::
         :: total charge               0.000000000000 e     ::
         :::::::::::::::::::::::::::::::::::::::::::::::::::::

           -------------------------------------------------
          |                Property Printout                |
           -------------------------------------------------

    * Orbital Energies and Occupations

         #    Occupation            Energy/Eh            Energy/eV
      -------------------------------------------------------------
         1        2.0000           -0.7412996             -20.1718
       ...           ...                  ...                  ...
        48        2.0000           -0.4505514             -12.2601
        49        2.0000           -0.4455174             -12.1231
        50        2.0000           -0.4429326             -12.0528
        51        2.0000           -0.4409157             -11.9979
        52        2.0000           -0.4400992             -11.9757
        53        2.0000           -0.4365053             -11.8779
        54        2.0000           -0.4343562             -11.8194
        55        2.0000           -0.4310454             -11.7293
        56        2.0000           -0.4298045             -11.6956
        57        2.0000           -0.4283884             -11.6570
        58        2.0000           -0.4256371             -11.5822
        59        2.0000           -0.4141004             -11.2682
        60        2.0000           -0.4125524             -11.2261 (HOMO)
        61                         -0.2773552              -7.5472 (LUMO)
        62                         -0.2759678              -7.5095
        63                         -0.1657785              -4.5111
        64                         -0.1655626              -4.5052
        65                         -0.0180930              -0.4923
        66                         -0.0040364              -0.1098
        67                          0.0178656               0.4861
        68                          0.0270393               0.7358
        69                          0.0461692               1.2563
        70                          0.0511235               1.3911
        71                          0.0627302               1.7070
       ...                                ...                  ...
       112                          0.7062420              19.2178
      -------------------------------------------------------------
                  HL-Gap            0.1351972 Eh            3.6789 eV
             Fermi-level           -0.3449538 Eh           -9.3867 eV

     #   Z          covCN         q      C6AA      α(0)
     1   6 C        2.842    -0.060    29.474     8.897
     2   6 C        2.887    -0.059    29.454     8.898
     3   6 C        2.728     0.355    20.971     7.497
     4   8 O        0.856    -0.415    21.976     6.285
     5   8 O        1.705    -0.266    18.408     5.793
     6   6 C        3.706     0.081    19.367     6.291
     7   6 C        3.871    -0.027    21.018     6.519
     8   6 C        3.826    -0.059    21.620     6.616
     9   6 C        3.821    -0.062    21.674     6.625
    10   6 C        3.905    -0.025    20.966     6.508
    11   6 C        3.979    -0.025    20.937     6.501
    12   6 C        3.886    -0.065    21.700     6.623
    13   6 C        3.976    -0.020    20.857     6.489
    14   6 C        3.843    -0.064    21.703     6.627
    15   6 C        3.886    -0.027    21.008     6.516
    16   6 C        3.708     0.082    19.357     6.289
    17   8 O        1.705    -0.263    18.360     5.785
    18   6 C        2.726     0.355    20.979     7.498
    19   8 O        0.857    -0.415    21.988     6.287
    20   6 C        2.887    -0.058    29.429     8.894
    21   6 C        2.838    -0.063    29.556     8.909
    22   6 C        3.906    -0.032    21.084     6.527
    23   1 H        0.926     0.079     1.991     2.207
    24   1 H        0.926     0.063     2.165     2.301
    25   1 H        0.926     0.064     2.156     2.296
    26   1 H        0.924     0.046     2.370     2.408
    27   1 H        0.924     0.051     2.310     2.377
    28   1 H        0.924     0.051     2.310     2.377
    29   1 H        0.924     0.036     2.498     2.472
    30   1 H        0.925     0.040     2.451     2.448
    31   1 H        0.924     0.038     2.474     2.459
    32   1 H        0.925     0.034     2.527     2.486
    33   1 H        0.924     0.032     2.559     2.501
    34   1 H        0.925     0.031     2.578     2.511
    35   1 H        0.925     0.036     2.502     2.474
    36   1 H        0.925     0.042     2.425     2.435
    37   1 H        0.925     0.030     2.592     2.518
    38   1 H        0.925     0.043     2.414     2.430
    39   1 H        0.925     0.037     2.485     2.465
    40   1 H        0.924     0.046     2.377     2.411
    41   1 H        0.924     0.048     2.346     2.395
    42   1 H        0.924     0.051     2.306     2.375
    43   1 H        0.926     0.071     2.076     2.253
    44   1 H        0.926     0.072     2.067     2.248
    45   1 H        0.926     0.062     2.173     2.305
    46   1 H        0.924     0.031     2.567     2.505

 Mol. C6AA /au·bohr⁶  :      19674.712998
 Mol. C8AA /au·bohr⁸  :     447108.458156
 Mol. α(0) /au        :        210.530201


Wiberg/Mayer (AO) data.
largest (>0.10) Wiberg bond orders for each atom

 ---------------------------------------------------------------------------
     #   Z sym  total        # sym  WBO       # sym  WBO       # sym  WBO
 ---------------------------------------------------------------------------
     1   6 C    3.981 --     2 C    1.933    24 H    0.975    23 H    0.970
     2   6 C    3.988 --     1 C    1.933     3 C    1.010    25 H    0.965
     3   6 C    3.920 --     4 O    1.724     5 O    1.124     2 C    1.010
     4   8 O    2.031 --     3 C    1.724     5 O    0.174
     5   8 O    2.307 --     3 C    1.124     6 C    0.941     4 O    0.174
     6   6 C    3.928 --     7 C    0.997    26 H    0.966    27 H    0.965
                             5 O    0.941
     7   6 C    3.991 --     6 C    0.997     8 C    0.994    22 C    0.982
                            28 H    0.963
     8   6 C    3.996 --     9 C    1.006     7 C    0.994    30 H    0.979
                            29 H    0.978
     9   6 C    3.997 --     8 C    1.006    10 C    0.995    32 H    0.980
                            31 H    0.976
    10   6 C    3.993 --     9 C    0.995    11 C    0.987    22 C    0.977
                            33 H    0.972
    11   6 C    3.992 --    12 C    0.996    10 C    0.987    15 C    0.981
                            34 H    0.970
    12   6 C    3.995 --    11 C    0.996    13 C    0.995    35 H    0.975
                            36 H    0.971
    13   6 C    3.994 --    14 C    0.996    12 C    0.995    22 C    0.988
                            37 H    0.970
    14   6 C    3.995 --    13 C    0.996    15 C    0.990    39 H    0.979
                            38 H    0.977
    15   6 C    3.991 --    16 C    0.997    14 C    0.990    11 C    0.981
                            40 H    0.967
    16   6 C    3.927 --    15 C    0.997    41 H    0.966    42 H    0.964
                            17 O    0.940
    17   8 O    2.307 --    18 C    1.127    16 C    0.940    19 O    0.173
    18   6 C    3.921 --    19 O    1.722    17 O    1.127    20 C    1.012
    19   8 O    2.028 --    18 C    1.722    17 O    0.173
    20   6 C    3.987 --    21 C    1.935    18 C    1.012    43 H    0.963
    21   6 C    3.984 --    20 C    1.935    45 H    0.975    44 H    0.971
    22   6 C    3.992 --    13 C    0.988     7 C    0.982    10 C    0.977
                            46 H    0.970
    23   1 H    0.994 --     1 C    0.970
    24   1 H    0.995 --     1 C    0.975
    25   1 H    0.996 --     2 C    0.965
    26   1 H    0.998 --     6 C    0.966
    27   1 H    0.997 --     6 C    0.965
    28   1 H    0.997 --     7 C    0.963
    29   1 H    0.999 --     8 C    0.978
    30   1 H    0.998 --     8 C    0.979
    31   1 H    0.999 --     9 C    0.976
    32   1 H    0.999 --     9 C    0.980
    33   1 H    0.999 --    10 C    0.972
    34   1 H    0.999 --    11 C    0.970
    35   1 H    0.999 --    12 C    0.975
    36   1 H    0.998 --    12 C    0.971
    37   1 H    0.999 --    13 C    0.970
    38   1 H    0.998 --    14 C    0.977
    39   1 H    0.999 --    14 C    0.979
    40   1 H    0.998 --    15 C    0.967
    41   1 H    0.998 --    16 C    0.966
    42   1 H    0.997 --    16 C    0.964
    43   1 H    0.995 --    20 C    0.963
    44   1 H    0.995 --    21 C    0.971
    45   1 H    0.996 --    21 C    0.975
    46   1 H    0.999 --    22 C    0.970
 ---------------------------------------------------------------------------

Topologies differ in total number of bonds
Writing topology from bond orders to xtbtopo.mol

molecular dipole:
                 x           y           z       tot (Debye)
 q only:        0.614       0.047      -0.214
   full:        0.593       0.063      -0.200       1.599
molecular quadrupole (traceless):
                xx          xy          yy          xz          yz          zz
 q only:       -1.532     -28.969      -2.209      -4.275      -1.428       3.741
  q+dip:       -2.876     -31.378      -1.226      -4.573      -3.203       4.102
   full:       -2.728     -31.825      -3.651      -4.626      -3.506       6.379

           -------------------------------------------------
          |                Geometry Summary                 |
           -------------------------------------------------

      molecular mass/u    :      304.3814439
   center of mass at/Å    :       -0.0830994       0.0466824       0.0909262
  moments of inertia/u·Å² :        0.6050659E+03   0.5745895E+04   0.6076898E+04
rotational constants/cm⁻¹ :        0.2786082E-01   0.2933857E-02   0.2774052E-02

 * 44 selected distances

     #   Z          #   Z                                           value/Å
     1   6 C        2   6 C                                       1.3245728
     3   6 C        4   8 O                                       1.2063640
     3   6 C        5   8 O                                       1.3388290
     5   8 O        6   6 C                                       1.4256981
     6   6 C        7   6 C                                       1.5208523
     7   6 C        8   6 C                                       1.5312217
     8   6 C        9   6 C                                       1.5269618
     9   6 C       10   6 C                                       1.5342077
    10   6 C       11   6 C                                       1.5351399
    11   6 C       12   6 C                                       1.5285142
    12   6 C       13   6 C                                       1.5276098
    13   6 C       14   6 C                                       1.5335423
    11   6 C       15   6 C                                       1.5393661 (max)
    15   6 C       16   6 C                                       1.5235477
    16   6 C       17   8 O                                       1.4258633
    17   8 O       18   6 C                                       1.3375509
    18   6 C       19   8 O                                       1.2077734
    20   6 C       21   6 C                                       1.3245376
     7   6 C       22   6 C                                       1.5371306
    13   6 C       22   6 C                                       1.5342149
     1   6 C       23   1 H                                       1.0780427
     1   6 C       24   1 H                                       1.0763919 (min)
     2   6 C       25   1 H                                       1.0793374
     6   6 C       26   1 H                                       1.0968265
     6   6 C       27   1 H                                       1.0963919
     7   6 C       28   1 H                                       1.0932777
     8   6 C       29   1 H                                       1.0915961
     8   6 C       30   1 H                                       1.0883623
     9   6 C       31   1 H                                       1.0903565
     9   6 C       32   1 H                                       1.0890634
    10   6 C       33   1 H                                       1.0913662
    11   6 C       34   1 H                                       1.0886908
    12   6 C       35   1 H                                       1.0874732
    12   6 C       36   1 H                                       1.0868802
    13   6 C       37   1 H                                       1.0887926
    14   6 C       38   1 H                                       1.0899468
    14   6 C       39   1 H                                       1.0888502
    15   6 C       40   1 H                                       1.0926981
    16   6 C       41   1 H                                       1.0967823
    16   6 C       42   1 H                                       1.0954488
    20   6 C       43   1 H                                       1.0805584
    21   6 C       44   1 H                                       1.0769258
    21   6 C       45   1 H                                       1.0771246
    22   6 C       46   1 H                                       1.0919321

 * 3 distinct bonds (by element types)

   Z      Z             #   av. dist./Å        max./Å        min./Å
   1 H    6 C          24     1.0880465     1.0968265     1.0763919
   6 C    6 C          14     1.5015300     1.5393661     1.3245376
   6 C    8 O           6     1.3236798     1.4258633     1.2063640


optimized geometry written to: xtbopt.xyz


           -------------------------------------------------
          | TOTAL ENERGY              -67.061253617845 Eh   |
          | GRADIENT NORM               0.000459919290 Eh/α |
          | HOMO-LUMO GAP               3.678903397994 eV   |
           -------------------------------------------------

------------------------------------------------------------------------
 * finished run on 2025/12/01 at 14:23:15.287     
------------------------------------------------------------------------
 total:
 * wall-time:     0 d,  0 h,  0 min,  0.739 sec
 *  cpu-time:     0 d,  0 h,  0 min, 16.864 sec
 * ratio c/w:    22.831 speedup
 SCF:
 * wall-time:     0 d,  0 h,  0 min,  0.044 sec
 *  cpu-time:     0 d,  0 h,  0 min,  0.993 sec
 * ratio c/w:    22.780 speedup
 ANC optimizer:
 * wall-time:     0 d,  0 h,  0 min,  0.684 sec
 *  cpu-time:     0 d,  0 h,  0 min, 15.655 sec
 * ratio c/w:    22.894 speedup

normal termination of xtb
