      -----------------------------------------------------------      
     |                   =====================                   |     
     |                           x T B                           |     
     |                   =====================                   |     
     |                         S. Grimme                         |     
     |          Mulliken Center for Theoretical Chemistry        |     
     |                    University of Bonn                     |     
      -----------------------------------------------------------      

   * xtb version 6.7.1 (edcfbbe) compiled by 'albert@albert-system' on 2024-07-22

   xtb is free software: you can redistribute it and/or modify it under
   the terms of the GNU Lesser General Public License as published by
   the Free Software Foundation, either version 3 of the License, or
   (at your option) any later version.
   
   xtb is distributed in the hope that it will be useful,
   but WITHOUT ANY WARRANTY; without even the implied warranty of
   MERCHANTABILITY or FITNESS FOR A PARTICULAR PURPOSE.  See the
   GNU Lesser General Public License for more details.
   
   Cite this work as:
   * C. Bannwarth, E. Caldeweyher, S. Ehlert, A. Hansen, P. Pracht,
     J. Seibert, S. Spicher, S. Grimme, WIREs Comput. Mol. Sci., 2020, 11,
     e01493. DOI: 10.1002/wcms.1493
   
   for GFN2-xTB:
   * C. Bannwarth, S. Ehlert and S. Grimme., J. Chem. Theory Comput., 2019,
     15, 1652-1671. DOI: 10.1021/acs.jctc.8b01176
   for GFN1-xTB:
   * S. Grimme, C. Bannwarth, P. Shushkov, J. Chem. Theory Comput., 2017,
     13, 1989-2009. DOI: 10.1021/acs.jctc.7b00118
   for GFN0-xTB:
   * P. Pracht, E. Caldeweyher, S. Ehlert, S. Grimme, ChemRxiv, 2019, preprint.
     DOI: 10.26434/chemrxiv.8326202.v1
   for GFN-FF:
   * S. Spicher and S. Grimme, Angew. Chem. Int. Ed., 2020, 59, 15665-15673.
     DOI: 10.1002/anie.202004239
   
   for ALPB and GBSA implicit solvation:
   * S. Ehlert, M. Stahn, S. Spicher, S. Grimme, J. Chem. Theory Comput.,
     2021, 17, 4250-4261. DOI: 10.1021/acs.jctc.1c00471
   
   for ddCOSMO and CPCM-X implicit solvation:
   * M. Stahn, S. Ehlert, S. Grimme, J. Phys. Chem. A,
     2023, XX, XXXX-XXXX. DOI: 10.1021/acs.jpca.3c04382
   
   for DFT-D4:
   * E. Caldeweyher, C. Bannwarth and S. Grimme, J. Chem. Phys., 2017,
     147, 034112. DOI: 10.1063/1.4993215
   * E. Caldeweyher, S. Ehlert, A. Hansen, H. Neugebauer, S. Spicher,
     C. Bannwarth and S. Grimme, J. Chem. Phys., 2019, 150, 154122.
     DOI: 10.1063/1.5090222
   * E. Caldeweyher, J.-M. Mewes, S. Ehlert and S. Grimme, Phys. Chem. Chem. Phys.
     2020, 22, 8499-8512. DOI: 10.1039/D0CP00502A
   
   for sTDA-xTB:
   * S. Grimme and C. Bannwarth, J. Chem. Phys., 2016, 145, 054103.
     DOI: 10.1063/1.4959605
   
   in the mass-spec context:
   * V. Asgeirsson, C. Bauer and S. Grimme, Chem. Sci., 2017, 8, 4879.
     DOI: 10.1039/c7sc00601b
   * J. Koopman and S. Grimme, ACS Omega 2019, 4, 12, 15120-15133.
     DOI: 10.1021/acsomega.9b02011
   
   for metadynamics refer to:
   * S. Grimme, J. Chem. Theory Comput., 2019, 155, 2847-2862
     DOI: 10.1021/acs.jctc.9b00143
   
   for SPH calculations refer to:
   * S. Spicher and S. Grimme, J. Chem. Theory Comput., 2021, 17, 1701-1714
     DOI: 10.1021/acs.jctc.0c01306
   
   for ONIOM refer to:
   * C. Plett, A. Katbashev, S. Ehlert, S. Grimme, M. Bursch,
     Phys. Chem. Chem. Phys., 2023, 25, 17860-17868. DOI: 10.1039/D3CP02178E
   
   for DIPRO refer to:
   * J. Kohn, N. Gildemeister, S. Grimme, D. Fazzi, A. Hansen,
     J. Chem. Phys., 2023, just accepted.
   
   for PTB refer to:
   * S. Grimme, M. Mueller, A. Hansen, J. Chem. Phys., 2023, 158, 124111.
     DOI: 10.1063/5.0137838
   
   with help from (in alphabetical order)
   P. Atkinson, C. Bannwarth, F. Bohle, G. Brandenburg, E. Caldeweyher
   M. Checinski, S. Dohm, S. Ehlert, S. Ehrlich, I. Gerasimov, C. Hölzer
   A. Katbashev, J. Kohn, J. Koopman, C. Lavigne, S. Lehtola, F. März, M. Müller,
   F. Musil, H. Neugebauer, J. Pisarek, C. Plett, P. Pracht, F. Pultar,
   J. Seibert, P. Shushkov, S. Spicher, M. Stahn, M. Steiner, T. Strunk,
   J. Stückrath, T. Rose, and J. Unsleber
   
 * started run on 2025/12/01 at 14:23:11.989     
   ID    Z sym.   atoms
    1    6 C      1-3, 6-16, 18, 20-22
    2    8 O      4, 5, 17, 19
    3    1 H      23-46

           -------------------------------------------------
          |                Calculation Setup                |
           -------------------------------------------------

          program call               : xtb pipeline_data/3_conformer_xyz/acrylates/rdkit/VEBCLRKUSAGCDF-RWLZTCESSA-N_conf26.xyz --opt --gfn 2-xTB --iterations 250
          coordinate file            : pipeline_data/3_conformer_xyz/acrylates/rdkit/VEBCLRKUSAGCDF-RWLZTCESSA-N_conf26.xyz
          omp threads                :                    24

########################################################################
[WARNING] Please study the warnings concerning your input carefully
-1- readin_getIntValue: could not parse '2-xTB'
########################################################################

           -------------------------------------------------
          |                 G F N 2 - x T B                 |
           -------------------------------------------------

        Reference                      10.1021/acs.jctc.8b01176
      * Hamiltonian:
        H0-scaling (s, p, d)           1.850000    2.230000    2.230000
        zeta-weighting                 0.500000
      * Dispersion:
        s8                             2.700000
        a1                             0.520000
        a2                             5.000000
        s9                             5.000000
      * Repulsion:
        kExp                           1.500000    1.000000
        rExp                           1.000000
      * Coulomb:
        alpha                          2.000000
        third order                    shell-resolved
        anisotropic                    true
        a3                             3.000000
        a5                             4.000000
        cn-shift                       1.200000
        cn-exp                         4.000000
        max-rad                        5.000000


          ...................................................
          :                      SETUP                      :
          :.................................................:
          :  # basis functions                 112          :
          :  # atomic orbitals                 112          :
          :  # shells                           68          :
          :  # electrons                       120          :
          :  max. iterations                   250          :
          :  Hamiltonian                  GFN2-xTB          :
          :  restarted?                      false          :
          :  GBSA solvation                  false          :
          :  PC potential                    false          :
          :  electronic temp.          300.0000000     K    :
          :  accuracy                    1.0000000          :
          :  -> integral cutoff          0.2500000E+02      :
          :  -> integral neglect         0.1000000E-07      :
          :  -> SCF convergence          0.1000000E-05 Eh   :
          :  -> wf. convergence          0.1000000E-03 e    :
          :  Broyden damping             0.4000000          :
          :  net charge                          0          :
          :  unpaired electrons                  0          :
          ...................................................

 iter      E             dE          RMSdq      gap      omega  full diag
   1    -67.6992218 -0.676992E+02  0.421E+00    4.08       0.0  T
   2    -67.8364035 -0.137182E+00  0.224E+00    3.02       1.0  T
   3    -67.8401102 -0.370670E-02  0.127E+00    3.44       1.0  T
   4    -67.8503176 -0.102073E-01  0.218E-01    3.14       1.0  T
   5    -67.8513091 -0.991556E-03  0.108E-01    3.22       1.0  T
   6    -67.8515232 -0.214119E-03  0.565E-02    3.22       1.0  T
   7    -67.8515647 -0.414547E-04  0.152E-02    3.22       1.0  T
   8    -67.8515658 -0.114589E-05  0.631E-03    3.22       2.3  T
   9    -67.8515660 -0.160995E-06  0.339E-03    3.22       4.4  T
  10    -67.8515663 -0.278175E-06  0.147E-03    3.22      10.1  T
  11    -67.8515663 -0.210231E-07  0.621E-04    3.22      23.8  T
  12    -67.8515663 -0.280522E-08  0.156E-04    3.22      94.3  T

   *** convergence criteria satisfied after 12 iterations ***

         #    Occupation            Energy/Eh            Energy/eV
      -------------------------------------------------------------
         1        2.0000           -0.7323805             -19.9291
       ...           ...                  ...                  ...
        54        2.0000           -0.4255364             -11.5794
        55        2.0000           -0.4225421             -11.4980
        56        2.0000           -0.4222929             -11.4912
        57        2.0000           -0.4181626             -11.3788
        58        2.0000           -0.4110054             -11.1840
        59        2.0000           -0.4091760             -11.1342
        60        2.0000           -0.4071530             -11.0792 (HOMO)
        61                         -0.2888225              -7.8593 (LUMO)
        62                         -0.2850061              -7.7554
        63                         -0.1767162              -4.8087
        64                         -0.1731518              -4.7117
        65                         -0.0169370              -0.4609
       ...                                ...                  ...
       112                          0.6333938              17.2355
      -------------------------------------------------------------
                  HL-Gap            0.1183305 Eh            3.2199 eV
             Fermi-level           -0.3479878 Eh           -9.4692 eV

 SCC (total)                   0 d,  0 h,  0 min,  0.085 sec
 SCC setup                      ...        0 min,  0.000 sec (  0.311%)
 Dispersion                     ...        0 min,  0.001 sec (  0.606%)
 classical contributions        ...        0 min,  0.000 sec (  0.083%)
 integral evaluation            ...        0 min,  0.002 sec (  2.544%)
 iterations                     ...        0 min,  0.075 sec ( 88.243%)
 molecular gradient             ...        0 min,  0.007 sec (  7.761%)
 printout                       ...        0 min,  0.000 sec (  0.420%)

         :::::::::::::::::::::::::::::::::::::::::::::::::::::
         ::                     SUMMARY                     ::
         :::::::::::::::::::::::::::::::::::::::::::::::::::::
         :: total energy             -67.022623904585 Eh    ::
         :: gradient norm              0.183502996238 Eh/a0 ::
         :: HOMO-LUMO gap              3.219937402522 eV    ::
         ::.................................................::
         :: SCC energy               -67.851410996833 Eh    ::
         :: -> isotropic ES            0.094710890328 Eh    ::
         :: -> anisotropic ES          0.001481768893 Eh    ::
         :: -> anisotropic XC          0.023556937756 Eh    ::
         :: -> dispersion             -0.045144205958 Eh    ::
         :: repulsion energy           0.828787092247 Eh    ::
         :: add. restraining           0.000000000000 Eh    ::
         :: total charge              -0.000000000000 e     ::
         :::::::::::::::::::::::::::::::::::::::::::::::::::::

      ----------------------------------------------------------- 
     |                   =====================                   |
     |                        A N C O P T                        |
     |                   =====================                   |
     |               Approximate Normal Coordinate               |
     |                Rational Function Optimizer                |
      ----------------------------------------------------------- 
      ----------------------------------------------------------- 
     |                   =====================                   |
     |                        A N C O P T                        |
     |                   =====================                   |
     |               Approximate Normal Coordinate               |
     |                Rational Function Optimizer                |
      ----------------------------------------------------------- 

          ...................................................
          :                      SETUP                      :
          :.................................................:
          :   optimization level            normal          :
          :   max. optcycles                   200          :
          :   ANC micro-cycles                  20          :
          :   degrees of freedom               132          :
          :.................................................:
          :   RF solver                   davidson          :
          :   write xtbopt.log                true          :
          :   linear?                        false          :
          :   energy convergence         0.5000000E-05 Eh   :
          :   grad. convergence          0.1000000E-02 Eh/α :
          :   maxmium RF displ.          1.0000000          :
          :   Hlow (freq-cutoff)         0.1000000E-01      :
          :   Hmax (freq-cutoff)         5.0000000          :
          :   S6 in model hess.         20.0000000          :
          ...................................................

generating ANC from exact Hessian ...
Using Lindh-Hessian (1995)
 Shifting diagonal of input Hessian by   9.798350178978172E-003
 Lowest  eigenvalues of input Hessian
    0.000000    0.000000    0.000000    0.000000    0.000000    0.000000
    0.010000    0.010060    0.010451    0.010612    0.011289    0.011512
    0.012298    0.013471    0.014585    0.015786    0.017095    0.017436
 Highest eigenvalues
    1.723492    1.756315    1.992622    1.994211    2.122451    2.145639
 

........................................................................
.............................. CYCLE    1 ..............................
........................................................................

 iter      E             dE          RMSdq      gap      omega  full diag
   1    -67.8515663 -0.678516E+02  0.747E-05    3.22       0.0  T
   2    -67.8515663 -0.241300E-10  0.449E-05    3.22     328.7  T
   3    -67.8515663  0.103739E-11  0.253E-05    3.22     583.5  T
     SCC iter.                  ...        0 min,  0.009 sec
     gradient                   ...        0 min,  0.005 sec
 * total energy  :   -67.0226239 Eh     change       -0.3630163E-09 Eh
   gradient norm :     0.1835029 Eh/α   predicted     0.0000000E+00 (-100.00%)
   displ. norm   :     0.4179144 α      lambda       -0.4293729E-01
   maximum displ.:     0.1201035 α      in ANC's #25, #50, #46, ...

........................................................................
.............................. CYCLE    2 ..............................
........................................................................

 iter      E             dE          RMSdq      gap      omega  full diag
   1    -67.8933567 -0.678934E+02  0.272E-01    3.39       0.0  T
   2    -67.8937540 -0.397266E-03  0.172E-01    3.40       1.0  T
   3    -67.8936436  0.110378E-03  0.908E-02    3.41       1.0  T
   4    -67.8938114 -0.167826E-03  0.349E-02    3.41       1.0  T
   5    -67.8938487 -0.372680E-04  0.828E-03    3.40       1.8  T
   6    -67.8938495 -0.784101E-06  0.445E-03    3.41       3.3  T
   7    -67.8938496 -0.902392E-07  0.137E-03    3.41      10.7  T
   8    -67.8938496 -0.314445E-08  0.701E-04    3.41      21.0  T
   9    -67.8938496 -0.619474E-08  0.353E-04    3.41      41.8  T
     SCC iter.                  ...        0 min,  0.025 sec
     gradient                   ...        0 min,  0.006 sec
 * total energy  :   -67.0526585 Eh     change       -0.3003459E-01 Eh
   gradient norm :     0.0724992 Eh/α   predicted    -0.2524007E-01 ( -15.96%)
   displ. norm   :     0.3843429 α      lambda       -0.1346772E-01
   maximum displ.:     0.1560683 α      in ANC's #25, #23, #46, ...

........................................................................
.............................. CYCLE    3 ..............................
........................................................................

 iter      E             dE          RMSdq      gap      omega  full diag
   1    -67.9100784 -0.679101E+02  0.187E-01    3.54       0.0  T
   2    -67.9102266 -0.148204E-03  0.117E-01    3.56       1.0  T
   3    -67.9101478  0.787915E-04  0.660E-02    3.55       1.0  T
   4    -67.9102562 -0.108327E-03  0.211E-02    3.56       1.0  T
   5    -67.9102692 -0.130836E-04  0.489E-03    3.56       3.0  T
   6    -67.9102695 -0.246538E-06  0.249E-03    3.56       5.9  T
   7    -67.9102695 -0.285125E-07  0.800E-04    3.56      18.4  T
   8    -67.9102695 -0.274936E-08  0.323E-04    3.56      45.7  T
     SCC iter.                  ...        0 min,  0.023 sec
     gradient                   ...        0 min,  0.005 sec
 * total energy  :   -67.0607392 Eh     change       -0.8080730E-02 Eh
   gradient norm :     0.0199564 Eh/α   predicted    -0.7731647E-02 (  -4.32%)
   displ. norm   :     0.3026242 α      lambda       -0.2474664E-02
   maximum displ.:     0.1196395 α      in ANC's #10, #9, #25, ...

........................................................................
.............................. CYCLE    4 ..............................
........................................................................

 iter      E             dE          RMSdq      gap      omega  full diag
   1    -67.9072237 -0.679072E+02  0.103E-01    3.59       0.0  T
   2    -67.9072349 -0.111837E-04  0.610E-02    3.59       1.0  T
   3    -67.9072186  0.163317E-04  0.241E-02    3.59       1.0  T
   4    -67.9072368 -0.182464E-04  0.600E-03    3.59       2.5  T
   5    -67.9072380 -0.120311E-05  0.168E-03    3.59       8.8  T
   6    -67.9072381 -0.131382E-07  0.903E-04    3.59      16.3  T
   7    -67.9072381 -0.431733E-08  0.200E-04    3.59      73.8  T
     SCC iter.                  ...        0 min,  0.020 sec
     gradient                   ...        0 min,  0.005 sec
 * total energy  :   -67.0624624 Eh     change       -0.1723129E-02 Eh
   gradient norm :     0.0118620 Eh/α   predicted    -0.1350674E-02 ( -21.62%)
   displ. norm   :     0.3452462 α      lambda       -0.1454094E-02
   maximum displ.:     0.1719420 α      in ANC's #10, #6, #9, ...

........................................................................
.............................. CYCLE    5 ..............................
........................................................................

 iter      E             dE          RMSdq      gap      omega  full diag
   1    -67.9054571 -0.679055E+02  0.109E-01    3.61       0.0  T
   2    -67.9054660 -0.890796E-05  0.640E-02    3.62       1.0  T
   3    -67.9054585  0.754861E-05  0.178E-02    3.61       1.0  T
   4    -67.9054673 -0.887598E-05  0.572E-03    3.62       2.6  T
   5    -67.9054684 -0.103073E-05  0.190E-03    3.62       7.7  T
   6    -67.9054684 -0.206992E-07  0.950E-04    3.62      15.5  T
   7    -67.9054684 -0.597913E-08  0.201E-04    3.62      73.5  T
     SCC iter.                  ...        0 min,  0.020 sec
     gradient                   ...        0 min,  0.005 sec
 * total energy  :   -67.0633678 Eh     change       -0.9054824E-03 Eh
   gradient norm :     0.0092568 Eh/α   predicted    -0.8137182E-03 ( -10.13%)
   displ. norm   :     0.2937153 α      lambda       -0.7607737E-03
   maximum displ.:     0.1513901 α      in ANC's #10, #6, #9, ...

........................................................................
.............................. CYCLE    6 ..............................
........................................................................

 iter      E             dE          RMSdq      gap      omega  full diag
   1    -67.9055318 -0.679055E+02  0.102E-01    3.64       0.0  T
   2    -67.9055348 -0.301010E-05  0.601E-02    3.64       1.0  T
   3    -67.9055345  0.383110E-06  0.721E-03    3.63       2.0  T
   4    -67.9055359 -0.139977E-05  0.275E-03    3.64       5.4  T
   5    -67.9055359 -0.316301E-07  0.174E-03    3.64       8.4  T
   6    -67.9055359 -0.521461E-07  0.538E-04    3.64      27.4  T
   7    -67.9055359 -0.334741E-08  0.144E-04    3.64     102.1  T
     SCC iter.                  ...        0 min,  0.020 sec
     gradient                   ...        0 min,  0.005 sec
 * total energy  :   -67.0638026 Eh     change       -0.4347672E-03 Eh
   gradient norm :     0.0123670 Eh/α   predicted    -0.4132031E-03 (  -4.96%)
   displ. norm   :     0.2167333 α      lambda       -0.4705027E-03
   maximum displ.:     0.1162447 α      in ANC's #6, #10, #9, ...

........................................................................
.............................. CYCLE    7 ..............................
........................................................................

 iter      E             dE          RMSdq      gap      omega  full diag
   1    -67.9092948 -0.679093E+02  0.723E-02    3.65       0.0  T
   2    -67.9092997 -0.488428E-05  0.426E-02    3.65       1.0  T
   3    -67.9092989  0.875307E-06  0.708E-03    3.65       2.1  T
   4    -67.9092997 -0.826916E-06  0.407E-03    3.65       3.6  T
   5    -67.9093003 -0.589638E-06  0.105E-03    3.65      14.1  T
   6    -67.9093003 -0.180064E-08  0.432E-04    3.65      34.1  T
   7    -67.9093003 -0.184697E-08  0.111E-04    3.65     132.9  T
     SCC iter.                  ...        0 min,  0.020 sec
     gradient                   ...        0 min,  0.005 sec
 * total energy  :   -67.0641310 Eh     change       -0.3283651E-03 Eh
   gradient norm :     0.0076323 Eh/α   predicted    -0.2463251E-03 ( -24.98%)
   displ. norm   :     0.2592934 α      lambda       -0.3423729E-03
   maximum displ.:     0.1629842 α      in ANC's #6, #10, #7, ...

........................................................................
.............................. CYCLE    8 ..............................
........................................................................

 iter      E             dE          RMSdq      gap      omega  full diag
   1    -67.9111079 -0.679111E+02  0.894E-02    3.67       0.0  T
   2    -67.9111101 -0.215079E-05  0.526E-02    3.67       1.0  T
   3    -67.9111096  0.530841E-06  0.628E-03    3.67       2.3  T
   4    -67.9111106 -0.108738E-05  0.272E-03    3.67       5.4  T
   5    -67.9111108 -0.175228E-06  0.131E-03    3.67      11.3  T
   6    -67.9111108 -0.947976E-08  0.495E-04    3.67      29.8  T
   7    -67.9111108 -0.310440E-08  0.974E-05    3.67     151.4  T
     SCC iter.                  ...        0 min,  0.020 sec
     gradient                   ...        0 min,  0.005 sec
 * total energy  :   -67.0643705 Eh     change       -0.2395657E-03 Eh
   gradient norm :     0.0059327 Eh/α   predicted    -0.1826966E-03 ( -23.74%)
   displ. norm   :     0.2455729 α      lambda       -0.2357424E-03
   maximum displ.:     0.1568022 α      in ANC's #6, #1, #3, ...

........................................................................
.............................. CYCLE    9 ..............................
........................................................................

 iter      E             dE          RMSdq      gap      omega  full diag
   1    -67.9116696 -0.679117E+02  0.883E-02    3.67       0.0  T
   2    -67.9116714 -0.184999E-05  0.522E-02    3.68       1.0  T
   3    -67.9116705  0.908162E-06  0.627E-03    3.68       2.4  T
   4    -67.9116719 -0.138723E-05  0.250E-03    3.68       5.9  T
   5    -67.9116721 -0.144567E-06  0.119E-03    3.68      12.4  T
   6    -67.9116721 -0.786456E-08  0.471E-04    3.68      31.3  T
   7    -67.9116721 -0.157165E-08  0.110E-04    3.68     134.1  T
     SCC iter.                  ...        0 min,  0.020 sec
     gradient                   ...        0 min,  0.006 sec
 * total energy  :   -67.0645188 Eh     change       -0.1483164E-03 Eh
   gradient norm :     0.0055830 Eh/α   predicted    -0.1249816E-03 ( -15.73%)
   displ. norm   :     0.2295554 α      lambda       -0.1732284E-03
   maximum displ.:     0.1429143 α      in ANC's #6, #7, #1, ...

........................................................................
.............................. CYCLE   10 ..............................
........................................................................

 iter      E             dE          RMSdq      gap      omega  full diag
   1    -67.9112824 -0.679113E+02  0.852E-02    3.70       0.0  T
   2    -67.9112867 -0.429894E-05  0.502E-02    3.70       1.0  T
   3    -67.9112862  0.438959E-06  0.569E-03    3.70       2.6  T
   4    -67.9112868 -0.576992E-06  0.329E-03    3.70       4.5  T
   5    -67.9112872 -0.371586E-06  0.103E-03    3.70      14.3  T
   6    -67.9112872 -0.372737E-08  0.453E-04    3.70      32.5  T
   7    -67.9112872 -0.184474E-08  0.116E-04    3.70     127.4  T
     SCC iter.                  ...        0 min,  0.020 sec
     gradient                   ...        0 min,  0.006 sec
 * total energy  :   -67.0646085 Eh     change       -0.8962476E-04 Eh
   gradient norm :     0.0054987 Eh/α   predicted    -0.9117999E-04 (   1.74%)
   displ. norm   :     0.1270699 α      lambda       -0.8512577E-04
   maximum displ.:     0.0830278 α      in ANC's #6, #1, #7, ...

........................................................................
.............................. CYCLE   11 ..............................
........................................................................

 iter      E             dE          RMSdq      gap      omega  full diag
   1    -67.9106612 -0.679107E+02  0.491E-02    3.69       0.0  T
   2    -67.9106624 -0.126340E-05  0.291E-02    3.69       1.0  T
   3    -67.9106625 -0.244010E-07  0.223E-03    3.70       6.6  T
   4    -67.9106625 -0.743453E-07  0.124E-03    3.69      11.9  T
   5    -67.9106626 -0.409510E-07  0.579E-04    3.69      25.5  T
   6    -67.9106626 -0.224819E-08  0.260E-04    3.69      56.6  T
     SCC iter.                  ...        0 min,  0.030 sec
     gradient                   ...        0 min,  0.007 sec
 * total energy  :   -67.0646701 Eh     change       -0.6158680E-04 Eh
   gradient norm :     0.0035193 Eh/α   predicted    -0.4325256E-04 ( -29.77%)
   displ. norm   :     0.1711998 α      lambda       -0.1038283E-03
   maximum displ.:     0.0905221 α      in ANC's #6, #1, #7, ...

........................................................................
.............................. CYCLE   12 ..............................
........................................................................

 iter      E             dE          RMSdq      gap      omega  full diag
   1    -67.9121767 -0.679122E+02  0.624E-02    3.70       0.0  T
   2    -67.9121782 -0.144599E-05  0.369E-02    3.70       1.0  T
   3    -67.9121778  0.328537E-06  0.409E-03    3.70       3.6  T
   4    -67.9121783 -0.474619E-06  0.145E-03    3.70      10.2  T
   5    -67.9121784 -0.564580E-07  0.629E-04    3.70      23.4  T
   6    -67.9121784 -0.578514E-08  0.336E-04    3.70      43.8  T
     SCC iter.                  ...        0 min,  0.018 sec
     gradient                   ...        0 min,  0.006 sec
 * total energy  :   -67.0647265 Eh     change       -0.5644089E-04 Eh
   gradient norm :     0.0050926 Eh/α   predicted    -0.5343983E-04 (  -5.32%)
   displ. norm   :     0.1867136 α      lambda       -0.7944880E-04
   maximum displ.:     0.1241250 α      in ANC's #6, #1, #7, ...

........................................................................
.............................. CYCLE   13 ..............................
........................................................................

 iter      E             dE          RMSdq      gap      omega  full diag
   1    -67.9099981 -0.679100E+02  0.774E-02    3.70       0.0  T
   2    -67.9100002 -0.211068E-05  0.457E-02    3.70       1.0  T
   3    -67.9099984  0.179999E-05  0.744E-03    3.70       2.0  T
   4    -67.9100004 -0.198376E-05  0.263E-03    3.70       5.6  T
   5    -67.9100006 -0.248739E-06  0.767E-04    3.70      19.2  T
   6    -67.9100006 -0.241029E-08  0.399E-04    3.70      37.0  T
     SCC iter.                  ...        0 min,  0.017 sec
     gradient                   ...        0 min,  0.006 sec
 * total energy  :   -67.0647670 Eh     change       -0.4052687E-04 Eh
   gradient norm :     0.0043336 Eh/α   predicted    -0.4111028E-04 (   1.44%)
   displ. norm   :     0.0831335 α      lambda       -0.5441170E-04
   maximum displ.:     0.0471683 α      in ANC's #1, #6, #10, ...

........................................................................
.............................. CYCLE   14 ..............................
........................................................................

 iter      E             dE          RMSdq      gap      omega  full diag
   1    -67.9108911 -0.679109E+02  0.288E-02    3.70       0.0  T
   2    -67.9108913 -0.156809E-06  0.170E-02    3.70       1.0  T
   3    -67.9108912  0.458169E-07  0.148E-03    3.70      10.0  T
   4    -67.9108913 -0.596016E-07  0.709E-04    3.70      20.8  T
   5    -67.9108913 -0.168004E-07  0.233E-04    3.70      63.2  T
     SCC iter.                  ...        0 min,  0.014 sec
     gradient                   ...        0 min,  0.027 sec
 * total energy  :   -67.0648073 Eh     change       -0.4023150E-04 Eh
   gradient norm :     0.0030267 Eh/α   predicted    -0.2739416E-04 ( -31.91%)
   displ. norm   :     0.1586403 α      lambda       -0.7217207E-04
   maximum displ.:     0.0917216 α      in ANC's #1, #6, #4, ...

........................................................................
.............................. CYCLE   15 ..............................
........................................................................

 iter      E             dE          RMSdq      gap      omega  full diag
   1    -67.9118161 -0.679118E+02  0.580E-02    3.71       0.0  T
   2    -67.9118168 -0.720422E-06  0.342E-02    3.71       1.0  T
   3    -67.9118167  0.374137E-07  0.206E-03    3.71       7.2  T
   4    -67.9118168 -0.106214E-06  0.930E-04    3.71      15.9  T
   5    -67.9118169 -0.247176E-07  0.381E-04    3.71      38.7  T
     SCC iter.                  ...        0 min,  0.014 sec
     gradient                   ...        0 min,  0.005 sec
 * total energy  :   -67.0648526 Eh     change       -0.4535541E-04 Eh
   gradient norm :     0.0027037 Eh/α   predicted    -0.3699695E-04 ( -18.43%)
   displ. norm   :     0.1638829 α      lambda       -0.4496303E-04
   maximum displ.:     0.0948488 α      in ANC's #1, #6, #4, ...

........................................................................
.............................. CYCLE   16 ..............................
........................................................................

 iter      E             dE          RMSdq      gap      omega  full diag
   1    -67.9113292 -0.679113E+02  0.622E-02    3.71       0.0  T
   2    -67.9113295 -0.314021E-06  0.366E-02    3.71       1.0  T
   3    -67.9113295  0.150726E-07  0.189E-03    3.71       7.8  T
   4    -67.9113296 -0.101355E-06  0.907E-04    3.71      16.3  T
   5    -67.9113296 -0.205074E-07  0.422E-04    3.71      35.0  T
     SCC iter.                  ...        0 min,  0.014 sec
     gradient                   ...        0 min,  0.005 sec
 * total energy  :   -67.0648844 Eh     change       -0.3174837E-04 Eh
   gradient norm :     0.0028378 Eh/α   predicted    -0.2308786E-04 ( -27.28%)
   displ. norm   :     0.1875930 α      lambda       -0.5325521E-04
   maximum displ.:     0.1116619 α      in ANC's #1, #6, #4, ...

........................................................................
.............................. CYCLE   17 ..............................
........................................................................

 iter      E             dE          RMSdq      gap      omega  full diag
   1    -67.9115241 -0.679115E+02  0.648E-02    3.72       0.0  T
   2    -67.9115244 -0.309608E-06  0.381E-02    3.72       1.0  T
   3    -67.9115243  0.783638E-07  0.231E-03    3.72       6.4  T
   4    -67.9115245 -0.171169E-06  0.933E-04    3.72      15.8  T
   5    -67.9115245 -0.229508E-07  0.404E-04    3.72      36.5  T
     SCC iter.                  ...        0 min,  0.014 sec
     gradient                   ...        0 min,  0.006 sec
 * total energy  :   -67.0649233 Eh     change       -0.3893570E-04 Eh
   gradient norm :     0.0027079 Eh/α   predicted    -0.2756759E-04 ( -29.20%)
   displ. norm   :     0.2448933 α      lambda       -0.5343626E-04
   maximum displ.:     0.1455868 α      in ANC's #1, #6, #4, ...

........................................................................
.............................. CYCLE   18 ..............................
........................................................................

 iter      E             dE          RMSdq      gap      omega  full diag
   1    -67.9107979 -0.679108E+02  0.880E-02    3.71       0.0  T
   2    -67.9107985 -0.545773E-06  0.518E-02    3.71       1.0  T
   3    -67.9107986 -0.738022E-07  0.213E-03    3.71       6.9  T
   4    -67.9107987 -0.118574E-06  0.109E-03    3.71      13.5  T
   5    -67.9107987 -0.172806E-07  0.588E-04    3.71      25.1  T
   6    -67.9107987 -0.417535E-08  0.193E-04    3.71      76.6  T
     SCC iter.                  ...        0 min,  0.017 sec
     gradient                   ...        0 min,  0.005 sec
 * total energy  :   -67.0649578 Eh     change       -0.3454454E-04 Eh
   gradient norm :     0.0026491 Eh/α   predicted    -0.2832187E-04 ( -18.01%)
   displ. norm   :     0.1329198 α      lambda       -0.3298150E-04
   maximum displ.:     0.0862382 α      in ANC's #1, #4, #3, ...

........................................................................
.............................. CYCLE   19 ..............................
........................................................................

 iter      E             dE          RMSdq      gap      omega  full diag
   1    -67.9122381 -0.679122E+02  0.401E-02    3.71       0.0  T
   2    -67.9122382 -0.148717E-06  0.236E-02    3.71       1.0  T
   3    -67.9122381  0.160382E-06  0.225E-03    3.71       6.6  T
   4    -67.9122383 -0.201121E-06  0.640E-04    3.71      23.0  T
   5    -67.9122383 -0.121387E-07  0.236E-04    3.71      62.5  T
     SCC iter.                  ...        0 min,  0.022 sec
     gradient                   ...        0 min,  0.004 sec
 * total energy  :   -67.0649756 Eh     change       -0.1775525E-04 Eh
   gradient norm :     0.0024600 Eh/α   predicted    -0.1678659E-04 (  -5.46%)
   displ. norm   :     0.1274447 α      lambda       -0.2070087E-04
   maximum displ.:     0.0801669 α      in ANC's #1, #6, #3, ...

........................................................................
.............................. CYCLE   20 ..............................
........................................................................

 iter      E             dE          RMSdq      gap      omega  full diag
   1    -67.9116132 -0.679116E+02  0.446E-02    3.71       0.0  T
   2    -67.9116135 -0.307999E-06  0.263E-02    3.71       1.0  T
   3    -67.9116133  0.166279E-06  0.255E-03    3.71       5.8  T
   4    -67.9116136 -0.226028E-06  0.899E-04    3.71      16.4  T
   5    -67.9116136 -0.227294E-07  0.347E-04    3.71      42.5  T
     SCC iter.                  ...        0 min,  0.044 sec
     gradient                   ...        0 min,  0.012 sec
 * total energy  :   -67.0649872 Eh     change       -0.1161845E-04 Eh
   gradient norm :     0.0019077 Eh/α   predicted    -0.1052355E-04 (  -9.42%)
   displ. norm   :     0.0948181 α      lambda       -0.1236454E-04
   maximum displ.:     0.0638464 α      in ANC's #1, #3, #4, ...
 * RMSD in coord.:     0.4594364 α      energy gain  -0.4236331E-01 Eh

generating ANC from exact Hessian ...
Using Lindh-Hessian (1995)
 Shifting diagonal of input Hessian by   9.801193014680827E-003
 Lowest  eigenvalues of input Hessian
    0.000000    0.000000    0.000000    0.000000    0.000000    0.000000
    0.010000    0.010082    0.010405    0.010612    0.011391    0.011852
    0.012021    0.013746    0.014117    0.016134    0.016439    0.017203
 Highest eigenvalues
    1.754246    1.754479    2.026720    2.026774    2.392653    2.392931
 

........................................................................
.............................. CYCLE   21 ..............................
........................................................................

 iter      E             dE          RMSdq      gap      omega  full diag
   1    -67.9118304 -0.679118E+02  0.326E-02    3.71       0.0  T
   2    -67.9118305 -0.153013E-06  0.192E-02    3.71       1.0  T
   3    -67.9118304  0.141856E-06  0.218E-03    3.71       6.8  T
   4    -67.9118306 -0.176294E-06  0.651E-04    3.71      22.7  T
   5    -67.9118306 -0.120140E-07  0.243E-04    3.71      60.7  T
     SCC iter.                  ...        0 min,  0.046 sec
     gradient                   ...        0 min,  0.007 sec
 * total energy  :   -67.0649983 Eh     change       -0.1105086E-04 Eh
   gradient norm :     0.0014018 Eh/α   predicted     0.0000000E+00 (-100.00%)
   displ. norm   :     0.0295533 α      lambda       -0.7590044E-05
   maximum displ.:     0.0134577 α      in ANC's #1, #6, #2, ...

........................................................................
.............................. CYCLE   22 ..............................
........................................................................

 iter      E             dE          RMSdq      gap      omega  full diag
   1    -67.9119461 -0.679119E+02  0.127E-02    3.71       0.0  T
   2    -67.9119462 -0.763941E-07  0.752E-03    3.71       2.0  T
   3    -67.9119461  0.814614E-07  0.158E-03    3.71       9.3  T
   4    -67.9119462 -0.885926E-07  0.532E-04    3.71      27.7  T
   5    -67.9119462 -0.989139E-08  0.140E-04    3.71     105.5  T
     SCC iter.                  ...        0 min,  0.014 sec
     gradient                   ...        0 min,  0.005 sec
 * total energy  :   -67.0650052 Eh     change       -0.6976611E-05 Eh
   gradient norm :     0.0007847 Eh/α   predicted    -0.4008843E-05 ( -42.54%)
   displ. norm   :     0.0581402 α      lambda       -0.9643134E-05
   maximum displ.:     0.0278970 α      in ANC's #1, #6, #2, ...

........................................................................
.............................. CYCLE   23 ..............................
........................................................................

 iter      E             dE          RMSdq      gap      omega  full diag
   1    -67.9120224 -0.679120E+02  0.216E-02    3.72       0.0  T
   2    -67.9120225 -0.173697E-06  0.127E-02    3.72       1.2  T
   3    -67.9120224  0.128849E-06  0.202E-03    3.72       7.3  T
   4    -67.9120226 -0.142068E-06  0.763E-04    3.72      19.3  T
   5    -67.9120226 -0.200499E-07  0.203E-04    3.72      72.6  T
     SCC iter.                  ...        0 min,  0.015 sec
     gradient                   ...        0 min,  0.008 sec
 * total energy  :   -67.0650140 Eh     change       -0.8796081E-05 Eh
   gradient norm :     0.0015318 Eh/α   predicted    -0.4865255E-05 ( -44.69%)
   displ. norm   :     0.0900511 α      lambda       -0.1120178E-04
   maximum displ.:     0.0444529 α      in ANC's #1, #6, #2, ...

........................................................................
.............................. CYCLE   24 ..............................
........................................................................

 iter      E             dE          RMSdq      gap      omega  full diag
   1    -67.9119301 -0.679119E+02  0.323E-02    3.72       0.0  T
   2    -67.9119302 -0.129256E-06  0.190E-02    3.72       1.0  T
   3    -67.9119302 -0.966610E-08  0.877E-04    3.72      16.8  T
   4    -67.9119302 -0.208028E-07  0.368E-04    3.72      40.1  T
     SCC iter.                  ...        0 min,  0.012 sec
     gradient                   ...        0 min,  0.008 sec
 * total energy  :   -67.0650251 Eh     change       -0.1102754E-04 Eh
   gradient norm :     0.0016808 Eh/α   predicted    -0.5623853E-05 ( -49.00%)
   displ. norm   :     0.1170380 α      lambda       -0.1181566E-04
   maximum displ.:     0.0606431 α      in ANC's #1, #2, #6, ...

........................................................................
.............................. CYCLE   25 ..............................
........................................................................

 iter      E             dE          RMSdq      gap      omega  full diag
   1    -67.9117834 -0.679118E+02  0.420E-02    3.72       0.0  T
   2    -67.9117835 -0.107690E-06  0.247E-02    3.72       1.0  T
   3    -67.9117834  0.333980E-07  0.156E-03    3.72       9.5  T
   4    -67.9117835 -0.849525E-07  0.563E-04    3.72      26.2  T
   5    -67.9117835 -0.402137E-08  0.287E-04    3.72      51.4  T
     SCC iter.                  ...        0 min,  0.014 sec
     gradient                   ...        0 min,  0.006 sec
 * total energy  :   -67.0650369 Eh     change       -0.1178747E-04 Eh
   gradient norm :     0.0014329 Eh/α   predicted    -0.5945330E-05 ( -49.56%)
   displ. norm   :     0.0835172 α      lambda       -0.7139614E-05
   maximum displ.:     0.0491337 α      in ANC's #1, #2, #6, ...

........................................................................
.............................. CYCLE   26 ..............................
........................................................................

 iter      E             dE          RMSdq      gap      omega  full diag
   1    -67.9119294 -0.679119E+02  0.281E-02    3.72       0.0  T
   2    -67.9119295 -0.160196E-06  0.165E-02    3.71       1.0  T
   3    -67.9119294  0.139653E-06  0.210E-03    3.71       7.0  T
   4    -67.9119296 -0.160738E-06  0.762E-04    3.71      19.3  T
   5    -67.9119296 -0.185581E-07  0.215E-04    3.71      68.4  T
     SCC iter.                  ...        0 min,  0.014 sec
     gradient                   ...        0 min,  0.007 sec
 * total energy  :   -67.0650447 Eh     change       -0.7837220E-05 Eh
   gradient norm :     0.0007572 Eh/α   predicted    -0.3583357E-05 ( -54.28%)
   displ. norm   :     0.0650028 α      lambda       -0.4876200E-05
   maximum displ.:     0.0429681 α      in ANC's #1, #2, #7, ...

........................................................................
.............................. CYCLE   27 ..............................
........................................................................

 iter      E             dE          RMSdq      gap      omega  full diag
   1    -67.9119274 -0.679119E+02  0.203E-02    3.71       0.0  T
   2    -67.9119275 -0.100190E-06  0.120E-02    3.71       1.2  T
   3    -67.9119274  0.121905E-06  0.193E-03    3.71       7.6  T
   4    -67.9119276 -0.136567E-06  0.599E-04    3.71      24.6  T
   5    -67.9119276 -0.116326E-07  0.166E-04    3.71      88.7  T
     SCC iter.                  ...        0 min,  0.014 sec
     gradient                   ...        0 min,  0.005 sec
 * total energy  :   -67.0650505 Eh     change       -0.5806211E-05 Eh
   gradient norm :     0.0005585 Eh/α   predicted    -0.2443409E-05 ( -57.92%)
   displ. norm   :     0.0665697 α      lambda       -0.5131787E-05
   maximum displ.:     0.0458463 α      in ANC's #1, #2, #7, ...

........................................................................
.............................. CYCLE   28 ..............................
........................................................................

 iter      E             dE          RMSdq      gap      omega  full diag
   1    -67.9119547 -0.679120E+02  0.194E-02    3.71       0.0  T
   2    -67.9119548 -0.628185E-07  0.114E-02    3.71       1.3  T
   3    -67.9119547  0.878172E-07  0.163E-03    3.71       9.1  T
   4    -67.9119548 -0.103213E-06  0.480E-04    3.71      30.7  T
   5    -67.9119548 -0.624617E-08  0.168E-04    3.71      88.0  T
     SCC iter.                  ...        0 min,  0.021 sec
     gradient                   ...        0 min,  0.006 sec
 * total energy  :   -67.0650560 Eh     change       -0.5516199E-05 Eh
   gradient norm :     0.0009000 Eh/α   predicted    -0.2574436E-05 ( -53.33%)
   displ. norm   :     0.0792226 α      lambda       -0.6339782E-05
   maximum displ.:     0.0537678 α      in ANC's #1, #2, #7, ...

........................................................................
.............................. CYCLE   29 ..............................
........................................................................

 iter      E             dE          RMSdq      gap      omega  full diag
   1    -67.9119949 -0.679120E+02  0.214E-02    3.70       0.0  T
   2    -67.9119949 -0.470307E-07  0.126E-02    3.70       1.2  T
   3    -67.9119949  0.654535E-07  0.150E-03    3.70       9.8  T
   4    -67.9119950 -0.882194E-07  0.379E-04    3.70      39.0  T
   5    -67.9119950 -0.200009E-08  0.194E-04    3.70      76.0  T
     SCC iter.                  ...        0 min,  0.033 sec
     gradient                   ...        0 min,  0.007 sec
 * total energy  :   -67.0650629 Eh     change       -0.6843286E-05 Eh
   gradient norm :     0.0011500 Eh/α   predicted    -0.3183357E-05 ( -53.48%)
   displ. norm   :     0.0830668 α      lambda       -0.5705191E-05
   maximum displ.:     0.0569125 α      in ANC's #1, #2, #5, ...

........................................................................
.............................. CYCLE   30 ..............................
........................................................................

 iter      E             dE          RMSdq      gap      omega  full diag
   1    -67.9119102 -0.679119E+02  0.216E-02    3.70       0.0  T
   2    -67.9119102 -0.459547E-07  0.127E-02    3.70       1.2  T
   3    -67.9119102  0.281520E-07  0.117E-03    3.70      12.6  T
   4    -67.9119102 -0.490106E-07  0.404E-04    3.70      36.5  T
   5    -67.9119102 -0.271642E-08  0.199E-04    3.70      74.1  T
     SCC iter.                  ...        0 min,  0.028 sec
     gradient                   ...        0 min,  0.005 sec
 * total energy  :   -67.0650703 Eh     change       -0.7438095E-05 Eh
   gradient norm :     0.0010106 Eh/α   predicted    -0.2863054E-05 ( -61.51%)
   displ. norm   :     0.1130107 α      lambda       -0.8004789E-05
   maximum displ.:     0.0771890 α      in ANC's #1, #2, #5, ...

........................................................................
.............................. CYCLE   31 ..............................
........................................................................

 iter      E             dE          RMSdq      gap      omega  full diag
   1    -67.9118846 -0.679119E+02  0.285E-02    3.70       0.0  T
   2    -67.9118848 -0.129951E-06  0.168E-02    3.70       1.0  T
   3    -67.9118847  0.116947E-07  0.127E-03    3.70      11.6  T
   4    -67.9118848 -0.421012E-07  0.683E-04    3.70      21.6  T
   5    -67.9118848 -0.120617E-07  0.304E-04    3.70      48.5  T
     SCC iter.                  ...        0 min,  0.014 sec
     gradient                   ...        0 min,  0.005 sec
 * total energy  :   -67.0650804 Eh     change       -0.1007174E-04 Eh
   gradient norm :     0.0005516 Eh/α   predicted    -0.4026085E-05 ( -60.03%)
   displ. norm   :     0.1331656 α      lambda       -0.7851230E-05
   maximum displ.:     0.0922200 α      in ANC's #1, #2, #5, ...

........................................................................
.............................. CYCLE   32 ..............................
........................................................................

 iter      E             dE          RMSdq      gap      omega  full diag
   1    -67.9118765 -0.679119E+02  0.316E-02    3.71       0.0  T
   2    -67.9118766 -0.142793E-06  0.186E-02    3.71       1.0  T
   3    -67.9118766 -0.235324E-07  0.110E-03    3.71      13.4  T
   4    -67.9118767 -0.218218E-07  0.690E-04    3.71      21.4  T
   5    -67.9118767 -0.883091E-08  0.342E-04    3.71      43.1  T
     SCC iter.                  ...        0 min,  0.014 sec
     gradient                   ...        0 min,  0.006 sec
 * total energy  :   -67.0650900 Eh     change       -0.9673146E-05 Eh
   gradient norm :     0.0005684 Eh/α   predicted    -0.3958897E-05 ( -59.07%)
   displ. norm   :     0.1219834 α      lambda       -0.6156201E-05
   maximum displ.:     0.0854426 α      in ANC's #1, #2, #5, ...

........................................................................
.............................. CYCLE   33 ..............................
........................................................................

 iter      E             dE          RMSdq      gap      omega  full diag
   1    -67.9118627 -0.679119E+02  0.277E-02    3.71       0.0  T
   2    -67.9118628 -0.909761E-07  0.163E-02    3.71       1.0  T
   3    -67.9118628  0.249122E-07  0.147E-03    3.71      10.0  T
   4    -67.9118629 -0.659237E-07  0.615E-04    3.71      24.0  T
   5    -67.9118629 -0.577967E-08  0.284E-04    3.71      51.9  T
     SCC iter.                  ...        0 min,  0.014 sec
     gradient                   ...        0 min,  0.005 sec
 * total energy  :   -67.0650980 Eh     change       -0.7977876E-05 Eh
   gradient norm :     0.0007745 Eh/α   predicted    -0.3102541E-05 ( -61.11%)
   displ. norm   :     0.1176382 α      lambda       -0.6182216E-05
   maximum displ.:     0.0833949 α      in ANC's #1, #2, #5, ...

........................................................................
.............................. CYCLE   34 ..............................
........................................................................

 iter      E             dE          RMSdq      gap      omega  full diag
   1    -67.9119584 -0.679120E+02  0.238E-02    3.71       0.0  T
   2    -67.9119585 -0.686702E-07  0.140E-02    3.71       1.1  T
   3    -67.9119584  0.631126E-07  0.170E-03    3.71       8.7  T
   4    -67.9119585 -0.103222E-06  0.542E-04    3.71      27.2  T
   5    -67.9119585 -0.267627E-08  0.248E-04    3.71      59.4  T
     SCC iter.                  ...        0 min,  0.014 sec
     gradient                   ...        0 min,  0.005 sec
 * total energy  :   -67.0651063 Eh     change       -0.8294174E-05 Eh
   gradient norm :     0.0007153 Eh/α   predicted    -0.3113756E-05 ( -62.46%)
   displ. norm   :     0.1363613 α      lambda       -0.7346123E-05
   maximum displ.:     0.0971322 α      in ANC's #1, #2, #5, ...

........................................................................
.............................. CYCLE   35 ..............................
........................................................................

 iter      E             dE          RMSdq      gap      omega  full diag
   1    -67.9119954 -0.679120E+02  0.257E-02    3.71       0.0  T
   2    -67.9119955 -0.887044E-07  0.152E-02    3.71       1.0  T
   3    -67.9119953  0.181566E-06  0.251E-03    3.71       5.9  T
   4    -67.9119955 -0.238400E-06  0.594E-04    3.71      24.8  T
   5    -67.9119955 -0.275541E-08  0.286E-04    3.71      51.5  T
     SCC iter.                  ...        0 min,  0.014 sec
     gradient                   ...        0 min,  0.005 sec
 * total energy  :   -67.0651161 Eh     change       -0.9807142E-05 Eh
   gradient norm :     0.0005227 Eh/α   predicted    -0.3707361E-05 ( -62.20%)
   displ. norm   :     0.1579152 α      lambda       -0.7966382E-05
   maximum displ.:     0.1129636 α      in ANC's #1, #2, #5, ...

........................................................................
.............................. CYCLE   36 ..............................
........................................................................

 iter      E             dE          RMSdq      gap      omega  full diag
   1    -67.9119512 -0.679120E+02  0.269E-02    3.71       0.0  T
   2    -67.9119513 -0.118741E-06  0.159E-02    3.70       1.0  T
   3    -67.9119510  0.318431E-06  0.319E-03    3.71       4.6  T
   4    -67.9119514 -0.393723E-06  0.685E-04    3.70      21.5  T
   5    -67.9119514 -0.454294E-08  0.346E-04    3.70      42.7  T
     SCC iter.                  ...        0 min,  0.012 sec
     gradient                   ...        0 min,  0.005 sec
 * total energy  :   -67.0651265 Eh     change       -0.1040247E-04 Eh
   gradient norm :     0.0003150 Eh/α   predicted    -0.4030463E-05 ( -61.25%)
   displ. norm   :     0.1604400 α      lambda       -0.7081476E-05
   maximum displ.:     0.1152590 α      in ANC's #1, #2, #9, ...

........................................................................
.............................. CYCLE   37 ..............................
........................................................................

 iter      E             dE          RMSdq      gap      omega  full diag
   1    -67.9120194 -0.679120E+02  0.251E-02    3.70       0.0  T
   2    -67.9120195 -0.968272E-07  0.148E-02    3.70       1.0  T
   3    -67.9120193  0.216886E-06  0.269E-03    3.70       5.5  T
   4    -67.9120196 -0.278384E-06  0.632E-04    3.70      23.3  T
   5    -67.9120196 -0.326521E-08  0.306E-04    3.70      48.2  T
     SCC iter.                  ...        0 min,  0.011 sec
     gradient                   ...        0 min,  0.006 sec
 * total energy  :   -67.0651357 Eh     change       -0.9142546E-05 Eh
   gradient norm :     0.0003924 Eh/α   predicted    -0.3582585E-05 ( -60.81%)
   displ. norm   :     0.1452039 α      lambda       -0.5462457E-05
   maximum displ.:     0.1048485 α      in ANC's #1, #2, #9, ...

........................................................................
.............................. CYCLE   38 ..............................
........................................................................

 iter      E             dE          RMSdq      gap      omega  full diag
   1    -67.9120135 -0.679120E+02  0.215E-02    3.70       0.0  T
   2    -67.9120135 -0.667764E-07  0.127E-02    3.70       1.2  T
   3    -67.9120134  0.146107E-06  0.222E-03    3.70       6.7  T
   4    -67.9120136 -0.188746E-06  0.532E-04    3.70      27.7  T
   5    -67.9120136 -0.254774E-08  0.256E-04    3.70      57.7  T
     SCC iter.                  ...        0 min,  0.011 sec
     gradient                   ...        0 min,  0.005 sec
 * total energy  :   -67.0651428 Eh     change       -0.7083932E-05 Eh
   gradient norm :     0.0004343 Eh/α   predicted    -0.2757682E-05 ( -61.07%)
   displ. norm   :     0.1217162 α      lambda       -0.4069896E-05
   maximum displ.:     0.0883932 α      in ANC's #1, #2, #9, ...

........................................................................
.............................. CYCLE   39 ..............................
........................................................................

 iter      E             dE          RMSdq      gap      omega  full diag
   1    -67.9120615 -0.679121E+02  0.175E-02    3.70       0.0  T
   2    -67.9120615 -0.420308E-07  0.103E-02    3.70       1.4  T
   3    -67.9120614  0.881584E-07  0.171E-03    3.70       8.6  T
   4    -67.9120615 -0.113744E-06  0.420E-04    3.70      35.1  T
   5    -67.9120615 -0.180358E-08  0.196E-04    3.70      75.4  T
     SCC iter.                  ...        0 min,  0.012 sec
     gradient                   ...        0 min,  0.006 sec
 * total energy  :   -67.0651481 Eh     change       -0.5354453E-05 Eh
   gradient norm :     0.0003376 Eh/α   predicted    -0.2053265E-05 ( -61.65%)
   displ. norm   :     0.1070876 α      lambda       -0.3313028E-05
   maximum displ.:     0.0780575 α      in ANC's #1, #2, #3, ...

........................................................................
.............................. CYCLE   40 ..............................
........................................................................

 iter      E             dE          RMSdq      gap      omega  full diag
   1    -67.9120928 -0.679121E+02  0.151E-02    3.70       0.0  T
   2    -67.9120929 -0.328019E-07  0.893E-03    3.70       1.7  T
   3    -67.9120928  0.514126E-07  0.133E-03    3.70      11.1  T
   4    -67.9120929 -0.673509E-07  0.374E-04    3.70      39.4  T
   5    -67.9120929 -0.205226E-08  0.172E-04    3.70      85.9  T
     SCC iter.                  ...        0 min,  0.011 sec
     gradient                   ...        0 min,  0.005 sec
 * total energy  :   -67.0651525 Eh     change       -0.4375384E-05 Eh
   gradient norm :     0.0002161 Eh/α   predicted    -0.1667013E-05 ( -61.90%)
   displ. norm   :     0.1003067 α      lambda       -0.2875652E-05
   maximum displ.:     0.0731031 α      in ANC's #1, #2, #3, ...

   *** GEOMETRY OPTIMIZATION CONVERGED AFTER 40 ITERATIONS ***

------------------------------------------------------------------------
 total energy gain   :        -0.0425286 Eh      -26.6871 kcal/mol
 total RMSD          :         0.5921009 a0        0.3133 Å
 total power (kW/mol):        -2.7914690 (step)  -90.9049 (real)
------------------------------------------------------------------------

 ANCopt (total)                0 d,  0 h,  0 min,  1.228 sec
 optimizer setup                ...        0 min,  0.000 sec (  0.010%)
 model hessian                  ...        0 min,  0.121 sec (  9.889%)
 ANC generation                 ...        0 min,  0.003 sec (  0.269%)
 coordinate transformation      ...        0 min,  0.001 sec (  0.075%)
 single point calculation       ...        0 min,  1.078 sec ( 87.757%)
 optimization log               ...        0 min,  0.016 sec (  1.264%)
 hessian update                 ...        0 min,  0.004 sec (  0.295%)
 rational function              ...        0 min,  0.004 sec (  0.297%)

================
 final structure:
================
46
 xtb: 6.7.1 (edcfbbe)
C            7.08951352706679        0.51767916641905       -1.54192900943167
C            6.29147581218841        0.80411096860808       -0.52425837855320
C            4.84113746016553        1.01921119567389       -0.72348904962703
O            4.26611003663288        0.95881116422590       -1.78255946654426
O            4.24245108010116        1.30144221109444        0.44103367244998
C            2.83289823800754        1.50797484859571        0.40866567649259
C            2.06961472834792        0.18658384564180        0.39722019672158
C            2.28838457682327       -0.65478881876423        1.65729145161943
C            1.10115568294950       -1.61509781054681        1.65906060503913
C           -0.07505650763722       -0.76612111236863        1.15944463075859
C           -0.99065555861934       -1.45253177499359        0.13667692464971
C           -0.19031570159805       -1.30801033587752       -1.15771498789484
C           -0.07409851280377        0.21137006758632       -1.05106036620784
C           -1.55013690433633        0.61736252261425       -0.96552247363534
C           -2.17899187411991       -0.50648115341562       -0.11151187909686
C           -3.33603468339209       -1.21083500167045       -0.82081082343056
O           -4.39049442741211       -0.30446191624111       -1.13418501774845
C           -5.24384627907844       -0.00050507212381       -0.14758570101530
O           -5.17829799331398       -0.45562099380703        0.96783532264180
C           -6.27368103603943        0.94940370961192       -0.62360469579643
C           -7.24126601948927        1.37030746175292        0.17717070050187
C            0.54809380360228        0.39268803601055        0.33934442310049
H            6.68682808085065        0.43970014632802       -2.53889958495321
H            8.14657903885917        0.35567879419112       -1.41903157284908
H            6.63871719951747        0.89469540863727        0.49359183845923
H            2.57838270049266        2.08977360771809       -0.48437379825190
H            2.60599073664822        2.08534105582906        1.30786357379957
H            2.39949146750556       -0.37825212160894       -0.47918068576128
H            2.24804202220593       -0.00959273030227        2.53707025636434
H            3.24774790709164       -1.17028834213463        1.65427941278337
H            1.29127446505484       -2.44236120560454        0.97446989051563
H            0.91292914344579       -2.03395406191163        2.64657754303105
H           -0.65007865397115       -0.39756694004467        2.01059397740530
H           -1.28583440494050       -2.46181632737660        0.41910472216264
H            0.76853616175703       -1.81882081199915       -1.12994255176457
H           -0.73568269754742       -1.63074622518878       -2.04173566457417
H            0.47754349757509        0.71274428068495       -1.84428954931486
H           -2.00211228498298        0.64152507319415       -1.95756508798688
H           -1.68008426970627        1.60038302886971       -0.51414937951067
H           -2.56963974189884       -0.11915430854081        0.83274256542364
H           -3.02440387644785       -1.62690281905502       -1.78043008953554
H           -3.73108000857380       -2.00702765375860       -0.17996867866075
H           -6.17753411122900        1.26272851663210       -1.65189785436723
H           -7.28851546180120        1.02232875470859        1.19646483526835
H           -8.00194234669111        2.05883704186803       -0.14839795537758
H            0.29688598874244        1.37025863088390        0.75704608267053
 
 Bond Distances (Angstroems)
 ---------------------------
C1-C2=1.3246         C1-H23=1.0780        C1-H24=1.0764        C2-C1=1.3246         C2-C3=1.4797         C2-H25=1.0793        
C3-C2=1.4797         C3-O4=1.2066         C3-O5=1.3395         O4-C3=1.2066         O5-C3=1.3395         O5-C6=1.4250         
C6-O5=1.4250         C6-C7=1.5260         C6-H26=1.0958        C6-H27=1.0924        C7-C6=1.5260         C7-C8=1.5309         
C7-C22=1.5365        C7-H28=1.0936        C8-C7=1.5309         C8-C9=1.5270         C8-H29=1.0917        C8-H30=1.0891        
C9-C8=1.5270         C9-C10=1.5342        C9-H31=1.0905        C9-H32=1.0891        C10-C9=1.5342        C10-C11=1.5348       
C10-C22=1.5504       C10-H33=1.0913       C11-C10=1.5348       C11-C12=1.5287       C11-C15=1.5391       C11-H34=1.0888       
C12-C11=1.5287       C12-C13=1.5275       C12-H35=1.0868       C12-H36=1.0877       C13-C12=1.5275       C13-C14=1.5332       
C13-C22=1.5340       C13-H37=1.0885       C14-C13=1.5332       C14-C15=1.5453       C14-H38=1.0904       C14-H39=1.0895       
C15-C11=1.5391       C15-C14=1.5453       C15-C16=1.5290       C15-H40=1.0928       C16-C15=1.5290       C16-O17=1.4253       
C16-H41=1.0914       C16-H42=1.0957       O17-C16=1.4253       O17-C18=1.3394       C18-O17=1.3394       C18-O19=1.2065       
C18-C20=1.4797       O19-C18=1.2065       C20-C18=1.4797       C20-C21=1.3246       C20-H43=1.0793       C21-C20=1.3246       
C21-H44=1.0781       C21-H45=1.0764       C22-C7=1.5365        C22-C10=1.5504       C22-C13=1.5340       C22-H46=1.0923       
H23-C1=1.0780        H24-C1=1.0764        H25-C2=1.0793        H26-C6=1.0958        H27-C6=1.0924        H28-C7=1.0936        
H29-C8=1.0917        H30-C8=1.0891        H31-C9=1.0905        H32-C9=1.0891        H33-C10=1.0913       H34-C11=1.0888       
H35-C12=1.0868       H36-C12=1.0877       H37-C13=1.0885       H38-C14=1.0904       H39-C14=1.0895       H40-C15=1.0928       
H41-C16=1.0914       H42-C16=1.0957       H43-C20=1.0793       H44-C21=1.0781       H45-C21=1.0764       H46-C22=1.0923       
 C  H  Rav=1.0877 sigma=0.0061  Rmin=1.0764  Rmax=1.0958    24
 C  C  Rav=1.5047 sigma=0.0662  Rmin=1.3246  Rmax=1.5504    18
 O  C  Rav=1.3237 sigma=0.0899  Rmin=1.2065  Rmax=1.4253     6
 
 selected bond angles (degree)
 --------------------
H23-C1-C2=120.07               H24-C1-C2=122.44               H24-C1-H23=117.48              C3-C2-C1=121.23                
H25-C2-C1=123.29               H25-C2-C3=115.48               O4-C3-C2=125.31                O5-C3-C2=110.59                
O5-C3-O4=124.10                C6-O5-C3=116.93                C7-C6-O5=111.68                H26-C6-O5=108.98               
H26-C6-C7=109.72               H27-C6-O5=105.27               H27-C6-C7=111.10               H27-C6-H26=110.00              
C8-C7-C6=113.47                C22-C7-C6=112.30               C22-C7-C8=104.26               H28-C7-C6=107.60               
H28-C7-C8=109.43               H28-C7-C22=109.74              C9-C8-C7=103.62                H29-C8-C7=109.46               
H29-C8-C9=110.00               H30-C8-C7=112.57               H30-C8-C9=112.78               H30-C8-H29=108.33              
C10-C9-C8=104.34               H31-C9-C8=109.93               H31-C9-C10=110.43              H32-C9-C8=112.17               
H32-C9-C10=112.06              H32-C9-H31=107.92              C11-C10-C9=115.27              C22-C10-C9=106.12              
C22-C10-C11=102.80             H33-C10-C9=109.69              H33-C10-C11=110.88             H33-C10-C22=111.83             
 
 selected dihedral angles (degree)
 ---------------------------------
C3-C2-C1-H23=  0.16           C3-C2-C1-H24=180.12           H25-C2-C1-H23=180.00          H25-C2-C1-H24=359.96          
O4-C3-C2-C1=359.97            O4-C3-C2-H25=180.12           O5-C3-C2-C1=180.34            O5-C3-C2-H25=  0.48           
C6-O5-C3-C2=181.21            C6-O5-C3-O4=  1.57            C7-C6-O5-C3= 80.78            H26-C6-O5-C3=319.40           
H27-C6-O5-C3=201.45           C8-C7-C6-O5= 63.01            C8-C7-C6-H26=183.96           C8-C7-C6-H27=305.81           
C22-C7-C6-O5=180.93           C22-C7-C6-H26=301.88          C22-C7-C6-H27= 63.72          H28-C7-C6-O5=301.80           
H28-C7-C6-H26= 62.75          H28-C7-C6-H27=184.60          C9-C8-C7-C6=160.36            C9-C8-C7-C22= 37.88           
C9-C8-C7-H28=280.54           H29-C8-C7-C6= 43.05           H29-C8-C7-C22=280.57          H29-C8-C7-H28=163.23          
H30-C8-C7-C6=282.51           H30-C8-C7-C22=160.03          H30-C8-C7-H28= 42.69          C10-C9-C8-C7=321.81           
C10-C9-C8-H29= 78.75          C10-C9-C8-H30=199.80          H31-C9-C8-C7= 80.22           H31-C9-C8-H29=197.16          
H31-C9-C8-H30=318.22          H32-C9-C8-C7=200.29           H32-C9-C8-H29=317.23          H32-C9-C8-H30= 78.28          
C11-C10-C9-C8=136.79          C11-C10-C9-H31= 18.72         C11-C10-C9-H32=258.38         C22-C10-C9-C8= 23.74          
C22-C10-C9-H31=265.67         C22-C10-C9-H32=145.33         H33-C10-C9-C8=262.77          H33-C10-C9-H31=144.70         
H33-C10-C9-H32= 24.36         
           -------------------------------------------------
          |                Final Singlepoint                |
           -------------------------------------------------

          ...................................................
          :                      SETUP                      :
          :.................................................:
          :  # basis functions                 112          :
          :  # atomic orbitals                 112          :
          :  # shells                           68          :
          :  # electrons                       120          :
          :  max. iterations                   250          :
          :  Hamiltonian                  GFN2-xTB          :
          :  restarted?                      false          :
          :  GBSA solvation                  false          :
          :  PC potential                    false          :
          :  electronic temp.          300.0000000     K    :
          :  accuracy                    1.0000000          :
          :  -> integral cutoff          0.2500000E+02      :
          :  -> integral neglect         0.1000000E-07      :
          :  -> SCF convergence          0.1000000E-05 Eh   :
          :  -> wf. convergence          0.1000000E-03 e    :
          :  Broyden damping             0.4000000          :
          :  net charge                          0          :
          :  unpaired electrons                  0          :
          ...................................................

 iter      E             dE          RMSdq      gap      omega  full diag
   1    -67.9120929 -0.679121E+02  0.496E-05    3.70       0.0  T
   2    -67.9120929 -0.149072E-10  0.318E-05    3.70     464.0  T
   3    -67.9120929 -0.326850E-11  0.160E-05    3.70     922.0  T

   *** convergence criteria satisfied after 3 iterations ***

         #    Occupation            Energy/Eh            Energy/eV
      -------------------------------------------------------------
         1        2.0000           -0.7405190             -20.1505
       ...           ...                  ...                  ...
        54        2.0000           -0.4276139             -11.6360
        55        2.0000           -0.4264717             -11.6049
        56        2.0000           -0.4248195             -11.5599
        57        2.0000           -0.4227088             -11.5025
        58        2.0000           -0.4158809             -11.3167
        59        2.0000           -0.4131377             -11.2420
        60        2.0000           -0.4117707             -11.2049 (HOMO)
        61                         -0.2756963              -7.5021 (LUMO)
        62                         -0.2747090              -7.4752
        63                         -0.1655843              -4.5058
        64                         -0.1645994              -4.4790
        65                         -0.0105103              -0.2860
       ...                                ...                  ...
       112                          0.7086212              19.2826
      -------------------------------------------------------------
                  HL-Gap            0.1360744 Eh            3.7028 eV
             Fermi-level           -0.3437335 Eh           -9.3535 eV

 SCC (total)                   0 d,  0 h,  0 min,  0.013 sec
 SCC setup                      ...        0 min,  0.000 sec (  0.677%)
 Dispersion                     ...        0 min,  0.000 sec (  1.589%)
 classical contributions        ...        0 min,  0.000 sec (  0.309%)
 integral evaluation            ...        0 min,  0.001 sec (  9.828%)
 iterations                     ...        0 min,  0.007 sec ( 52.277%)
 molecular gradient             ...        0 min,  0.005 sec ( 34.031%)
 printout                       ...        0 min,  0.000 sec (  1.115%)

         :::::::::::::::::::::::::::::::::::::::::::::::::::::
         ::                     SUMMARY                     ::
         :::::::::::::::::::::::::::::::::::::::::::::::::::::
         :: total energy             -67.065152480882 Eh    ::
         :: gradient norm              0.000215132367 Eh/a0 ::
         :: HOMO-LUMO gap              3.702772676701 eV    ::
         ::.................................................::
         :: SCC energy               -67.911916162616 Eh    ::
         :: -> isotropic ES            0.091004185154 Eh    ::
         :: -> anisotropic ES          0.002879807925 Eh    ::
         :: -> anisotropic XC          0.022680365467 Eh    ::
         :: -> dispersion             -0.044098559405 Eh    ::
         :: repulsion energy           0.846763681734 Eh    ::
         :: add. restraining           0.000000000000 Eh    ::
         :: total charge              -0.000000000000 e     ::
         :::::::::::::::::::::::::::::::::::::::::::::::::::::

           -------------------------------------------------
          |                Property Printout                |
           -------------------------------------------------

    * Orbital Energies and Occupations

         #    Occupation            Energy/Eh            Energy/eV
      -------------------------------------------------------------
         1        2.0000           -0.7405190             -20.1505
       ...           ...                  ...                  ...
        48        2.0000           -0.4444265             -12.0935
        49        2.0000           -0.4420520             -12.0288
        50        2.0000           -0.4402926             -11.9810
        51        2.0000           -0.4381177             -11.9218
        52        2.0000           -0.4372821             -11.8991
        53        2.0000           -0.4324341             -11.7671
        54        2.0000           -0.4276139             -11.6360
        55        2.0000           -0.4264717             -11.6049
        56        2.0000           -0.4248195             -11.5599
        57        2.0000           -0.4227088             -11.5025
        58        2.0000           -0.4158809             -11.3167
        59        2.0000           -0.4131377             -11.2420
        60        2.0000           -0.4117707             -11.2049 (HOMO)
        61                         -0.2756963              -7.5021 (LUMO)
        62                         -0.2747090              -7.4752
        63                         -0.1655843              -4.5058
        64                         -0.1645994              -4.4790
        65                         -0.0105103              -0.2860
        66                          0.0009122               0.0248
        67                          0.0244375               0.6650
        68                          0.0319357               0.8690
        69                          0.0503940               1.3713
        70                          0.0569574               1.5499
        71                          0.0710114               1.9323
       ...                                ...                  ...
       112                          0.7086212              19.2826
      -------------------------------------------------------------
                  HL-Gap            0.1360744 Eh            3.7028 eV
             Fermi-level           -0.3437335 Eh           -9.3535 eV

     #   Z          covCN         q      C6AA      α(0)
     1   6 C        2.841    -0.060    29.475     8.897
     2   6 C        2.888    -0.059    29.468     8.900
     3   6 C        2.725     0.357    20.948     7.493
     4   8 O        0.856    -0.415    21.983     6.286
     5   8 O        1.705    -0.266    18.408     5.793
     6   6 C        3.704     0.076    19.454     6.306
     7   6 C        3.871    -0.027    21.006     6.517
     8   6 C        3.826    -0.058    21.604     6.614
     9   6 C        3.822    -0.061    21.662     6.623
    10   6 C        3.905    -0.025    20.959     6.507
    11   6 C        3.978    -0.024    20.932     6.500
    12   6 C        3.887    -0.065    21.687     6.621
    13   6 C        3.975    -0.020    20.860     6.489
    14   6 C        3.844    -0.064    21.697     6.626
    15   6 C        3.886    -0.027    21.000     6.515
    16   6 C        3.703     0.076    19.459     6.307
    17   8 O        1.705    -0.266    18.407     5.793
    18   6 C        2.725     0.356    20.949     7.493
    19   8 O        0.856    -0.415    21.978     6.285
    20   6 C        2.888    -0.059    29.464     8.899
    21   6 C        2.842    -0.060    29.477     8.898
    22   6 C        3.906    -0.031    21.063     6.523
    23   1 H        0.926     0.078     1.996     2.209
    24   1 H        0.926     0.062     2.170     2.304
    25   1 H        0.926     0.064     2.155     2.296
    26   1 H        0.924     0.054     2.275     2.359
    27   1 H        0.924     0.052     2.297     2.370
    28   1 H        0.924     0.052     2.299     2.371
    29   1 H        0.924     0.036     2.503     2.474
    30   1 H        0.925     0.034     2.531     2.488
    31   1 H        0.924     0.037     2.492     2.469
    32   1 H        0.925     0.034     2.537     2.491
    33   1 H        0.924     0.033     2.544     2.494
    34   1 H        0.925     0.029     2.598     2.521
    35   1 H        0.925     0.042     2.426     2.436
    36   1 H        0.925     0.034     2.536     2.490
    37   1 H        0.925     0.035     2.516     2.480
    38   1 H        0.924     0.043     2.407     2.426
    39   1 H        0.925     0.032     2.554     2.499
    40   1 H        0.924     0.047     2.354     2.399
    41   1 H        0.924     0.054     2.266     2.354
    42   1 H        0.924     0.052     2.291     2.367
    43   1 H        0.926     0.064     2.154     2.295
    44   1 H        0.926     0.078     1.997     2.210
    45   1 H        0.926     0.062     2.171     2.304
    46   1 H        0.924     0.028     2.619     2.531

 Mol. C6AA /au·bohr⁶  :      19673.652151
 Mol. C8AA /au·bohr⁸  :     447104.858129
 Mol. α(0) /au        :        210.524045


Wiberg/Mayer (AO) data.
largest (>0.10) Wiberg bond orders for each atom

 ---------------------------------------------------------------------------
     #   Z sym  total        # sym  WBO       # sym  WBO       # sym  WBO
 ---------------------------------------------------------------------------
     1   6 C    3.979 --     2 C    1.933    24 H    0.975    23 H    0.970
     2   6 C    3.988 --     1 C    1.933     3 C    1.010    25 H    0.965
     3   6 C    3.920 --     4 O    1.722     5 O    1.125     2 C    1.010
     4   8 O    2.032 --     3 C    1.722     5 O    0.174
     5   8 O    2.311 --     3 C    1.125     6 C    0.942     4 O    0.174
     6   6 C    3.927 --     7 C    0.988    27 H    0.970    26 H    0.966
                             5 O    0.942
     7   6 C    3.989 --     8 C    0.995     6 C    0.988    22 C    0.982
                            28 H    0.963
     8   6 C    3.996 --     9 C    1.006     7 C    0.995    30 H    0.979
                            29 H    0.978
     9   6 C    3.996 --     8 C    1.006    10 C    0.995    32 H    0.980
                            31 H    0.976
    10   6 C    3.993 --     9 C    0.995    11 C    0.987    22 C    0.976
                            33 H    0.972
    11   6 C    3.993 --    12 C    0.996    10 C    0.987    15 C    0.981
                            34 H    0.970
    12   6 C    3.995 --    11 C    0.996    13 C    0.995    36 H    0.975
                            35 H    0.971
    13   6 C    3.994 --    14 C    0.996    12 C    0.995    22 C    0.988
                            37 H    0.970
    14   6 C    3.996 --    13 C    0.996    15 C    0.990    39 H    0.980
                            38 H    0.977
    15   6 C    3.989 --    14 C    0.990    16 C    0.988    11 C    0.981
                            40 H    0.967
    16   6 C    3.926 --    15 C    0.988    41 H    0.968    42 H    0.967
                            17 O    0.942
    17   8 O    2.310 --    18 C    1.125    16 C    0.942    19 O    0.173
    18   6 C    3.920 --    19 O    1.723    17 O    1.125    20 C    1.010
    19   8 O    2.032 --    18 C    1.723    17 O    0.173
    20   6 C    3.988 --    21 C    1.933    18 C    1.010    43 H    0.965
    21   6 C    3.980 --    20 C    1.933    45 H    0.975    44 H    0.970
    22   6 C    3.993 --    13 C    0.988     7 C    0.982    10 C    0.976
                            46 H    0.970
    23   1 H    0.994 --     1 C    0.970
    24   1 H    0.995 --     1 C    0.975
    25   1 H    0.996 --     2 C    0.965
    26   1 H    0.997 --     6 C    0.966
    27   1 H    0.997 --     6 C    0.970
    28   1 H    0.997 --     7 C    0.963
    29   1 H    0.999 --     8 C    0.978
    30   1 H    0.998 --     8 C    0.979
    31   1 H    0.999 --     9 C    0.976
    32   1 H    0.999 --     9 C    0.980
    33   1 H    0.999 --    10 C    0.972
    34   1 H    0.999 --    11 C    0.970
    35   1 H    0.998 --    12 C    0.971
    36   1 H    0.999 --    12 C    0.975
    37   1 H    0.999 --    13 C    0.970
    38   1 H    0.998 --    14 C    0.977
    39   1 H    0.999 --    14 C    0.980
    40   1 H    0.998 --    15 C    0.967
    41   1 H    0.997 --    16 C    0.968
    42   1 H    0.997 --    16 C    0.967
    43   1 H    0.996 --    20 C    0.965
    44   1 H    0.994 --    21 C    0.970
    45   1 H    0.995 --    21 C    0.975
    46   1 H    0.999 --    22 C    0.970
 ---------------------------------------------------------------------------

Topologies differ in total number of bonds
Writing topology from bond orders to xtbtopo.mol

molecular dipole:
                 x           y           z       tot (Debye)
 q only:        0.336       0.109       0.005
   full:        0.347       0.192      -0.000       1.008
molecular quadrupole (traceless):
                xx          xy          yy          xz          yz          zz
 q only:       11.964     -10.641      -1.968      11.117       3.328      -9.996
  q+dip:       11.337     -10.908      -2.268      13.348       4.896      -9.069
   full:       12.013      -9.545      -0.222      14.093       4.529     -11.791

           -------------------------------------------------
          |                Geometry Summary                 |
           -------------------------------------------------

      molecular mass/u    :      304.3814439
   center of mass at/Å    :       -0.0555375       0.0761395      -0.1520650
  moments of inertia/u·Å² :        0.5971391E+03   0.5206643E+04   0.5349960E+04
rotational constants/cm⁻¹ :        0.2823066E-01   0.3237716E-02   0.3150983E-02

 * 44 selected distances

     #   Z          #   Z                                           value/Å
     1   6 C        2   6 C                                       1.3245985
     3   6 C        4   8 O                                       1.2066214
     3   6 C        5   8 O                                       1.3394750
     5   8 O        6   6 C                                       1.4249712
     6   6 C        7   6 C                                       1.5260430
     7   6 C        8   6 C                                       1.5308652
     8   6 C        9   6 C                                       1.5269936
     9   6 C       10   6 C                                       1.5342272
    10   6 C       11   6 C                                       1.5347754
    11   6 C       12   6 C                                       1.5286861
    12   6 C       13   6 C                                       1.5275467
    13   6 C       14   6 C                                       1.5332437
    11   6 C       15   6 C                                       1.5390754 (max)
    15   6 C       16   6 C                                       1.5290415
    16   6 C       17   8 O                                       1.4253425
    17   8 O       18   6 C                                       1.3393945
    18   6 C       19   8 O                                       1.2064789
    20   6 C       21   6 C                                       1.3246215
     7   6 C       22   6 C                                       1.5365074
    13   6 C       22   6 C                                       1.5340226
     1   6 C       23   1 H                                       1.0780477
     1   6 C       24   1 H                                       1.0764458
     2   6 C       25   1 H                                       1.0792597
     6   6 C       26   1 H                                       1.0958046
     6   6 C       27   1 H                                       1.0924266
     7   6 C       28   1 H                                       1.0935891
     8   6 C       29   1 H                                       1.0917493
     8   6 C       30   1 H                                       1.0890946
     9   6 C       31   1 H                                       1.0904928
     9   6 C       32   1 H                                       1.0890637
    10   6 C       33   1 H                                       1.0913011
    11   6 C       34   1 H                                       1.0888304
    12   6 C       35   1 H                                       1.0867823
    12   6 C       36   1 H                                       1.0876932
    13   6 C       37   1 H                                       1.0885301
    14   6 C       38   1 H                                       1.0904193
    14   6 C       39   1 H                                       1.0894740
    15   6 C       40   1 H                                       1.0928150
    16   6 C       41   1 H                                       1.0913732
    16   6 C       42   1 H                                       1.0957474
    20   6 C       43   1 H                                       1.0792607
    21   6 C       44   1 H                                       1.0780920
    21   6 C       45   1 H                                       1.0764277 (min)
    22   6 C       46   1 H                                       1.0923482

 * 3 distinct bonds (by element types)

   Z      Z             #   av. dist./Å        max./Å        min./Å
   1 H    6 C          24     1.0877112     1.0958046     1.0764277
   6 C    6 C          14     1.5021606     1.5390754     1.3245985
   6 C    8 O           6     1.3237139     1.4253425     1.2064789


optimized geometry written to: xtbopt.xyz


           -------------------------------------------------
          | TOTAL ENERGY              -67.065152480882 Eh   |
          | GRADIENT NORM               0.000215132367 Eh/α |
          | HOMO-LUMO GAP               3.702772676701 eV   |
           -------------------------------------------------
########################################################################
[WARNING] Runtime exception occurred
-2- restart_readRestart: Dimension missmatch in restart file.
-1- restart_readRestart: Number of electron missmatch in restart file.
########################################################################

------------------------------------------------------------------------
 * finished run on 2025/12/01 at 14:23:13.330     
------------------------------------------------------------------------
 total:
 * wall-time:     0 d,  0 h,  0 min,  1.341 sec
 *  cpu-time:     0 d,  0 h,  0 min, 30.599 sec
 * ratio c/w:    22.821 speedup
 SCF:
 * wall-time:     0 d,  0 h,  0 min,  0.085 sec
 *  cpu-time:     0 d,  0 h,  0 min,  1.878 sec
 * ratio c/w:    22.005 speedup
 ANC optimizer:
 * wall-time:     0 d,  0 h,  0 min,  1.243 sec
 *  cpu-time:     0 d,  0 h,  0 min, 28.489 sec
 * ratio c/w:    22.926 speedup

normal termination of xtb
