      -----------------------------------------------------------      
     |                   =====================                   |     
     |                           x T B                           |     
     |                   =====================                   |     
     |                         S. Grimme                         |     
     |          Mulliken Center for Theoretical Chemistry        |     
     |                    University of Bonn                     |     
      -----------------------------------------------------------      

   * xtb version 6.7.1 (edcfbbe) compiled by 'albert@albert-system' on 2024-07-22

   xtb is free software: you can redistribute it and/or modify it under
   the terms of the GNU Lesser General Public License as published by
   the Free Software Foundation, either version 3 of the License, or
   (at your option) any later version.
   
   xtb is distributed in the hope that it will be useful,
   but WITHOUT ANY WARRANTY; without even the implied warranty of
   MERCHANTABILITY or FITNESS FOR A PARTICULAR PURPOSE.  See the
   GNU Lesser General Public License for more details.
   
   Cite this work as:
   * C. Bannwarth, E. Caldeweyher, S. Ehlert, A. Hansen, P. Pracht,
     J. Seibert, S. Spicher, S. Grimme, WIREs Comput. Mol. Sci., 2020, 11,
     e01493. DOI: 10.1002/wcms.1493
   
   for GFN2-xTB:
   * C. Bannwarth, S. Ehlert and S. Grimme., J. Chem. Theory Comput., 2019,
     15, 1652-1671. DOI: 10.1021/acs.jctc.8b01176
   for GFN1-xTB:
   * S. Grimme, C. Bannwarth, P. Shushkov, J. Chem. Theory Comput., 2017,
     13, 1989-2009. DOI: 10.1021/acs.jctc.7b00118
   for GFN0-xTB:
   * P. Pracht, E. Caldeweyher, S. Ehlert, S. Grimme, ChemRxiv, 2019, preprint.
     DOI: 10.26434/chemrxiv.8326202.v1
   for GFN-FF:
   * S. Spicher and S. Grimme, Angew. Chem. Int. Ed., 2020, 59, 15665-15673.
     DOI: 10.1002/anie.202004239
   
   for ALPB and GBSA implicit solvation:
   * S. Ehlert, M. Stahn, S. Spicher, S. Grimme, J. Chem. Theory Comput.,
     2021, 17, 4250-4261. DOI: 10.1021/acs.jctc.1c00471
   
   for ddCOSMO and CPCM-X implicit solvation:
   * M. Stahn, S. Ehlert, S. Grimme, J. Phys. Chem. A,
     2023, XX, XXXX-XXXX. DOI: 10.1021/acs.jpca.3c04382
   
   for DFT-D4:
   * E. Caldeweyher, C. Bannwarth and S. Grimme, J. Chem. Phys., 2017,
     147, 034112. DOI: 10.1063/1.4993215
   * E. Caldeweyher, S. Ehlert, A. Hansen, H. Neugebauer, S. Spicher,
     C. Bannwarth and S. Grimme, J. Chem. Phys., 2019, 150, 154122.
     DOI: 10.1063/1.5090222
   * E. Caldeweyher, J.-M. Mewes, S. Ehlert and S. Grimme, Phys. Chem. Chem. Phys.
     2020, 22, 8499-8512. DOI: 10.1039/D0CP00502A
   
   for sTDA-xTB:
   * S. Grimme and C. Bannwarth, J. Chem. Phys., 2016, 145, 054103.
     DOI: 10.1063/1.4959605
   
   in the mass-spec context:
   * V. Asgeirsson, C. Bauer and S. Grimme, Chem. Sci., 2017, 8, 4879.
     DOI: 10.1039/c7sc00601b
   * J. Koopman and S. Grimme, ACS Omega 2019, 4, 12, 15120-15133.
     DOI: 10.1021/acsomega.9b02011
   
   for metadynamics refer to:
   * S. Grimme, J. Chem. Theory Comput., 2019, 155, 2847-2862
     DOI: 10.1021/acs.jctc.9b00143
   
   for SPH calculations refer to:
   * S. Spicher and S. Grimme, J. Chem. Theory Comput., 2021, 17, 1701-1714
     DOI: 10.1021/acs.jctc.0c01306
   
   for ONIOM refer to:
   * C. Plett, A. Katbashev, S. Ehlert, S. Grimme, M. Bursch,
     Phys. Chem. Chem. Phys., 2023, 25, 17860-17868. DOI: 10.1039/D3CP02178E
   
   for DIPRO refer to:
   * J. Kohn, N. Gildemeister, S. Grimme, D. Fazzi, A. Hansen,
     J. Chem. Phys., 2023, just accepted.
   
   for PTB refer to:
   * S. Grimme, M. Mueller, A. Hansen, J. Chem. Phys., 2023, 158, 124111.
     DOI: 10.1063/5.0137838
   
   with help from (in alphabetical order)
   P. Atkinson, C. Bannwarth, F. Bohle, G. Brandenburg, E. Caldeweyher
   M. Checinski, S. Dohm, S. Ehlert, S. Ehrlich, I. Gerasimov, C. Hölzer
   A. Katbashev, J. Kohn, J. Koopman, C. Lavigne, S. Lehtola, F. März, M. Müller,
   F. Musil, H. Neugebauer, J. Pisarek, C. Plett, P. Pracht, F. Pultar,
   J. Seibert, P. Shushkov, S. Spicher, M. Stahn, M. Steiner, T. Strunk,
   J. Stückrath, T. Rose, and J. Unsleber
   
 * started run on 2025/12/01 at 14:23:16.783     
   ID    Z sym.   atoms
    1    6 C      1-4, 6-17, 20-25
    2   15 P      5
    3    8 O      18, 19
    4    1 H      26-46

           -------------------------------------------------
          |                Calculation Setup                |
           -------------------------------------------------

          program call               : xtb pipeline_data/3_conformer_xyz/acrylates/rdkit/VFHVQBAGLAREND-UHFFFAOYSA-N_conf126.xyz --opt --gfn 2-xTB --iterations 250
          coordinate file            : pipeline_data/3_conformer_xyz/acrylates/rdkit/VFHVQBAGLAREND-UHFFFAOYSA-N_conf126.xyz
          omp threads                :                    24

########################################################################
[WARNING] Please study the warnings concerning your input carefully
-1- readin_getIntValue: could not parse '2-xTB'
########################################################################

           -------------------------------------------------
          |                 G F N 2 - x T B                 |
           -------------------------------------------------

        Reference                      10.1021/acs.jctc.8b01176
      * Hamiltonian:
        H0-scaling (s, p, d)           1.850000    2.230000    2.230000
        zeta-weighting                 0.500000
      * Dispersion:
        s8                             2.700000
        a1                             0.520000
        a2                             5.000000
        s9                             5.000000
      * Repulsion:
        kExp                           1.500000    1.000000
        rExp                           1.000000
      * Coulomb:
        alpha                          2.000000
        third order                    shell-resolved
        anisotropic                    true
        a3                             3.000000
        a5                             4.000000
        cn-shift                       1.200000
        cn-exp                         4.000000
        max-rad                        5.000000

q/qsh data taken from xtbrestart
CAMM data taken from xtbrestart

          ...................................................
          :                      SETUP                      :
          :.................................................:
          :  # basis functions                 127          :
          :  # atomic orbitals                 126          :
          :  # shells                           72          :
          :  # electrons                       126          :
          :  max. iterations                   250          :
          :  Hamiltonian                  GFN2-xTB          :
          :  restarted?                       true          :
          :  GBSA solvation                  false          :
          :  PC potential                    false          :
          :  electronic temp.          300.0000000     K    :
          :  accuracy                    1.0000000          :
          :  -> integral cutoff          0.2500000E+02      :
          :  -> integral neglect         0.1000000E-07      :
          :  -> SCF convergence          0.1000000E-05 Eh   :
          :  -> wf. convergence          0.1000000E-03 e    :
          :  Broyden damping             0.4000000          :
          :  net charge                          0          :
          :  unpaired electrons                  0          :
          ...................................................

 iter      E             dE          RMSdq      gap      omega  full diag
   1    -69.5780961 -0.695781E+02  0.579E+00    2.54       0.0  T
   2    -69.5924630 -0.143669E-01  0.326E+00    2.55       1.0  T
   3    -69.5832040  0.925903E-02  0.768E-01    2.30       1.0  T
   4    -69.5935554 -0.103514E-01  0.260E-01    2.46       1.0  T
   5    -69.5960180 -0.246265E-02  0.888E-02    2.41       1.0  T
   6    -69.5961587 -0.140659E-03  0.405E-02    2.43       1.0  T
   7    -69.5961790 -0.202521E-04  0.197E-02    2.42       1.0  T
   8    -69.5961848 -0.585443E-05  0.595E-03    2.43       2.5  T
   9    -69.5961854 -0.597435E-06  0.249E-03    2.42       5.9  T
  10    -69.5961855 -0.104082E-06  0.132E-03    2.42      11.2  T
  11    -69.5961855 -0.610777E-08  0.448E-04    2.42      32.9  T
  12    -69.5961855 -0.405448E-08  0.225E-04    2.42      65.7  T

   *** convergence criteria satisfied after 12 iterations ***

         #    Occupation            Energy/Eh            Energy/eV
      -------------------------------------------------------------
         1        2.0000           -0.7167308             -19.5032
       ...           ...                  ...                  ...
        57        2.0000           -0.4218566             -11.4793
        58        2.0000           -0.4204440             -11.4409
        59        2.0000           -0.4168772             -11.3438
        60        2.0000           -0.4041570             -10.9977
        61        2.0000           -0.4007696             -10.9055
        62        2.0000           -0.3987803             -10.8514
        63        2.0000           -0.3876231             -10.5478 (HOMO)
        64                         -0.2985256              -8.1233 (LUMO)
        65                         -0.2561701              -6.9707
        66                         -0.2502406              -6.8094
        67                         -0.2403032              -6.5390
        68                         -0.2337179              -6.3598
       ...                                ...                  ...
       126                          1.1253414              30.6221
      -------------------------------------------------------------
                  HL-Gap            0.0890975 Eh            2.4245 eV
             Fermi-level           -0.3430744 Eh           -9.3355 eV

 SCC (total)                   0 d,  0 h,  0 min,  0.059 sec
 SCC setup                      ...        0 min,  0.000 sec (  0.517%)
 Dispersion                     ...        0 min,  0.001 sec (  1.278%)
 classical contributions        ...        0 min,  0.000 sec (  0.124%)
 integral evaluation            ...        0 min,  0.007 sec ( 11.104%)
 iterations                     ...        0 min,  0.044 sec ( 75.520%)
 molecular gradient             ...        0 min,  0.006 sec ( 10.917%)
 printout                       ...        0 min,  0.000 sec (  0.482%)

         :::::::::::::::::::::::::::::::::::::::::::::::::::::
         ::                     SUMMARY                     ::
         :::::::::::::::::::::::::::::::::::::::::::::::::::::
         :: total energy             -68.461723597482 Eh    ::
         :: gradient norm              0.174040720944 Eh/a0 ::
         :: HOMO-LUMO gap              2.424465550747 eV    ::
         ::.................................................::
         :: SCC energy               -69.594780089526 Eh    ::
         :: -> isotropic ES            0.066695673310 Eh    ::
         :: -> anisotropic ES          0.003432886500 Eh    ::
         :: -> anisotropic XC          0.039942285783 Eh    ::
         :: -> dispersion             -0.059414554271 Eh    ::
         :: repulsion energy           1.133056492044 Eh    ::
         :: add. restraining           0.000000000000 Eh    ::
         :: total charge              -0.000000000000 e     ::
         :::::::::::::::::::::::::::::::::::::::::::::::::::::

      ----------------------------------------------------------- 
     |                   =====================                   |
     |                        A N C O P T                        |
     |                   =====================                   |
     |               Approximate Normal Coordinate               |
     |                Rational Function Optimizer                |
      ----------------------------------------------------------- 
      ----------------------------------------------------------- 
     |                   =====================                   |
     |                        A N C O P T                        |
     |                   =====================                   |
     |               Approximate Normal Coordinate               |
     |                Rational Function Optimizer                |
      ----------------------------------------------------------- 

          ...................................................
          :                      SETUP                      :
          :.................................................:
          :   optimization level            normal          :
          :   max. optcycles                   200          :
          :   ANC micro-cycles                  20          :
          :   degrees of freedom               132          :
          :.................................................:
          :   RF solver                   davidson          :
          :   write xtbopt.log                true          :
          :   linear?                        false          :
          :   energy convergence         0.5000000E-05 Eh   :
          :   grad. convergence          0.1000000E-02 Eh/α :
          :   maxmium RF displ.          1.0000000          :
          :   Hlow (freq-cutoff)         0.1000000E-01      :
          :   Hmax (freq-cutoff)         5.0000000          :
          :   S6 in model hess.         20.0000000          :
          ...................................................

generating ANC from exact Hessian ...
Using Lindh-Hessian (1995)
 Shifting diagonal of input Hessian by   9.632624435196802E-003
 Lowest  eigenvalues of input Hessian
    0.000000    0.000000    0.000000    0.000000    0.000000    0.000000
    0.010000    0.010025    0.010425    0.010671    0.011018    0.011149
    0.011480    0.013473    0.013612    0.014488    0.014888    0.017133
 Highest eigenvalues
    1.991518    2.004640    2.021934    2.059378    2.069543    2.290521
 

........................................................................
.............................. CYCLE    1 ..............................
........................................................................

 iter      E             dE          RMSdq      gap      omega  full diag
   1    -69.5961855 -0.695962E+02  0.754E-05    2.42       0.0  T
   2    -69.5961855 -0.274554E-10  0.482E-05    2.42     306.2  T
   3    -69.5961855 -0.111555E-10  0.317E-05    2.42     465.3  T
     SCC iter.                  ...        0 min,  0.010 sec
     gradient                   ...        0 min,  0.007 sec
 * total energy  :   -68.4617236 Eh     change       -0.1105434E-08 Eh
   gradient norm :     0.1740407 Eh/α   predicted     0.0000000E+00 (-100.00%)
   displ. norm   :     0.3127684 α      lambda       -0.3041926E-01
   maximum displ.:     0.1212873 α      in ANC's #32, #31, #93, ...

........................................................................
.............................. CYCLE    2 ..............................
........................................................................

 iter      E             dE          RMSdq      gap      omega  full diag
   1    -69.6324541 -0.696325E+02  0.361E-01    2.62       0.0  T
   2    -69.6328236 -0.369512E-03  0.211E-01    2.61       1.0  T
   3    -69.6326821  0.141498E-03  0.103E-01    2.59       1.0  T
   4    -69.6328834 -0.201225E-03  0.433E-02    2.61       1.0  T
   5    -69.6329529 -0.695448E-04  0.112E-02    2.60       1.3  T
   6    -69.6329548 -0.186507E-05  0.459E-03    2.60       3.2  T
   7    -69.6329552 -0.476406E-06  0.166E-03    2.60       8.9  T
   8    -69.6329553 -0.483288E-07  0.748E-04    2.60      19.7  T
   9    -69.6329553 -0.357271E-08  0.273E-04    2.60      53.9  T
     SCC iter.                  ...        0 min,  0.031 sec
     gradient                   ...        0 min,  0.007 sec
 * total energy  :   -68.4834042 Eh     change       -0.2168065E-01 Eh
   gradient norm :     0.0851132 Eh/α   predicted    -0.1671056E-01 ( -22.92%)
   displ. norm   :     0.2480567 α      lambda       -0.1095968E-01
   maximum displ.:     0.0871099 α      in ANC's #32, #11, #90, ...

........................................................................
.............................. CYCLE    3 ..............................
........................................................................

 iter      E             dE          RMSdq      gap      omega  full diag
   1    -69.6478261 -0.696478E+02  0.275E-01    2.71       0.0  T
   2    -69.6480864 -0.260269E-03  0.159E-01    2.71       1.0  T
   3    -69.6480513  0.351363E-04  0.800E-02    2.69       1.0  T
   4    -69.6481341 -0.828500E-04  0.386E-02    2.70       1.0  T
   5    -69.6481799 -0.457603E-04  0.104E-02    2.70       1.4  T
   6    -69.6481822 -0.232089E-05  0.382E-03    2.70       3.9  T
   7    -69.6481825 -0.315896E-06  0.124E-03    2.70      11.9  T
   8    -69.6481825 -0.221025E-07  0.617E-04    2.70      23.9  T
   9    -69.6481825 -0.637314E-09  0.265E-04    2.70      55.6  T
     SCC iter.                  ...        0 min,  0.028 sec
     gradient                   ...        0 min,  0.007 sec
 * total energy  :   -68.4895612 Eh     change       -0.6156913E-02 Eh
   gradient norm :     0.0224813 Eh/α   predicted    -0.5818649E-02 (  -5.49%)
   displ. norm   :     0.1718383 α      lambda       -0.1112641E-02
   maximum displ.:     0.0906846 α      in ANC's #11, #8, #1, ...

........................................................................
.............................. CYCLE    4 ..............................
........................................................................

 iter      E             dE          RMSdq      gap      omega  full diag
   1    -69.6441956 -0.696442E+02  0.830E-02    2.66       0.0  T
   2    -69.6442099 -0.143100E-04  0.499E-02    2.68       1.0  T
   3    -69.6442049  0.497869E-05  0.222E-02    2.67       1.0  T
   4    -69.6442135 -0.864534E-05  0.767E-03    2.68       1.9  T
   5    -69.6442145 -0.908422E-06  0.328E-03    2.67       4.5  T
   6    -69.6442149 -0.435739E-06  0.105E-03    2.67      14.0  T
   7    -69.6442149 -0.320079E-07  0.396E-04    2.67      37.2  T
   8    -69.6442149 -0.571148E-09  0.194E-04    2.67      76.0  T
     SCC iter.                  ...        0 min,  0.028 sec
     gradient                   ...        0 min,  0.005 sec
 * total energy  :   -68.4903534 Eh     change       -0.7922842E-03 Eh
   gradient norm :     0.0094248 Eh/α   predicted    -0.5727507E-03 ( -27.71%)
   displ. norm   :     0.2426408 α      lambda       -0.6621896E-03
   maximum displ.:     0.1223786 α      in ANC's #11, #8, #1, ...

........................................................................
.............................. CYCLE    5 ..............................
........................................................................

 iter      E             dE          RMSdq      gap      omega  full diag
   1    -69.6419391 -0.696419E+02  0.849E-02    2.65       0.0  T
   2    -69.6419436 -0.448806E-05  0.498E-02    2.66       1.0  T
   3    -69.6419398  0.378358E-05  0.137E-02    2.66       1.1  T
   4    -69.6419445 -0.468978E-05  0.368E-03    2.66       4.0  T
   5    -69.6419447 -0.158671E-06  0.146E-03    2.66      10.1  T
   6    -69.6419447 -0.535521E-07  0.603E-04    2.66      24.5  T
   7    -69.6419447 -0.497774E-08  0.280E-04    2.66      52.6  T
     SCC iter.                  ...        0 min,  0.037 sec
     gradient                   ...        0 min,  0.006 sec
 * total energy  :   -68.4907999 Eh     change       -0.4464444E-03 Eh
   gradient norm :     0.0071748 Eh/α   predicted    -0.3505890E-03 ( -21.47%)
   displ. norm   :     0.2275605 α      lambda       -0.3153283E-03
   maximum displ.:     0.0970191 α      in ANC's #1, #11, #8, ...

........................................................................
.............................. CYCLE    6 ..............................
........................................................................

 iter      E             dE          RMSdq      gap      omega  full diag
   1    -69.6423366 -0.696423E+02  0.662E-02    2.65       0.0  T
   2    -69.6423377 -0.107747E-05  0.384E-02    2.65       1.0  T
   3    -69.6423344  0.333458E-05  0.949E-03    2.66       1.6  T
   4    -69.6423381 -0.371146E-05  0.230E-03    2.65       6.4  T
   5    -69.6423383 -0.182549E-06  0.830E-04    2.65      17.8  T
   6    -69.6423383 -0.160004E-07  0.384E-04    2.65      38.4  T
     SCC iter.                  ...        0 min,  0.075 sec
     gradient                   ...        0 min,  0.006 sec
 * total energy  :   -68.4910378 Eh     change       -0.2379203E-03 Eh
   gradient norm :     0.0077591 Eh/α   predicted    -0.1658872E-03 ( -30.28%)
   displ. norm   :     0.2913087 α      lambda       -0.3184591E-03
   maximum displ.:     0.1376216 α      in ANC's #1, #2, #8, ...

........................................................................
.............................. CYCLE    7 ..............................
........................................................................

 iter      E             dE          RMSdq      gap      omega  full diag
   1    -69.6440325 -0.696440E+02  0.750E-02    2.65       0.0  T
   2    -69.6440345 -0.206242E-05  0.434E-02    2.65       1.0  T
   3    -69.6440290  0.547054E-05  0.136E-02    2.65       1.1  T
   4    -69.6440352 -0.616526E-05  0.319E-03    2.65       4.6  T
   5    -69.6440356 -0.421379E-06  0.118E-03    2.65      12.5  T
   6    -69.6440357 -0.318293E-07  0.475E-04    2.65      31.1  T
   7    -69.6440357 -0.573823E-08  0.223E-04    2.65      66.2  T
     SCC iter.                  ...        0 min,  0.040 sec
     gradient                   ...        0 min,  0.005 sec
 * total energy  :   -68.4912840 Eh     change       -0.2462318E-03 Eh
   gradient norm :     0.0072829 Eh/α   predicted    -0.1727444E-03 ( -29.84%)
   displ. norm   :     0.3484586 α      lambda       -0.3307096E-03
   maximum displ.:     0.1771059 α      in ANC's #1, #2, #8, ...

........................................................................
.............................. CYCLE    8 ..............................
........................................................................

 iter      E             dE          RMSdq      gap      omega  full diag
   1    -69.6458093 -0.696458E+02  0.835E-02    2.65       0.0  T
   2    -69.6458115 -0.218983E-05  0.483E-02    2.65       1.0  T
   3    -69.6458055  0.601774E-05  0.138E-02    2.65       1.1  T
   4    -69.6458124 -0.686119E-05  0.314E-03    2.65       4.7  T
   5    -69.6458127 -0.328797E-06  0.132E-03    2.65      11.2  T
   6    -69.6458128 -0.558028E-07  0.513E-04    2.65      28.7  T
   7    -69.6458128 -0.635532E-08  0.259E-04    2.65      57.0  T
     SCC iter.                  ...        0 min,  0.024 sec
     gradient                   ...        0 min,  0.006 sec
 * total energy  :   -68.4915533 Eh     change       -0.2692160E-03 Eh
   gradient norm :     0.0077338 Eh/α   predicted    -0.1854343E-03 ( -31.12%)
   displ. norm   :     0.4399668 α      lambda       -0.4003013E-03
   maximum displ.:     0.2344754 α      in ANC's #1, #2, #8, ...

........................................................................
.............................. CYCLE    9 ..............................
........................................................................

 iter      E             dE          RMSdq      gap      omega  full diag
   1    -69.6466864 -0.696467E+02  0.105E-01    2.64       0.0  T
   2    -69.6466886 -0.220631E-05  0.606E-02    2.64       1.0  T
   3    -69.6466827  0.589256E-05  0.122E-02    2.64       1.2  T
   4    -69.6466894 -0.669923E-05  0.313E-03    2.64       4.7  T
   5    -69.6466897 -0.331207E-06  0.113E-03    2.64      13.1  T
   6    -69.6466897 -0.329508E-07  0.588E-04    2.64      25.1  T
   7    -69.6466897 -0.583636E-08  0.277E-04    2.64      53.3  T
     SCC iter.                  ...        0 min,  0.024 sec
     gradient                   ...        0 min,  0.007 sec
 * total energy  :   -68.4918880 Eh     change       -0.3347657E-03 Eh
   gradient norm :     0.0082020 Eh/α   predicted    -0.2388999E-03 ( -28.64%)
   displ. norm   :     0.5134797 α      lambda       -0.4489615E-03
   maximum displ.:     0.2850401 α      in ANC's #1, #2, #8, ...

........................................................................
.............................. CYCLE   10 ..............................
........................................................................

 iter      E             dE          RMSdq      gap      omega  full diag
   1    -69.6462394 -0.696462E+02  0.126E-01    2.62       0.0  T
   2    -69.6462431 -0.369616E-05  0.728E-02    2.63       1.0  T
   3    -69.6462379  0.514235E-05  0.121E-02    2.62       1.2  T
   4    -69.6462436 -0.568456E-05  0.412E-03    2.63       3.6  T
   5    -69.6462443 -0.730351E-06  0.116E-03    2.63      12.8  T
   6    -69.6462443 -0.711778E-08  0.644E-04    2.63      22.9  T
   7    -69.6462443 -0.350708E-08  0.262E-04    2.63      56.3  T
     SCC iter.                  ...        0 min,  0.020 sec
     gradient                   ...        0 min,  0.005 sec
 * total energy  :   -68.4922516 Eh     change       -0.3635438E-03 Eh
   gradient norm :     0.0065915 Eh/α   predicted    -0.2836680E-03 ( -21.97%)
   displ. norm   :     0.4910593 α      lambda       -0.3590760E-03
   maximum displ.:     0.2851402 α      in ANC's #1, #2, #4, ...

........................................................................
.............................. CYCLE   11 ..............................
........................................................................

 iter      E             dE          RMSdq      gap      omega  full diag
   1    -69.6455374 -0.696455E+02  0.121E-01    2.61       0.0  T
   2    -69.6455415 -0.406873E-05  0.703E-02    2.62       1.0  T
   3    -69.6455369  0.458872E-05  0.128E-02    2.62       1.1  T
   4    -69.6455422 -0.524561E-05  0.408E-03    2.62       3.6  T
   5    -69.6455428 -0.606754E-06  0.130E-03    2.62      11.4  T
   6    -69.6455428 -0.100202E-07  0.648E-04    2.62      22.7  T
   7    -69.6455428 -0.787310E-08  0.306E-04    2.62      48.2  T
     SCC iter.                  ...        0 min,  0.020 sec
     gradient                   ...        0 min,  0.006 sec
 * total energy  :   -68.4925244 Eh     change       -0.2728831E-03 Eh
   gradient norm :     0.0042608 Eh/α   predicted    -0.2228384E-03 ( -18.34%)
   displ. norm   :     0.3926432 α      lambda       -0.2086636E-03
   maximum displ.:     0.2389226 α      in ANC's #1, #2, #4, ...

........................................................................
.............................. CYCLE   12 ..............................
........................................................................

 iter      E             dE          RMSdq      gap      omega  full diag
   1    -69.6451106 -0.696451E+02  0.941E-02    2.61       0.0  T
   2    -69.6451126 -0.202465E-05  0.548E-02    2.62       1.0  T
   3    -69.6451098  0.276790E-05  0.919E-03    2.62       1.6  T
   4    -69.6451131 -0.329111E-05  0.264E-03    2.62       5.6  T
   5    -69.6451133 -0.205047E-06  0.101E-03    2.62      14.6  T
   6    -69.6451133 -0.549642E-08  0.420E-04    2.62      35.1  T
   7    -69.6451133 -0.283828E-08  0.202E-04    2.62      72.8  T
     SCC iter.                  ...        0 min,  0.023 sec
     gradient                   ...        0 min,  0.010 sec
 * total energy  :   -68.4926889 Eh     change       -0.1644214E-03 Eh
   gradient norm :     0.0046300 Eh/α   predicted    -0.1204179E-03 ( -26.76%)
   displ. norm   :     0.3211462 α      lambda       -0.1752857E-03
   maximum displ.:     0.2053824 α      in ANC's #1, #2, #3, ...

........................................................................
.............................. CYCLE   13 ..............................
........................................................................

 iter      E             dE          RMSdq      gap      omega  full diag
   1    -69.6470406 -0.696470E+02  0.734E-02    2.63       0.0  T
   2    -69.6470414 -0.797491E-06  0.430E-02    2.62       1.0  T
   3    -69.6470397  0.172412E-05  0.634E-03    2.63       2.3  T
   4    -69.6470418 -0.208118E-05  0.151E-03    2.62       9.8  T
   5    -69.6470418 -0.168492E-07  0.849E-04    2.62      17.4  T
   6    -69.6470418 -0.807805E-08  0.360E-04    2.62      40.9  T
     SCC iter.                  ...        0 min,  0.025 sec
     gradient                   ...        0 min,  0.009 sec
 * total energy  :   -68.4928268 Eh     change       -0.1378920E-03 Eh
   gradient norm :     0.0057690 Eh/α   predicted    -0.9668362E-04 ( -29.88%)
   displ. norm   :     0.4669644 α      lambda       -0.2398002E-03
   maximum displ.:     0.2972968 α      in ANC's #1, #2, #3, ...

........................................................................
.............................. CYCLE   14 ..............................
........................................................................

 iter      E             dE          RMSdq      gap      omega  full diag
   1    -69.6442002 -0.696442E+02  0.107E-01    2.61       0.0  T
   2    -69.6442036 -0.339857E-05  0.621E-02    2.61       1.0  T
   3    -69.6441976  0.600407E-05  0.119E-02    2.61       1.2  T
   4    -69.6442045 -0.688572E-05  0.273E-03    2.61       5.4  T
   5    -69.6442047 -0.226155E-06  0.117E-03    2.61      12.6  T
   6    -69.6442047 -0.185408E-07  0.649E-04    2.61      22.7  T
   7    -69.6442047 -0.716393E-08  0.264E-04    2.61      55.8  T
     SCC iter.                  ...        0 min,  0.027 sec
     gradient                   ...        0 min,  0.005 sec
 * total energy  :   -68.4929865 Eh     change       -0.1596919E-03 Eh
   gradient norm :     0.0074282 Eh/α   predicted    -0.1460464E-03 (  -8.54%)
   displ. norm   :     0.3607177 α      lambda       -0.2318956E-03
   maximum displ.:     0.2359919 α      in ANC's #1, #2, #6, ...

........................................................................
.............................. CYCLE   15 ..............................
........................................................................

 iter      E             dE          RMSdq      gap      omega  full diag
   1    -69.6464407 -0.696464E+02  0.744E-02    2.62       0.0  T
   2    -69.6464434 -0.261452E-05  0.439E-02    2.62       1.0  T
   3    -69.6464386  0.474116E-05  0.134E-02    2.62       1.1  T
   4    -69.6464438 -0.514370E-05  0.342E-03    2.62       4.3  T
   5    -69.6464444 -0.624316E-06  0.942E-04    2.62      15.7  T
   6    -69.6464444 -0.114609E-07  0.531E-04    2.62      27.8  T
     SCC iter.                  ...        0 min,  0.019 sec
     gradient                   ...        0 min,  0.007 sec
 * total energy  :   -68.4931730 Eh     change       -0.1865301E-03 Eh
   gradient norm :     0.0048698 Eh/α   predicted    -0.1310373E-03 ( -29.75%)
   displ. norm   :     0.5299168 α      lambda       -0.2544652E-03
   maximum displ.:     0.3503495 α      in ANC's #1, #2, #6, ...

........................................................................
.............................. CYCLE   16 ..............................
........................................................................

 iter      E             dE          RMSdq      gap      omega  full diag
   1    -69.6470722 -0.696471E+02  0.981E-02    2.64       0.0  T
   2    -69.6470768 -0.462584E-05  0.580E-02    2.63       1.0  T
   3    -69.6470684  0.842981E-05  0.185E-02    2.63       1.0  T
   4    -69.6470776 -0.919410E-05  0.450E-03    2.63       3.3  T
   5    -69.6470787 -0.112607E-05  0.118E-03    2.63      12.5  T
   6    -69.6470787 -0.244810E-07  0.663E-04    2.63      22.3  T
   7    -69.6470787 -0.741078E-08  0.227E-04    2.63      64.9  T
     SCC iter.                  ...        0 min,  0.023 sec
     gradient                   ...        0 min,  0.005 sec
 * total energy  :   -68.4933766 Eh     change       -0.2036328E-03 Eh
   gradient norm :     0.0057474 Eh/α   predicted    -0.1629628E-03 ( -19.97%)
   displ. norm   :     0.5073654 α      lambda       -0.2381485E-03
   maximum displ.:     0.3366389 α      in ANC's #1, #2, #6, ...

........................................................................
.............................. CYCLE   17 ..............................
........................................................................

 iter      E             dE          RMSdq      gap      omega  full diag
   1    -69.6479305 -0.696479E+02  0.932E-02    2.61       0.0  T
   2    -69.6479331 -0.262267E-05  0.540E-02    2.61       1.0  T
   3    -69.6479279  0.521714E-05  0.128E-02    2.62       1.1  T
   4    -69.6479333 -0.546991E-05  0.388E-03    2.61       3.8  T
   5    -69.6479341 -0.764539E-06  0.106E-03    2.61      13.9  T
   6    -69.6479341 -0.659124E-08  0.384E-04    2.61      38.4  T
   7    -69.6479341 -0.390645E-08  0.166E-04    2.61      89.0  T
     SCC iter.                  ...        0 min,  0.022 sec
     gradient                   ...        0 min,  0.007 sec
 * total energy  :   -68.4935480 Eh     change       -0.1714256E-03 Eh
   gradient norm :     0.0051440 Eh/α   predicted    -0.1497282E-03 ( -12.66%)
   displ. norm   :     0.5441517 α      lambda       -0.2408465E-03
   maximum displ.:     0.3582075 α      in ANC's #1, #2, #6, ...

........................................................................
.............................. CYCLE   18 ..............................
........................................................................

 iter      E             dE          RMSdq      gap      omega  full diag
   1    -69.6464710 -0.696465E+02  0.935E-02    2.63       0.0  T
   2    -69.6464746 -0.361158E-05  0.546E-02    2.62       1.0  T
   3    -69.6464682  0.634937E-05  0.149E-02    2.63       1.0  T
   4    -69.6464754 -0.715095E-05  0.324E-03    2.62       4.5  T
   5    -69.6464759 -0.482411E-06  0.130E-03    2.62      11.4  T
   6    -69.6464759 -0.228953E-07  0.613E-04    2.62      24.0  T
   7    -69.6464759 -0.758772E-08  0.223E-04    2.62      66.1  T
     SCC iter.                  ...        0 min,  0.022 sec
     gradient                   ...        0 min,  0.005 sec
 * total energy  :   -68.4937024 Eh     change       -0.1543275E-03 Eh
   gradient norm :     0.0083204 Eh/α   predicted    -0.1560815E-03 (   1.14%)
   displ. norm   :     0.3837569 α      lambda       -0.2060767E-03
   maximum displ.:     0.2435855 α      in ANC's #1, #2, #6, ...

........................................................................
.............................. CYCLE   19 ..............................
........................................................................

 iter      E             dE          RMSdq      gap      omega  full diag
   1    -69.6489755 -0.696490E+02  0.781E-02    2.65       0.0  T
   2    -69.6489786 -0.310030E-05  0.454E-02    2.64       1.0  T
   3    -69.6489742  0.443561E-05  0.114E-02    2.64       1.3  T
   4    -69.6489794 -0.514891E-05  0.211E-03    2.64       7.0  T
   5    -69.6489795 -0.133077E-06  0.114E-03    2.64      12.9  T
   6    -69.6489795 -0.197567E-07  0.501E-04    2.64      29.4  T
   7    -69.6489795 -0.294568E-08  0.258E-04    2.64      57.2  T
     SCC iter.                  ...        0 min,  0.022 sec
     gradient                   ...        0 min,  0.006 sec
 * total energy  :   -68.4938200 Eh     change       -0.1176467E-03 Eh
   gradient norm :     0.0122350 Eh/α   predicted    -0.1182133E-03 (   0.48%)
   displ. norm   :     0.4094525 α      lambda       -0.2557087E-03
   maximum displ.:     0.2600053 α      in ANC's #1, #2, #4, ...

........................................................................
.............................. CYCLE   20 ..............................
........................................................................

 iter      E             dE          RMSdq      gap      omega  full diag
   1    -69.6486153 -0.696486E+02  0.820E-02    2.60       0.0  T
   2    -69.6486216 -0.629714E-05  0.509E-02    2.61       1.0  T
   3    -69.6486172  0.442808E-05  0.126E-02    2.61       1.2  T
   4    -69.6486221 -0.494369E-05  0.365E-03    2.61       4.0  T
   5    -69.6486227 -0.570380E-06  0.123E-03    2.61      12.0  T
   6    -69.6486227 -0.238794E-07  0.611E-04    2.61      24.1  T
   7    -69.6486227 -0.300942E-08  0.236E-04    2.61      62.5  T
     SCC iter.                  ...        0 min,  0.024 sec
     gradient                   ...        0 min,  0.007 sec
 * total energy  :   -68.4939737 Eh     change       -0.1537266E-03 Eh
   gradient norm :     0.0045693 Eh/α   predicted    -0.1492898E-03 (  -2.89%)
   displ. norm   :     0.2973743 α      lambda       -0.1085592E-03
   maximum displ.:     0.1892930 α      in ANC's #1, #2, #4, ...
 * RMSD in coord.:     0.9280450 α      energy gain  -0.3225014E-01 Eh

generating ANC from exact Hessian ...
Using Lindh-Hessian (1995)
 Shifting diagonal of input Hessian by   9.697575881613707E-003
 Lowest  eigenvalues of input Hessian
    0.000000    0.000000    0.000000    0.000000    0.000000    0.000000
    0.010000    0.010138    0.010468    0.010595    0.010982    0.011141
    0.011461    0.012936    0.013351    0.014723    0.014952    0.016414
 Highest eigenvalues
    1.993287    1.994818    2.000678    2.011830    2.162795    2.537550
 

........................................................................
.............................. CYCLE   21 ..............................
........................................................................

 iter      E             dE          RMSdq      gap      omega  full diag
   1    -69.6461522 -0.696462E+02  0.585E-02    2.61       0.0  T
   2    -69.6461531 -0.855196E-06  0.349E-02    2.61       1.0  T
   3    -69.6461504  0.265335E-05  0.787E-03    2.61       1.9  T
   4    -69.6461534 -0.293393E-05  0.197E-03    2.61       7.5  T
   5    -69.6461535 -0.156974E-06  0.807E-04    2.61      18.3  T
   6    -69.6461535 -0.584153E-08  0.302E-04    2.61      48.7  T
     SCC iter.                  ...        0 min,  0.021 sec
     gradient                   ...        0 min,  0.006 sec
 * total energy  :   -68.4940526 Eh     change       -0.7888469E-04 Eh
   gradient norm :     0.0036729 Eh/α   predicted     0.0000000E+00 (-100.00%)
   displ. norm   :     0.0528850 α      lambda       -0.6263183E-04
   maximum displ.:     0.0263780 α      in ANC's #5, #3, #6, ...

........................................................................
.............................. CYCLE   22 ..............................
........................................................................

 iter      E             dE          RMSdq      gap      omega  full diag
   1    -69.6481817 -0.696482E+02  0.182E-02    2.62       0.0  T
   2    -69.6481820 -0.235511E-06  0.109E-02    2.62       1.4  T
   3    -69.6481818  0.192813E-06  0.245E-03    2.62       6.0  T
   4    -69.6481820 -0.218891E-06  0.742E-04    2.62      19.9  T
   5    -69.6481820 -0.187374E-07  0.313E-04    2.62      47.0  T
     SCC iter.                  ...        0 min,  0.017 sec
     gradient                   ...        0 min,  0.006 sec
 * total energy  :   -68.4941052 Eh     change       -0.5253170E-04 Eh
   gradient norm :     0.0014835 Eh/α   predicted    -0.3222734E-04 ( -38.65%)
   displ. norm   :     0.2400660 α      lambda       -0.1169861E-03
   maximum displ.:     0.1214509 α      in ANC's #5, #3, #6, ...

........................................................................
.............................. CYCLE   23 ..............................
........................................................................

 iter      E             dE          RMSdq      gap      omega  full diag
   1    -69.6516372 -0.696516E+02  0.684E-02    2.64       0.0  T
   2    -69.6516388 -0.159869E-05  0.402E-02    2.63       1.0  T
   3    -69.6516368  0.205889E-05  0.745E-03    2.63       2.0  T
   4    -69.6516390 -0.226262E-05  0.250E-03    2.63       5.9  T
   5    -69.6516393 -0.242510E-06  0.101E-03    2.63      14.5  T
   6    -69.6516393 -0.104004E-07  0.454E-04    2.63      32.5  T
   7    -69.6516393 -0.350883E-08  0.191E-04    2.63      77.3  T
     SCC iter.                  ...        0 min,  0.021 sec
     gradient                   ...        0 min,  0.005 sec
 * total energy  :   -68.4941982 Eh     change       -0.9300057E-04 Eh
   gradient norm :     0.0037514 Eh/α   predicted    -0.5999319E-04 ( -35.49%)
   displ. norm   :     0.0826258 α      lambda       -0.4167374E-04
   maximum displ.:     0.0393342 α      in ANC's #5, #4, #3, ...

........................................................................
.............................. CYCLE   24 ..............................
........................................................................

 iter      E             dE          RMSdq      gap      omega  full diag
   1    -69.6507521 -0.696508E+02  0.164E-02    2.63       0.0  T
   2    -69.6507522 -0.830061E-07  0.956E-03    2.63       1.5  T
   3    -69.6507520  0.168245E-06  0.221E-03    2.63       6.7  T
   4    -69.6507522 -0.196472E-06  0.520E-04    2.63      28.3  T
   5    -69.6507522 -0.904097E-08  0.220E-04    2.63      66.9  T
     SCC iter.                  ...        0 min,  0.014 sec
     gradient                   ...        0 min,  0.005 sec
 * total energy  :   -68.4942359 Eh     change       -0.3778298E-04 Eh
   gradient norm :     0.0027792 Eh/α   predicted    -0.2097996E-04 ( -44.47%)
   displ. norm   :     0.2853902 α      lambda       -0.1318413E-03
   maximum displ.:     0.1286261 α      in ANC's #5, #4, #3, ...

........................................................................
.............................. CYCLE   25 ..............................
........................................................................

 iter      E             dE          RMSdq      gap      omega  full diag
   1    -69.6476186 -0.696476E+02  0.553E-02    2.63       0.0  T
   2    -69.6476194 -0.842216E-06  0.323E-02    2.63       1.0  T
   3    -69.6476176  0.184047E-05  0.711E-03    2.63       2.1  T
   4    -69.6476197 -0.217969E-05  0.144E-03    2.63      10.3  T
   5    -69.6476198 -0.553405E-07  0.657E-04    2.63      22.5  T
   6    -69.6476198 -0.258592E-08  0.313E-04    2.63      47.2  T
     SCC iter.                  ...        0 min,  0.017 sec
     gradient                   ...        0 min,  0.005 sec
 * total energy  :   -68.4943242 Eh     change       -0.8826125E-04 Eh
   gradient norm :     0.0027840 Eh/α   predicted    -0.7130602E-04 ( -19.21%)
   displ. norm   :     0.1676786 α      lambda       -0.4734073E-04
   maximum displ.:     0.0794693 α      in ANC's #4, #5, #3, ...

........................................................................
.............................. CYCLE   26 ..............................
........................................................................

 iter      E             dE          RMSdq      gap      omega  full diag
   1    -69.6467063 -0.696467E+02  0.355E-02    2.63       0.0  T
   2    -69.6467065 -0.191088E-06  0.208E-02    2.63       1.0  T
   3    -69.6467060  0.472875E-06  0.345E-03    2.63       4.3  T
   4    -69.6467066 -0.563551E-06  0.693E-04    2.63      21.3  T
   5    -69.6467066 -0.784107E-08  0.365E-04    2.63      40.4  T
     SCC iter.                  ...        0 min,  0.014 sec
     gradient                   ...        0 min,  0.005 sec
 * total energy  :   -68.4943608 Eh     change       -0.3659868E-04 Eh
   gradient norm :     0.0038060 Eh/α   predicted    -0.2433626E-04 ( -33.51%)
   displ. norm   :     0.2086147 α      lambda       -0.7370282E-04
   maximum displ.:     0.1022047 α      in ANC's #4, #3, #2, ...

........................................................................
.............................. CYCLE   27 ..............................
........................................................................

 iter      E             dE          RMSdq      gap      omega  full diag
   1    -69.6468832 -0.696469E+02  0.533E-02    2.64       0.0  T
   2    -69.6468836 -0.390973E-06  0.313E-02    2.64       1.0  T
   3    -69.6468830  0.576248E-06  0.407E-03    2.64       3.6  T
   4    -69.6468837 -0.700435E-06  0.992E-04    2.63      14.9  T
   5    -69.6468837 -0.159722E-07  0.549E-04    2.63      26.9  T
     SCC iter.                  ...        0 min,  0.019 sec
     gradient                   ...        0 min,  0.008 sec
 * total energy  :   -68.4944187 Eh     change       -0.5789563E-04 Eh
   gradient norm :     0.0036066 Eh/α   predicted    -0.3845854E-04 ( -33.57%)
   displ. norm   :     0.2801585 α      lambda       -0.9396717E-04
   maximum displ.:     0.1338739 α      in ANC's #4, #3, #2, ...

........................................................................
.............................. CYCLE   28 ..............................
........................................................................

 iter      E             dE          RMSdq      gap      omega  full diag
   1    -69.6476440 -0.696476E+02  0.768E-02    2.64       0.0  T
   2    -69.6476448 -0.749783E-06  0.454E-02    2.64       1.0  T
   3    -69.6476434  0.140536E-05  0.628E-03    2.64       2.3  T
   4    -69.6476450 -0.166219E-05  0.150E-03    2.64       9.8  T
   5    -69.6476451 -0.358087E-07  0.824E-04    2.64      17.9  T
   6    -69.6476451 -0.125027E-07  0.397E-04    2.64      37.2  T
     SCC iter.                  ...        0 min,  0.022 sec
     gradient                   ...        0 min,  0.005 sec
 * total energy  :   -68.4944886 Eh     change       -0.6989229E-04 Eh
   gradient norm :     0.0033254 Eh/α   predicted    -0.5067217E-04 ( -27.50%)
   displ. norm   :     0.2447701 α      lambda       -0.8159527E-04
   maximum displ.:     0.1081192 α      in ANC's #4, #2, #3, ...

........................................................................
.............................. CYCLE   29 ..............................
........................................................................

 iter      E             dE          RMSdq      gap      omega  full diag
   1    -69.6491246 -0.696491E+02  0.711E-02    2.64       0.0  T
   2    -69.6491253 -0.713491E-06  0.420E-02    2.64       1.0  T
   3    -69.6491235  0.180585E-05  0.683E-03    2.64       2.2  T
   4    -69.6491255 -0.206019E-05  0.147E-03    2.64      10.0  T
   5    -69.6491256 -0.479398E-07  0.768E-04    2.64      19.2  T
   6    -69.6491256 -0.135756E-07  0.372E-04    2.64      39.6  T
     SCC iter.                  ...        0 min,  0.017 sec
     gradient                   ...        0 min,  0.007 sec
 * total energy  :   -68.4945477 Eh     change       -0.5911617E-04 Eh
   gradient norm :     0.0023552 Eh/α   predicted    -0.4325047E-04 ( -26.84%)
   displ. norm   :     0.2853649 α      lambda       -0.6433522E-04
   maximum displ.:     0.1226543 α      in ANC's #2, #3, #4, ...

........................................................................
.............................. CYCLE   30 ..............................
........................................................................

 iter      E             dE          RMSdq      gap      omega  full diag
   1    -69.6487108 -0.696487E+02  0.744E-02    2.64       0.0  T
   2    -69.6487116 -0.730092E-06  0.439E-02    2.64       1.0  T
   3    -69.6487088  0.276521E-05  0.804E-03    2.64       1.8  T
   4    -69.6487120 -0.317407E-05  0.167E-03    2.64       8.8  T
   5    -69.6487120 -0.367411E-07  0.861E-04    2.64      17.1  T
   6    -69.6487120 -0.136654E-07  0.368E-04    2.64      40.0  T
     SCC iter.                  ...        0 min,  0.030 sec
     gradient                   ...        0 min,  0.006 sec
 * total energy  :   -68.4945857 Eh     change       -0.3803868E-04 Eh
   gradient norm :     0.0039080 Eh/α   predicted    -0.3478810E-04 (  -8.55%)
   displ. norm   :     0.2110643 α      lambda       -0.1011307E-03
   maximum displ.:     0.0955731 α      in ANC's #2, #7, #3, ...

........................................................................
.............................. CYCLE   31 ..............................
........................................................................

 iter      E             dE          RMSdq      gap      omega  full diag
   1    -69.6517455 -0.696517E+02  0.642E-02    2.64       0.0  T
   2    -69.6517472 -0.164839E-05  0.375E-02    2.63       1.0  T
   3    -69.6517448  0.242287E-05  0.791E-03    2.64       1.9  T
   4    -69.6517475 -0.270727E-05  0.207E-03    2.63       7.1  T
   5    -69.6517476 -0.144859E-06  0.833E-04    2.64      17.7  T
   6    -69.6517476 -0.958559E-08  0.408E-04    2.64      36.2  T
     SCC iter.                  ...        0 min,  0.019 sec
     gradient                   ...        0 min,  0.006 sec
 * total energy  :   -68.4946247 Eh     change       -0.3895317E-04 Eh
   gradient norm :     0.0031654 Eh/α   predicted    -0.5283640E-04 (  35.64%)
   displ. norm   :     0.1641139 α      lambda       -0.4686406E-04
   maximum displ.:     0.0744909 α      in ANC's #2, #3, #14, ...

........................................................................
.............................. CYCLE   32 ..............................
........................................................................

 iter      E             dE          RMSdq      gap      omega  full diag
   1    -69.6500200 -0.696500E+02  0.401E-02    2.64       0.0  T
   2    -69.6500204 -0.348734E-06  0.236E-02    2.64       1.0  T
   3    -69.6500195  0.834355E-06  0.449E-03    2.64       3.3  T
   4    -69.6500205 -0.974855E-06  0.918E-04    2.64      16.1  T
   5    -69.6500205 -0.132469E-07  0.499E-04    2.64      29.6  T
     SCC iter.                  ...        0 min,  0.016 sec
     gradient                   ...        0 min,  0.007 sec
 * total energy  :   -68.4946570 Eh     change       -0.3234790E-04 Eh
   gradient norm :     0.0029062 Eh/α   predicted    -0.2406680E-04 ( -25.60%)
   displ. norm   :     0.1097343 α      lambda       -0.5488144E-04
   maximum displ.:     0.0447209 α      in ANC's #2, #1, #9, ...

........................................................................
.............................. CYCLE   33 ..............................
........................................................................

 iter      E             dE          RMSdq      gap      omega  full diag
   1    -69.6489323 -0.696489E+02  0.391E-02    2.64       0.0  T
   2    -69.6489325 -0.206681E-06  0.234E-02    2.64       1.0  T
   3    -69.6489320  0.528581E-06  0.372E-03    2.64       4.0  T
   4    -69.6489326 -0.601817E-06  0.106E-03    2.64      13.9  T
   5    -69.6489326 -0.253078E-07  0.383E-04    2.64      38.5  T
   6    -69.6489326 -0.790251E-09  0.184E-04    2.64      80.2  T
     SCC iter.                  ...        0 min,  0.021 sec
     gradient                   ...        0 min,  0.007 sec
 * total energy  :   -68.4946955 Eh     change       -0.3846282E-04 Eh
   gradient norm :     0.0028305 Eh/α   predicted    -0.2777144E-04 ( -27.80%)
   displ. norm   :     0.1158812 α      lambda       -0.4051588E-04
   maximum displ.:     0.0481423 α      in ANC's #7, #1, #2, ...

........................................................................
.............................. CYCLE   34 ..............................
........................................................................

 iter      E             dE          RMSdq      gap      omega  full diag
   1    -69.6487677 -0.696488E+02  0.379E-02    2.64       0.0  T
   2    -69.6487679 -0.232150E-06  0.226E-02    2.64       1.0  T
   3    -69.6487675  0.423949E-06  0.334E-03    2.64       4.4  T
   4    -69.6487680 -0.466956E-06  0.107E-03    2.64      13.8  T
   5    -69.6487680 -0.374783E-07  0.374E-04    2.64      39.4  T
   6    -69.6487680 -0.675541E-09  0.173E-04    2.64      85.2  T
     SCC iter.                  ...        0 min,  0.019 sec
     gradient                   ...        0 min,  0.007 sec
 * total energy  :   -68.4947241 Eh     change       -0.2863156E-04 Eh
   gradient norm :     0.0021677 Eh/α   predicted    -0.2053431E-04 ( -28.28%)
   displ. norm   :     0.1849794 α      lambda       -0.3155814E-04
   maximum displ.:     0.0819216 α      in ANC's #2, #7, #1, ...

........................................................................
.............................. CYCLE   35 ..............................
........................................................................

 iter      E             dE          RMSdq      gap      omega  full diag
   1    -69.6483724 -0.696484E+02  0.467E-02    2.64       0.0  T
   2    -69.6483726 -0.188303E-06  0.275E-02    2.64       1.0  T
   3    -69.6483720  0.585212E-06  0.382E-03    2.64       3.9  T
   4    -69.6483727 -0.686703E-06  0.747E-04    2.64      19.7  T
   5    -69.6483727 -0.119942E-07  0.423E-04    2.64      34.9  T
     SCC iter.                  ...        0 min,  0.047 sec
     gradient                   ...        0 min,  0.006 sec
 * total energy  :   -68.4947454 Eh     change       -0.2122620E-04 Eh
   gradient norm :     0.0024469 Eh/α   predicted    -0.1631989E-04 ( -23.11%)
   displ. norm   :     0.1215112 α      lambda       -0.3175571E-04
   maximum displ.:     0.0551710 α      in ANC's #5, #1, #7, ...

........................................................................
.............................. CYCLE   36 ..............................
........................................................................

 iter      E             dE          RMSdq      gap      omega  full diag
   1    -69.6498471 -0.696498E+02  0.286E-02    2.64       0.0  T
   2    -69.6498475 -0.382424E-06  0.167E-02    2.64       1.0  T
   3    -69.6498471  0.364234E-06  0.332E-03    2.64       4.4  T
   4    -69.6498476 -0.421192E-06  0.946E-04    2.64      15.6  T
   5    -69.6498476 -0.270535E-07  0.372E-04    2.64      39.6  T
     SCC iter.                  ...        0 min,  0.056 sec
     gradient                   ...        0 min,  0.006 sec
 * total energy  :   -68.4947610 Eh     change       -0.1559478E-04 Eh
   gradient norm :     0.0014316 Eh/α   predicted    -0.1611493E-04 (   3.34%)
   displ. norm   :     0.2251659 α      lambda       -0.2022772E-04
   maximum displ.:     0.1056579 α      in ANC's #2, #1, #14, ...

........................................................................
.............................. CYCLE   37 ..............................
........................................................................

 iter      E             dE          RMSdq      gap      omega  full diag
   1    -69.6489632 -0.696490E+02  0.538E-02    2.64       0.0  T
   2    -69.6489637 -0.421703E-06  0.317E-02    2.64       1.0  T
   3    -69.6489627  0.957514E-06  0.467E-03    2.64       3.2  T
   4    -69.6489638 -0.112669E-05  0.112E-03    2.64      13.2  T
   5    -69.6489638 -0.190849E-07  0.583E-04    2.64      25.3  T
   6    -69.6489639 -0.353481E-08  0.262E-04    2.64      56.2  T
     SCC iter.                  ...        0 min,  0.034 sec
     gradient                   ...        0 min,  0.006 sec
 * total energy  :   -68.4947725 Eh     change       -0.1158371E-04 Eh
   gradient norm :     0.0025477 Eh/α   predicted    -0.1034279E-04 ( -10.71%)
   displ. norm   :     0.0430160 α      lambda       -0.1658150E-04
   maximum displ.:     0.0212231 α      in ANC's #7, #8, #3, ...

........................................................................
.............................. CYCLE   38 ..............................
........................................................................

 iter      E             dE          RMSdq      gap      omega  full diag
   1    -69.6496154 -0.696496E+02  0.145E-02    2.64       0.0  T
   2    -69.6496155 -0.702599E-07  0.861E-03    2.64       1.7  T
   3    -69.6496155  0.539099E-07  0.148E-03    2.64      10.0  T
   4    -69.6496155 -0.629738E-07  0.438E-04    2.64      33.7  T
   5    -69.6496155 -0.656198E-08  0.172E-04    2.64      85.9  T
     SCC iter.                  ...        0 min,  0.028 sec
     gradient                   ...        0 min,  0.006 sec
 * total energy  :   -68.4947855 Eh     change       -0.1299593E-04 Eh
   gradient norm :     0.0014458 Eh/α   predicted    -0.8307708E-05 ( -36.07%)
   displ. norm   :     0.1384270 α      lambda       -0.2597371E-04
   maximum displ.:     0.0664218 α      in ANC's #8, #1, #3, ...

........................................................................
.............................. CYCLE   39 ..............................
........................................................................

 iter      E             dE          RMSdq      gap      omega  full diag
   1    -69.6501948 -0.696502E+02  0.312E-02    2.63       0.0  T
   2    -69.6501952 -0.400926E-06  0.184E-02    2.63       1.0  T
   3    -69.6501950  0.204158E-06  0.357E-03    2.63       4.1  T
   4    -69.6501952 -0.254586E-06  0.100E-03    2.63      14.7  T
   5    -69.6501953 -0.275885E-07  0.410E-04    2.63      36.0  T
   6    -69.6501953 -0.413053E-09  0.157E-04    2.63      94.2  T
     SCC iter.                  ...        0 min,  0.034 sec
     gradient                   ...        0 min,  0.006 sec
 * total energy  :   -68.4948079 Eh     change       -0.2233498E-04 Eh
   gradient norm :     0.0016164 Eh/α   predicted    -0.1310167E-04 ( -41.34%)
   displ. norm   :     0.1333731 α      lambda       -0.1396221E-04
   maximum displ.:     0.0741122 α      in ANC's #1, #14, #2, ...

........................................................................
.............................. CYCLE   40 ..............................
........................................................................

 iter      E             dE          RMSdq      gap      omega  full diag
   1    -69.6498722 -0.696499E+02  0.256E-02    2.63       0.0  T
   2    -69.6498723 -0.926205E-07  0.150E-02    2.63       1.0  T
   3    -69.6498721  0.194471E-06  0.210E-03    2.63       7.0  T
   4    -69.6498724 -0.232468E-06  0.607E-04    2.63      24.3  T
   5    -69.6498724 -0.681820E-08  0.318E-04    2.63      46.4  T
     SCC iter.                  ...        0 min,  0.022 sec
     gradient                   ...        0 min,  0.006 sec
 * total energy  :   -68.4948247 Eh     change       -0.1678451E-04 Eh
   gradient norm :     0.0014343 Eh/α   predicted    -0.7039199E-05 ( -58.06%)
   displ. norm   :     0.2269873 α      lambda       -0.2117844E-04
   maximum displ.:     0.1336801 α      in ANC's #1, #14, #2, ...

........................................................................
.............................. CYCLE   41 ..............................
........................................................................

 iter      E             dE          RMSdq      gap      omega  full diag
   1    -69.6491831 -0.696492E+02  0.463E-02    2.63       0.0  T
   2    -69.6491834 -0.326174E-06  0.272E-02    2.63       1.0  T
   3    -69.6491827  0.772469E-06  0.422E-03    2.63       3.5  T
   4    -69.6491836 -0.927267E-06  0.104E-03    2.63      14.2  T
   5    -69.6491836 -0.944851E-08  0.550E-04    2.63      26.8  T
   6    -69.6491836 -0.387719E-08  0.233E-04    2.63      63.2  T
     SCC iter.                  ...        0 min,  0.018 sec
     gradient                   ...        0 min,  0.007 sec
 * total energy  :   -68.4948404 Eh     change       -0.1572760E-04 Eh
   gradient norm :     0.0020708 Eh/α   predicted    -0.1083389E-04 ( -31.12%)
   displ. norm   :     0.0435583 α      lambda       -0.1232940E-04
   maximum displ.:     0.0224994 α      in ANC's #3, #7, #15, ...

........................................................................
.............................. CYCLE   42 ..............................
........................................................................

 iter      E             dE          RMSdq      gap      omega  full diag
   1    -69.6497276 -0.696497E+02  0.158E-02    2.63       0.0  T
   2    -69.6497277 -0.783264E-07  0.922E-03    2.63       1.6  T
   3    -69.6497277  0.463042E-07  0.128E-03    2.63      11.6  T
   4    -69.6497277 -0.567906E-07  0.444E-04    2.63      33.2  T
   5    -69.6497277 -0.630547E-08  0.187E-04    2.63      78.8  T
     SCC iter.                  ...        0 min,  0.020 sec
     gradient                   ...        0 min,  0.009 sec
 * total energy  :   -68.4948481 Eh     change       -0.7759022E-05 Eh
   gradient norm :     0.0013139 Eh/α   predicted    -0.6179980E-05 ( -20.35%)
   displ. norm   :     0.0851706 α      lambda       -0.1016258E-04
   maximum displ.:     0.0516347 α      in ANC's #1, #3, #7, ...
 * RMSD in coord.:     0.4064637 α      energy gain  -0.8744048E-03 Eh

generating ANC from exact Hessian ...
Using Lindh-Hessian (1995)
 Shifting diagonal of input Hessian by   9.709759342334786E-003
 Lowest  eigenvalues of input Hessian
    0.000000    0.000000    0.000000    0.000000    0.000000    0.000000
    0.010000    0.010169    0.010488    0.010542    0.011009    0.011175
    0.011448    0.012865    0.013339    0.014757    0.015079    0.016488
 Highest eigenvalues
    1.994654    1.996407    2.002570    2.012953    2.179825    2.535563
 

........................................................................
.............................. CYCLE   43 ..............................
........................................................................

 iter      E             dE          RMSdq      gap      omega  full diag
   1    -69.6503954 -0.696504E+02  0.245E-02    2.63       0.0  T
   2    -69.6503955 -0.104852E-06  0.143E-02    2.63       1.0  T
   3    -69.6503953  0.193500E-06  0.230E-03    2.63       6.4  T
   4    -69.6503955 -0.219136E-06  0.688E-04    2.63      21.4  T
   5    -69.6503956 -0.158929E-07  0.285E-04    2.63      51.7  T
     SCC iter.                  ...        0 min,  0.024 sec
     gradient                   ...        0 min,  0.012 sec
 * total energy  :   -68.4948595 Eh     change       -0.1138797E-04 Eh
   gradient norm :     0.0008947 Eh/α   predicted     0.0000000E+00 (-100.00%)
   displ. norm   :     0.0230796 α      lambda       -0.4258375E-05
   maximum displ.:     0.0124222 α      in ANC's #8, #9, #1, ...

........................................................................
.............................. CYCLE   44 ..............................
........................................................................

 iter      E             dE          RMSdq      gap      omega  full diag
   1    -69.6499916 -0.696500E+02  0.797E-03    2.63       0.0  T
   2    -69.6499916 -0.144328E-07  0.465E-03    2.63       3.2  T
   3    -69.6499915  0.436732E-07  0.100E-03    2.63      14.8  T
   4    -69.6499916 -0.513243E-07  0.213E-04    2.63      69.3  T
     SCC iter.                  ...        0 min,  0.021 sec
     gradient                   ...        0 min,  0.008 sec
 * total energy  :   -68.4948648 Eh     change       -0.5314890E-05 Eh
   gradient norm :     0.0003167 Eh/α   predicted    -0.2183855E-05 ( -58.91%)
   displ. norm   :     0.0816463 α      lambda       -0.1018673E-04
   maximum displ.:     0.0421365 α      in ANC's #8, #9, #1, ...

........................................................................
.............................. CYCLE   45 ..............................
........................................................................

 iter      E             dE          RMSdq      gap      omega  full diag
   1    -69.6495663 -0.696496E+02  0.254E-02    2.63       0.0  T
   2    -69.6495664 -0.134212E-06  0.147E-02    2.63       1.0  T
   3    -69.6495660  0.393573E-06  0.292E-03    2.63       5.0  T
   4    -69.6495665 -0.460309E-06  0.615E-04    2.63      24.0  T
   5    -69.6495665 -0.695415E-08  0.294E-04    2.63      50.2  T
     SCC iter.                  ...        0 min,  0.014 sec
     gradient                   ...        0 min,  0.006 sec
 * total energy  :   -68.4948754 Eh     change       -0.1055304E-04 Eh
   gradient norm :     0.0011383 Eh/α   predicted    -0.5111839E-05 ( -51.56%)
   displ. norm   :     0.0858595 α      lambda       -0.6752610E-05
   maximum displ.:     0.0388779 α      in ANC's #8, #9, #1, ...

........................................................................
.............................. CYCLE   46 ..............................
........................................................................

 iter      E             dE          RMSdq      gap      omega  full diag
   1    -69.6494756 -0.696495E+02  0.254E-02    2.63       0.0  T
   2    -69.6494758 -0.142013E-06  0.148E-02    2.63       1.0  T
   3    -69.6494754  0.375422E-06  0.292E-03    2.63       5.0  T
   4    -69.6494758 -0.436757E-06  0.599E-04    2.63      24.6  T
   5    -69.6494758 -0.105426E-07  0.279E-04    2.63      52.9  T
     SCC iter.                  ...        0 min,  0.014 sec
     gradient                   ...        0 min,  0.006 sec
 * total energy  :   -68.4948830 Eh     change       -0.7612532E-05 Eh
   gradient norm :     0.0012476 Eh/α   predicted    -0.3425988E-05 ( -55.00%)
   displ. norm   :     0.1017940 α      lambda       -0.7010596E-05
   maximum displ.:     0.0415515 α      in ANC's #1, #14, #9, ...

........................................................................
.............................. CYCLE   47 ..............................
........................................................................

 iter      E             dE          RMSdq      gap      omega  full diag
   1    -69.6496134 -0.696496E+02  0.290E-02    2.64       0.0  T
   2    -69.6496136 -0.200178E-06  0.171E-02    2.63       1.0  T
   3    -69.6496131  0.427473E-06  0.337E-03    2.64       4.4  T
   4    -69.6496136 -0.494700E-06  0.723E-04    2.63      20.4  T
   5    -69.6496136 -0.204670E-07  0.309E-04    2.63      47.8  T
     SCC iter.                  ...        0 min,  0.014 sec
     gradient                   ...        0 min,  0.007 sec
 * total energy  :   -68.4948904 Eh     change       -0.7431267E-05 Eh
   gradient norm :     0.0007785 Eh/α   predicted    -0.3521775E-05 ( -52.61%)
   displ. norm   :     0.0767264 α      lambda       -0.4706885E-05
   maximum displ.:     0.0371064 α      in ANC's #1, #14, #2, ...

........................................................................
.............................. CYCLE   48 ..............................
........................................................................

 iter      E             dE          RMSdq      gap      omega  full diag
   1    -69.6499711 -0.696500E+02  0.214E-02    2.64       0.0  T
   2    -69.6499712 -0.905530E-07  0.128E-02    2.64       1.2  T
   3    -69.6499710  0.191519E-06  0.231E-03    2.64       6.4  T
   4    -69.6499712 -0.225001E-06  0.450E-04    2.64      32.8  T
   5    -69.6499713 -0.580629E-08  0.234E-04    2.64      62.9  T
     SCC iter.                  ...        0 min,  0.014 sec
     gradient                   ...        0 min,  0.007 sec
 * total energy  :   -68.4948955 Eh     change       -0.5069070E-05 Eh
   gradient norm :     0.0003121 Eh/α   predicted    -0.2374777E-05 ( -53.15%)
   displ. norm   :     0.0637452 α      lambda       -0.3595290E-05
   maximum displ.:     0.0344204 α      in ANC's #1, #14, #6, ...

........................................................................
.............................. CYCLE   49 ..............................
........................................................................

 iter      E             dE          RMSdq      gap      omega  full diag
   1    -69.6501928 -0.696502E+02  0.169E-02    2.64       0.0  T
   2    -69.6501928 -0.303778E-07  0.100E-02    2.64       1.5  T
   3    -69.6501928  0.414358E-07  0.122E-03    2.64      12.1  T
   4    -69.6501928 -0.526602E-07  0.327E-04    2.64      45.1  T
   5    -69.6501928 -0.124314E-08  0.190E-04    2.64      77.7  T
     SCC iter.                  ...        0 min,  0.014 sec
     gradient                   ...        0 min,  0.007 sec
 * total energy  :   -68.4948996 Eh     change       -0.4123417E-05 Eh
   gradient norm :     0.0005755 Eh/α   predicted    -0.1803743E-05 ( -56.26%)
   displ. norm   :     0.0739883 α      lambda       -0.4060338E-05
   maximum displ.:     0.0416565 α      in ANC's #1, #6, #14, ...

   *** GEOMETRY OPTIMIZATION CONVERGED AFTER 49 ITERATIONS ***

------------------------------------------------------------------------
 total energy gain   :        -0.0331760 Eh      -20.8183 kcal/mol
 total RMSD          :         1.1885234 a0        0.6289 Å
 total power (kW/mol):        -1.7776262 (step)  -49.7215 (real)
------------------------------------------------------------------------

 ANCopt (total)                0 d,  0 h,  0 min,  1.752 sec
 optimizer setup                ...        0 min,  0.000 sec (  0.007%)
 model hessian                  ...        0 min,  0.074 sec (  4.196%)
 ANC generation                 ...        0 min,  0.005 sec (  0.301%)
 coordinate transformation      ...        0 min,  0.001 sec (  0.059%)
 single point calculation       ...        0 min,  1.635 sec ( 93.318%)
 optimization log               ...        0 min,  0.021 sec (  1.204%)
 hessian update                 ...        0 min,  0.009 sec (  0.516%)
 rational function              ...        0 min,  0.005 sec (  0.271%)

================
 final structure:
================
46
 xtb: 6.7.1 (edcfbbe)
C            1.81878402961621       -0.60107915763222        3.10479407761038
C            2.17634473965474       -0.58590895330121        1.65146691886707
C            1.55437010566487        0.31099181377412        0.77905409716100
C            0.41832958635549        1.13005951013693        1.24744061903417
P           -1.22582718029113        0.18583196325477        1.12226813843433
C           -1.14159659222454       -0.80982356906690       -0.40324320158339
C           -0.41100697077615       -1.98857296720324       -0.32407946101782
C           -0.26041857668391       -2.78618142561207       -1.44250846346172
C           -0.84970124669259       -2.41320338312147       -2.63984704657795
C           -1.59794538513578       -1.24970335647199       -2.71418439586232
C           -1.74290724278837       -0.44293871760926       -1.59893938800164
C           -2.49924862067952        1.46236758738158        0.91673578001999
C           -2.34375614431107        2.54037156511669        0.05425006754783
C           -3.35212751379348        3.48104514988016       -0.04977394223174
C           -4.50872665528036        3.34767797689712        0.70268042651371
C           -4.65891024200148        2.27684183430477        1.56901039479275
C           -3.65230402863897        1.33469460740339        1.67863809710717
O           -1.40264654960769       -0.64632188284560        2.32385663750118
O            0.43749106882521        2.22255864664086        1.74006909640759
C            1.93493695431659        0.38732128946602       -0.56252769454067
C            1.31755557139180        1.41198094969541       -1.46564671656451
C            2.90361877342267       -0.48472972954292       -1.03267391037315
C            3.50372484204502       -1.41609393237851       -0.19773077909083
C            4.54871977131903       -2.35205171417738       -0.72327784488877
C            3.14424412141294       -1.43813972895629        1.14261470327215
H            2.05081561396525        0.36331697178882        3.55612207930510
H            0.75315823162123       -0.77768924469956        3.23891964867297
H            2.37235829242629       -1.37503941427717        3.63041122149088
H            0.02471268499631       -2.27192854064056        0.62290769007978
H            0.31483833188814       -3.69790557034085       -1.38118368326161
H           -0.73342946565056       -3.03447302292555       -3.51559161327714
H           -2.06893930716861       -0.96824832424345       -3.64474598824124
H           -2.32953714407297        0.46371397688613       -1.65436052194098
H           -1.43494770069440        2.64822448583438       -0.52050475436713
H           -3.23548913800546        4.32358019149152       -0.71584767766112
H           -5.29222793504103        4.08639314621552        0.61788430371959
H           -5.55752191325462        2.17999990224534        2.16026870578222
H           -3.73581124208434        0.49505960302413        2.35370559418670
H            0.27295398108790        1.16854418044651       -1.66318456147407
H            1.84295184498738        1.45060584745620       -2.41680837394193
H            1.35768680649726        2.39808444254259       -1.00444757372705
H            3.19441464575358       -0.43572454645075       -2.07236041923996
H            5.53769535728849       -1.90694824035023       -0.60987223199897
H            4.53884408489674       -3.29113245355818       -0.17509132520747
H            4.39023994126653       -2.55582042136034       -1.77960874463152
H            3.62623641417438       -2.13960634513695        1.80867301566979
 
 Bond Distances (Angstroems)
 ---------------------------
C1-C2=1.4967         C1-H26=1.0898        C1-H27=1.0885        C1-H28=1.0871        C2-C1=1.4967         C2-C3=1.3973         
C2-C25=1.3864        C3-C2=1.3973         C3-C4=1.4768         C3-C20=1.3966        C4-C3=1.4768         C4-P5=1.9001         
C4-O19=1.1986        P5-C4=1.9001         P5-C6=1.8236         P5-C12=1.8148        P5-O18=1.4723        C6-P5=1.8236         
C6-C7=1.3891         C6-C11=1.3878        C7-C6=1.3891         C7-C8=1.3819         C7-H29=1.0802        C8-C7=1.3819         
C8-C9=1.3856         C8-H30=1.0798        C9-C8=1.3856         C9-C10=1.3853        C9-H31=1.0800        C10-C9=1.3853        
C10-C11=1.3841       C10-H32=1.0803       C11-C6=1.3878        C11-C10=1.3841       C11-H33=1.0813       C12-P5=1.8148        
C12-C13=1.3893       C12-C17=1.3879       C13-C12=1.3893       C13-C14=1.3829       C13-H34=1.0807       C14-C13=1.3829       
C14-C15=1.3863       C14-H35=1.0803       C15-C14=1.3863       C15-C16=1.3856       C15-H36=1.0802       C16-C15=1.3856       
C16-C17=1.3831       C16-H37=1.0800       C17-C12=1.3879       C17-C16=1.3831       C17-H38=1.0806       O18-P5=1.4723        
O19-C4=1.1986        C20-C3=1.3966        C20-C21=1.4989       C20-C22=1.3856       C21-C20=1.4989       C21-H39=1.0906       
C21-H40=1.0873       C21-H41=1.0894       C22-C20=1.3856       C22-C23=1.3873       C22-H42=1.0807       C23-C22=1.3873       
C23-C24=1.4981       C23-C25=1.3879       C24-C23=1.4981       C24-H43=1.0904       C24-H44=1.0874       C24-H45=1.0874       
C25-C2=1.3864        C25-C23=1.3879       C25-H46=1.0807       H26-C1=1.0898        H27-C1=1.0885        H28-C1=1.0871        
H29-C7=1.0802        H30-C8=1.0798        H31-C9=1.0800        H32-C10=1.0803       H33-C11=1.0813       H34-C13=1.0807       
H35-C14=1.0803       H36-C15=1.0802       H37-C16=1.0800       H38-C17=1.0806       H39-C21=1.0906       H40-C21=1.0873       
H41-C21=1.0894       H42-C22=1.0807       H43-C24=1.0904       H44-C24=1.0874       H45-C24=1.0874       H46-C25=1.0807       
 C  H  Rav=1.0839 sigma=0.0042  Rmin=1.0798  Rmax=1.0906    21
 C  C  Rav=1.4064 sigma=0.0410  Rmin=1.3819  Rmax=1.4989    22
 O  C  Rav=1.1986 sigma=0.0000  Rmin=1.1986  Rmax=1.1986     1
 P  C  Rav=1.8462 sigma=0.0383  Rmin=1.8148  Rmax=1.9001     3
 P  O  Rav=1.4723 sigma=0.0000  Rmin=1.4723  Rmax=1.4723     1
 
 selected bond angles (degree)
 --------------------
H26-C1-C2=110.02               H27-C1-C2=110.80               H27-C1-H26=107.52              H28-C1-C2=110.80               
H28-C1-H26=108.75              H28-C1-H27=108.87              C3-C2-C1=120.43                C25-C2-C1=121.13               
C25-C2-C3=118.44               C4-C3-C2=120.03                C20-C3-C2=120.90               C20-C3-C4=118.95               
P5-C4-C3=111.66                O19-C4-C3=128.58               O19-C4-P5=119.59               C6-P5-C4=106.65                
C12-P5-C4=105.37               C12-P5-C6=108.77               O18-P5-C4=109.33               O18-P5-C6=112.31               
O18-P5-C12=113.94              C7-C6-P5=116.10                C11-C6-P5=123.81               C11-C6-C7=120.09               
C8-C7-C6=120.06                H29-C7-C6=118.99               H29-C7-C8=120.94               C9-C8-C7=119.84                
H30-C8-C7=119.96               H30-C8-C9=120.19               C10-C9-C8=120.14               H31-C9-C8=120.00               
H31-C9-C10=119.85              C11-C10-C9=120.19              H32-C10-C9=120.04              H32-C10-C11=119.77             
 
 selected dihedral angles (degree)
 ---------------------------------
C3-C2-C1-H26=298.62           C3-C2-C1-H27= 57.38           C3-C2-C1-H28=178.33           C25-C2-C1-H26=117.42          
C25-C2-C1-H27=236.18          C25-C2-C1-H28=357.14          C4-C3-C2-C1=352.14            C4-C3-C2-C25=173.30           
C20-C3-C2-C1=176.26           C20-C3-C2-C25=357.42          P5-C4-C3-C2=275.52            P5-C4-C3-C20= 91.48           
O19-C4-C3-C2= 90.79           O19-C4-C3-C20=266.75          C6-P5-C4-C3=322.82            C6-P5-C4-O19=147.07           
C12-P5-C4-C3=207.32           C12-P5-C4-O19= 31.58          O18-P5-C4-C3= 84.47           O18-P5-C4-O19=268.73          
C7-C6-P5-C4= 79.07            C7-C6-P5-C12=192.26           C7-C6-P5-O18=319.32           C11-C6-P5-C4=259.80           
C11-C6-P5-C12= 12.99          C11-C6-P5-O18=140.06          C8-C7-C6-P5=181.91            C8-C7-C6-C11=  1.21           
H29-C7-C6-P5=  2.52           H29-C7-C6-C11=181.82          C9-C8-C7-C6=359.43            C9-C8-C7-H29=178.81           
H30-C8-C7-C6=179.48           H30-C8-C7-H29=358.86          C10-C9-C8-C7=359.44           C10-C9-C8-H30=179.39          
H31-C9-C8-C7=179.98           H31-C9-C8-H30=359.93          C11-C10-C9-C8=  1.04          C11-C10-C9-H31=180.50         
H32-C10-C9-C8=180.92          H32-C10-C9-H31=  0.38         
           -------------------------------------------------
          |                Final Singlepoint                |
           -------------------------------------------------

          ...................................................
          :                      SETUP                      :
          :.................................................:
          :  # basis functions                 127          :
          :  # atomic orbitals                 126          :
          :  # shells                           72          :
          :  # electrons                       126          :
          :  max. iterations                   250          :
          :  Hamiltonian                  GFN2-xTB          :
          :  restarted?                      false          :
          :  GBSA solvation                  false          :
          :  PC potential                    false          :
          :  electronic temp.          300.0000000     K    :
          :  accuracy                    1.0000000          :
          :  -> integral cutoff          0.2500000E+02      :
          :  -> integral neglect         0.1000000E-07      :
          :  -> SCF convergence          0.1000000E-05 Eh   :
          :  -> wf. convergence          0.1000000E-03 e    :
          :  Broyden damping             0.4000000          :
          :  net charge                          0          :
          :  unpaired electrons                  0          :
          ...................................................

 iter      E             dE          RMSdq      gap      omega  full diag
   1    -69.6501928 -0.696502E+02  0.668E-05    2.64       0.0  T
   2    -69.6501928 -0.588187E-10  0.445E-05    2.64     331.2  T
   3    -69.6501928 -0.924416E-10  0.202E-05    2.64     729.2  T

   *** convergence criteria satisfied after 3 iterations ***

         #    Occupation            Energy/Eh            Energy/eV
      -------------------------------------------------------------
         1        2.0000           -0.7279340             -19.8081
       ...           ...                  ...                  ...
        57        2.0000           -0.4204101             -11.4399
        58        2.0000           -0.4190230             -11.4022
        59        2.0000           -0.4168839             -11.3440
        60        2.0000           -0.4071172             -11.0782
        61        2.0000           -0.3980977             -10.8328
        62        2.0000           -0.3962359             -10.7821
        63        2.0000           -0.3753338             -10.2134 (HOMO)
        64                         -0.2784405              -7.5768 (LUMO)
        65                         -0.2543378              -6.9209
        66                         -0.2473132              -6.7297
        67                         -0.2390511              -6.5049
        68                         -0.2353686              -6.4047
       ...                                ...                  ...
       126                          1.1923669              32.4460
      -------------------------------------------------------------
                  HL-Gap            0.0968933 Eh            2.6366 eV
             Fermi-level           -0.3268871 Eh           -8.8951 eV

 SCC (total)                   0 d,  0 h,  0 min,  0.017 sec
 SCC setup                      ...        0 min,  0.000 sec (  0.591%)
 Dispersion                     ...        0 min,  0.000 sec (  1.563%)
 classical contributions        ...        0 min,  0.000 sec (  0.283%)
 integral evaluation            ...        0 min,  0.002 sec (  9.307%)
 iterations                     ...        0 min,  0.009 sec ( 51.710%)
 molecular gradient             ...        0 min,  0.006 sec ( 35.302%)
 printout                       ...        0 min,  0.000 sec (  1.105%)

         :::::::::::::::::::::::::::::::::::::::::::::::::::::
         ::                     SUMMARY                     ::
         :::::::::::::::::::::::::::::::::::::::::::::::::::::
         :: total energy             -68.494899638774 Eh    ::
         :: gradient norm              0.000574998041 Eh/a0 ::
         :: HOMO-LUMO gap              2.636600176242 eV    ::
         ::.................................................::
         :: SCC energy               -69.648695898190 Eh    ::
         :: -> isotropic ES            0.055846964990 Eh    ::
         :: -> anisotropic ES          0.003643383080 Eh    ::
         :: -> anisotropic XC          0.037754217674 Eh    ::
         :: -> dispersion             -0.061583619201 Eh    ::
         :: repulsion energy           1.153796259416 Eh    ::
         :: add. restraining           0.000000000000 Eh    ::
         :: total charge               0.000000000000 e     ::
         :::::::::::::::::::::::::::::::::::::::::::::::::::::

           -------------------------------------------------
          |                Property Printout                |
           -------------------------------------------------

    * Orbital Energies and Occupations

         #    Occupation            Energy/Eh            Energy/eV
      -------------------------------------------------------------
         1        2.0000           -0.7279340             -19.8081
       ...           ...                  ...                  ...
        51        2.0000           -0.4476834             -12.1821
        52        2.0000           -0.4376866             -11.9101
        53        2.0000           -0.4335079             -11.7964
        54        2.0000           -0.4319178             -11.7531
        55        2.0000           -0.4296480             -11.6913
        56        2.0000           -0.4232101             -11.5161
        57        2.0000           -0.4204101             -11.4399
        58        2.0000           -0.4190230             -11.4022
        59        2.0000           -0.4168839             -11.3440
        60        2.0000           -0.4071172             -11.0782
        61        2.0000           -0.3980977             -10.8328
        62        2.0000           -0.3962359             -10.7821
        63        2.0000           -0.3753338             -10.2134 (HOMO)
        64                         -0.2784405              -7.5768 (LUMO)
        65                         -0.2543378              -6.9209
        66                         -0.2473132              -6.7297
        67                         -0.2390511              -6.5049
        68                         -0.2353686              -6.4047
        69                         -0.2285910              -6.2203
        70                         -0.2229414              -6.0665
        71                         -0.1345749              -3.6620
        72                         -0.1228148              -3.3420
        73                         -0.1061333              -2.8880
        74                         -0.0834008              -2.2695
       ...                                ...                  ...
       126                          1.1923669              32.4460
      -------------------------------------------------------------
                  HL-Gap            0.0968933 Eh            2.6366 eV
             Fermi-level           -0.3268871 Eh           -8.8951 eV

     #   Z          covCN         q      C6AA      α(0)
     1   6 C        3.758    -0.113    22.718     6.795
     2   6 C        2.965     0.025    27.453     8.594
     3   6 C        3.050    -0.033    28.768     8.797
     4   6 C        2.766     0.245    22.899     7.837
     5  15 P        4.016     0.086   156.450    22.469
     6   6 C        2.921     0.008    27.842     8.653
     7   6 C        3.034    -0.018    28.434     8.746
     8   6 C        2.919    -0.025    28.634     8.775
     9   6 C        2.921    -0.024    28.610     8.771
    10   6 C        2.920    -0.027    28.684     8.783
    11   6 C        2.968    -0.027    28.677     8.784
    12   6 C        2.922     0.017    27.620     8.618
    13   6 C        2.979    -0.020    28.511     8.759
    14   6 C        2.920    -0.026    28.655     8.778
    15   6 C        2.921    -0.023    28.580     8.767
    16   6 C        2.919    -0.025    28.635     8.775
    17   6 C        3.029    -0.017    28.414     8.744
    18   8 O        0.808    -0.362    20.957     6.137
    19   8 O        0.884    -0.310    19.944     5.988
    20   6 C        2.967     0.015    27.684     8.631
    21   6 C        3.758    -0.105    22.558     6.772
    22   6 C        2.930    -0.053    29.323     8.881
    23   6 C        2.963     0.017    27.619     8.620
    24   6 C        3.758    -0.110    22.649     6.785
    25   6 C        2.931    -0.052    29.298     8.877
    26   1 H        0.925     0.051     2.311     2.377
    27   1 H        0.925     0.075     2.035     2.231
    28   1 H        0.925     0.044     2.390     2.418
    29   1 H        0.926     0.056     2.241     2.341
    30   1 H        0.926     0.041     2.432     2.439
    31   1 H        0.926     0.040     2.451     2.448
    32   1 H        0.926     0.038     2.472     2.459
    33   1 H        0.925     0.038     2.479     2.462
    34   1 H        0.926     0.041     2.432     2.439
    35   1 H        0.926     0.039     2.464     2.455
    36   1 H        0.926     0.040     2.452     2.449
    37   1 H        0.926     0.042     2.427     2.436
    38   1 H        0.926     0.064     2.151     2.293
    39   1 H        0.924     0.043     2.409     2.427
    40   1 H        0.925     0.045     2.385     2.415
    41   1 H        0.925     0.048     2.345     2.395
    42   1 H        0.926     0.035     2.521     2.483
    43   1 H        0.924     0.051     2.307     2.375
    44   1 H        0.925     0.046     2.372     2.409
    45   1 H        0.925     0.044     2.397     2.421
    46   1 H        0.926     0.039     2.458     2.452

 Mol. C6AA /au·bohr⁶  :      28421.496839
 Mol. C8AA /au·bohr⁸  :     744552.090440
 Mol. α(0) /au        :        270.757472


Wiberg/Mayer (AO) data.
largest (>0.10) Wiberg bond orders for each atom

 ---------------------------------------------------------------------------
     #   Z sym  total        # sym  WBO       # sym  WBO       # sym  WBO
 ---------------------------------------------------------------------------
     1   6 C    3.993 --     2 C    1.029    28 H    0.985    26 H    0.968
                            27 H    0.958
     2   6 C    3.986 --    25 C    1.418     3 C    1.351     1 C    1.029
                            22 C    0.101
     3   6 C    3.980 --    20 C    1.359     2 C    1.351     4 C    0.991
                            23 C    0.100
     4   6 C    3.884 --    19 O    1.908     3 C    0.991     5 P    0.799
     5  15 P    5.167 --    18 O    2.065    12 C    0.952     6 C    0.935
                             4 C    0.799
     6   6 C    3.985 --    11 C    1.397     7 C    1.389     5 P    0.935
                             9 C    0.105
     7   6 C    3.990 --     8 C    1.447     6 C    1.389    29 H    0.957
                            10 C    0.109
     8   6 C    3.990 --     7 C    1.447     9 C    1.435    30 H    0.969
                            11 C    0.109
     9   6 C    3.983 --    10 C    1.437     8 C    1.435    31 H    0.971
                             6 C    0.105
    10   6 C    3.992 --    11 C    1.443     9 C    1.437    32 H    0.970
                             7 C    0.109
    11   6 C    3.992 --    10 C    1.443     6 C    1.397    33 H    0.962
                             8 C    0.109
    12   6 C    3.984 --    17 C    1.390    13 C    1.388     5 P    0.952
                            15 C    0.104
    13   6 C    3.991 --    14 C    1.450    12 C    1.388    34 H    0.962
                            16 C    0.110
    14   6 C    3.992 --    13 C    1.450    15 C    1.433    35 H    0.970
                            17 C    0.109
    15   6 C    3.985 --    16 C    1.440    14 C    1.433    36 H    0.971
                            12 C    0.104
    16   6 C    3.991 --    17 C    1.443    15 C    1.440    37 H    0.969
                            13 C    0.110
    17   6 C    3.987 --    16 C    1.443    12 C    1.390    38 H    0.956
                            14 C    0.109
    18   8 O    2.277 --     5 P    2.065
    19   8 O    2.150 --     4 C    1.908
    20   6 C    3.987 --    22 C    1.418     3 C    1.359    21 C    1.025
                            25 C    0.101
    21   6 C    3.996 --    20 C    1.025    40 H    0.984    41 H    0.975
                            39 H    0.959
    22   6 C    3.989 --    20 C    1.418    23 C    1.409    42 H    0.965
                             2 C    0.101
    23   6 C    3.986 --    22 C    1.409    25 C    1.409    24 C    1.026
                             3 C    0.100
    24   6 C    3.995 --    23 C    1.026    45 H    0.982    44 H    0.981
                            43 H    0.966
    25   6 C    3.989 --     2 C    1.418    23 C    1.409    46 H    0.965
                            20 C    0.101
    26   1 H    0.997 --     1 C    0.968
    27   1 H    0.994 --     1 C    0.958
    28   1 H    0.998 --     1 C    0.985
    29   1 H    0.997 --     7 C    0.957
    30   1 H    0.998 --     8 C    0.969
    31   1 H    0.998 --     9 C    0.971
    32   1 H    0.998 --    10 C    0.970
    33   1 H    0.999 --    11 C    0.962
    34   1 H    0.998 --    13 C    0.962
    35   1 H    0.998 --    14 C    0.970
    36   1 H    0.998 --    15 C    0.971
    37   1 H    0.998 --    16 C    0.969
    38   1 H    0.996 --    17 C    0.956
    39   1 H    0.998 --    21 C    0.959
    40   1 H    0.998 --    21 C    0.984
    41   1 H    0.997 --    21 C    0.975
    42   1 H    0.997 --    22 C    0.965
    43   1 H    0.997 --    24 C    0.966
    44   1 H    0.997 --    24 C    0.981
    45   1 H    0.998 --    24 C    0.982
    46   1 H    0.996 --    25 C    0.965
 ---------------------------------------------------------------------------

Topologies differ in total number of bonds
Writing topology from bond orders to xtbtopo.mol

molecular dipole:
                 x           y           z       tot (Debye)
 q only:        0.201      -0.351      -1.616
   full:        0.199      -0.235      -1.843       4.750
molecular quadrupole (traceless):
                xx          xy          yy          xz          yz          zz
 q only:        9.281     -12.693      -1.782       2.730      -1.264      -7.498
  q+dip:        8.348     -18.159      -1.583       2.485      -3.531      -6.765
   full:        9.985     -14.170      -1.958       3.744      -1.429      -8.027

           -------------------------------------------------
          |                Geometry Summary                 |
           -------------------------------------------------

      molecular mass/u    :      348.3755174
   center of mass at/Å    :       -0.2637688       0.1190268       0.2666523
  moments of inertia/u·Å² :        0.1366572E+04   0.3067409E+04   0.3526379E+04
rotational constants/cm⁻¹ :        0.1233571E-01   0.5495724E-02   0.4780436E-02

 * 43 selected distances

     #   Z          #   Z                                           value/Å
     2   6 C        3   6 C                                       1.3972788
     5  15 P        6   6 C                                       1.8236256 (max)
     6   6 C        7   6 C                                       1.3890567
     7   6 C        8   6 C                                       1.3819334
     8   6 C        9   6 C                                       1.3856359
     9   6 C       10   6 C                                       1.3853260
     6   6 C       11   6 C                                       1.3877567
    10   6 C       11   6 C                                       1.3840719
     5  15 P       12   6 C                                       1.8147698
    12   6 C       13   6 C                                       1.3892993
    13   6 C       14   6 C                                       1.3829320
    14   6 C       15   6 C                                       1.3862526
    15   6 C       16   6 C                                       1.3855588
    12   6 C       17   6 C                                       1.3879239
    16   6 C       17   6 C                                       1.3830821
     5  15 P       18   8 O                                       1.4722637
     4   6 C       19   8 O                                       1.1985844
     3   6 C       20   6 C                                       1.3966028
    20   6 C       22   6 C                                       1.3855884
    22   6 C       23   6 C                                       1.3873345
     2   6 C       25   6 C                                       1.3863829
    23   6 C       25   6 C                                       1.3878900
     1   6 C       26   1 H                                       1.0897687
     1   6 C       27   1 H                                       1.0884573
     1   6 C       28   1 H                                       1.0870752
     7   6 C       29   1 H                                       1.0802439
     8   6 C       30   1 H                                       1.0797789 (min)
     9   6 C       31   1 H                                       1.0800110
    10   6 C       32   1 H                                       1.0802765
    11   6 C       33   1 H                                       1.0813073
    13   6 C       34   1 H                                       1.0806981
    14   6 C       35   1 H                                       1.0803352
    15   6 C       36   1 H                                       1.0801689
    16   6 C       37   1 H                                       1.0800314
    17   6 C       38   1 H                                       1.0805909
    21   6 C       39   1 H                                       1.0906307
    21   6 C       40   1 H                                       1.0873095
    21   6 C       41   1 H                                       1.0893647
    22   6 C       42   1 H                                       1.0806998
    24   6 C       43   1 H                                       1.0904361
    24   6 C       44   1 H                                       1.0874184
    24   6 C       45   1 H                                       1.0874156
    25   6 C       46   1 H                                       1.0807432

 * 5 distinct bonds (by element types)

   Z      Z             #   av. dist./Å        max./Å        min./Å
   1 H    6 C          21     1.0839410     1.0906307     1.0797789
   6 C    6 C          18     1.3872170     1.3972788     1.3819334
   6 C    8 O           1     1.1985844     1.1985844     1.1985844
   6 C   15 P           2     1.8191977     1.8236256     1.8147698
   8 O   15 P           1     1.4722637     1.4722637     1.4722637


optimized geometry written to: xtbopt.xyz


           -------------------------------------------------
          | TOTAL ENERGY              -68.494899638774 Eh   |
          | GRADIENT NORM               0.000574998041 Eh/α |
          | HOMO-LUMO GAP               2.636600176242 eV   |
           -------------------------------------------------

------------------------------------------------------------------------
 * finished run on 2025/12/01 at 14:23:18.627     
------------------------------------------------------------------------
 total:
 * wall-time:     0 d,  0 h,  0 min,  1.843 sec
 *  cpu-time:     0 d,  0 h,  0 min, 42.112 sec
 * ratio c/w:    22.844 speedup
 SCF:
 * wall-time:     0 d,  0 h,  0 min,  0.059 sec
 *  cpu-time:     0 d,  0 h,  0 min,  1.340 sec
 * ratio c/w:    22.740 speedup
 ANC optimizer:
 * wall-time:     0 d,  0 h,  0 min,  1.769 sec
 *  cpu-time:     0 d,  0 h,  0 min, 40.546 sec
 * ratio c/w:    22.914 speedup

normal termination of xtb
